<event>
12    1  0.8453150E-002  0.1956221E+03  0.7818608E-02  0.1153788E+00
         21   -1    0    0  503  502  0.00000000000E+00  0.00000000000E+00  0.58226276775E+02  0.58226276775E+02  0.00000000000E+00 0.  1.
         21   -1    0    0  501  503 -0.00000000000E+00 -0.00000000000E+00 -0.82328019497E+03  0.82328019497E+03  0.00000000000E+00 0.  1.
          6    2    1    2  501    0  0.79139786238E+02 -0.41527970138E+02 -0.58214201794E+03  0.61369169049E+03  0.17245429498E+03 0.  0.
         24    2    3    3    0    0  0.95305031118E+02  0.20422809644E+02 -0.32342859730E+03  0.34713224444E+03  0.79966227066E+02 0.  0.
         -6    2    1    2    0  502 -0.79139786238E+02  0.41527970138E+02 -0.18291190026E+03  0.26781478126E+03  0.17401240109E+03 0.  0.
        -24    2    5    5    0    0 -0.16547413246E+02  0.12017953035E+02 -0.18036977368E+03  0.19840873920E+03  0.80090726390E+02 0.  0.
          5    1    3    3  501    0 -0.16165244880E+02 -0.61950779781E+02 -0.25871342064E+03  0.26655944604E+03  0.47000000000E+01 0. -1.
        -11    1    4    4    0    0  0.81030193941E+02 -0.46704928276E+01 -0.29734883740E+03  0.30822724886E+03  0.00000000000E+00 0.  1.
         12    1    4    4    0    0  0.14274837177E+02  0.25093302471E+02 -0.26079759899E+02  0.38904995588E+02  0.00000000000E+00 0. -1.
         -5    1    5    5    0  502 -0.62592372993E+02  0.29510017103E+02 -0.25421265780E+01  0.69406042056E+02  0.47000000000E+01 0.  1.
         11    1    6    6    0    0 -0.43291713458E+02  0.18337526862E+02 -0.15116436005E+03  0.15830698372E+03  0.00000000000E+00 0. -1.
        -12    1    6    6    0    0  0.26744300213E+02 -0.63195738270E+01 -0.29205413627E+02  0.40101755477E+02  0.00000000000E+00 0.  1.
</event>
<event>
12    1  0.8453150E-002  0.1973047E+03  0.7818608E-02  0.1152055E+00
         21   -1    0    0  503  502  0.00000000000E+00  0.00000000000E+00  0.95987420794E+02  0.95987420794E+02  0.00000000000E+00 0.  1.
         21   -1    0    0  501  503 -0.00000000000E+00 -0.00000000000E+00 -0.77914958508E+03  0.77914958508E+03  0.00000000000E+00 0.  1.
          6    2    1    2  501    0  0.34096963084E+02  0.89105017833E+02 -0.64470056870E+03  0.67421656136E+03  0.17270449106E+03 0.  0.
         24    2    3    3    0    0  0.47490585264E+02  0.12373423295E+03 -0.44808147607E+03  0.47406729395E+03  0.79982960126E+02 0.  0.
         -6    2    1    2    0  502 -0.34096963084E+02 -0.89105017833E+02 -0.38461595582E+02  0.20092044451E+03  0.17259033459E+03 0.  0.
        -24    2    5    5    0    0 -0.87454292676E+02 -0.61056193477E+02 -0.43335519128E+02  0.14026085088E+03  0.80118830504E+02 0.  0.
          5    1    3    3  501    0 -0.13393622180E+02 -0.34629215116E+02 -0.19661909264E+03  0.20014926741E+03  0.47000000000E+01 0. -1.
        -11    1    4    4    0    0 -0.81286891419E+00  0.58959997249E+02 -0.29637903495E+03  0.30218781310E+03  0.00000000000E+00 0.  1.
         12    1    4    4    0    0  0.48303454178E+02  0.64774235701E+02 -0.15170244112E+03  0.17187948085E+03  0.00000000000E+00 0. -1.
         -5    1    5    5    0  502  0.53357329593E+02 -0.28048824356E+02  0.48739235463E+01  0.60659593634E+02  0.47000000000E+01 0.  1.
         11    1    6    6    0    0 -0.63263374540E+02 -0.30796792369E+02  0.13335391751E+02  0.71613753229E+02  0.00000000000E+00 0. -1.
        -12    1    6    6    0    0 -0.24190918137E+02 -0.30259401108E+02 -0.56670910879E+02  0.68647097649E+02  0.00000000000E+00 0.  1.
</event>
<event>
12    1  0.8453150E-002  0.2096341E+03  0.7818608E-02  0.1145223E+00
         21   -1    0    0  501  502  0.00000000000E+00  0.00000000000E+00  0.19975143304E+02  0.19975143304E+02  0.00000000000E+00 0.  1.
         21   -1    0    0  502  503 -0.00000000000E+00 -0.00000000000E+00 -0.20553335072E+04  0.20553335072E+04  0.00000000000E+00 0. -1.
         -6    2    1    2    0  503  0.69736857633E+02  0.54024169909E+02 -0.10856970371E+04  0.11027845675E+04  0.17208691336E+03 0.  0.
        -24    2    3    3    0    0  0.47543693230E+02  0.89801794165E+02 -0.98263965379E+03  0.99135975342E+03  0.82998231871E+02 0.  0.
          6    2    1    2  501    0 -0.69736857633E+02 -0.54024169909E+02 -0.94966132675E+03  0.97252408293E+03  0.19016996640E+03 0.  0.
         24    2    5    5    0    0 -0.65584502842E+02 -0.98041771656E+01 -0.24600696478E+03  0.26745373118E+03  0.81330330740E+02 0.  0.
          5    1    5    5  501    0 -0.41523547908E+01 -0.44219992744E+02 -0.70365436196E+03  0.70507035175E+03  0.47000000000E+01 0. -1.
        -13    1    6    6    0    0  0.14274666457E+02 -0.13177134794E+02 -0.20697940042E+02  0.28386752295E+02  0.00000000000E+00 0.  1.
         14    1    6    6    0    0 -0.79859169300E+02  0.33729576285E+01 -0.22530902474E+03  0.23906697889E+03  0.00000000000E+00 0. -1.
         -5    1    3    3    0  503  0.22193164403E+02 -0.35777624256E+02 -0.10305738332E+03  0.11142481412E+03  0.47000000000E+01 0.  1.
         11    1    4    4    0    0 -0.71092204410E+01  0.70998700098E+02 -0.62809482025E+03  0.63213484294E+03  0.00000000000E+00 0. -1.
        -12    1    4    4    0    0  0.54652913671E+02  0.18803094067E+02 -0.35454483354E+03  0.35922491048E+03  0.00000000000E+00 0.  1.
</event>
<event>
12    1  0.8453150E-002  0.1976563E+03  0.7818608E-02  0.1152352E+00
         21   -1    0    0  501  502  0.00000000000E+00  0.00000000000E+00  0.13870194796E+03  0.13870194796E+03  0.00000000000E+00 0.  1.
         21   -1    0    0  502  503 -0.00000000000E+00 -0.00000000000E+00 -0.29168123264E+03  0.29168123264E+03  0.00000000000E+00 0.  1.
         -6    2    1    2    0  503 -0.98393077050E+02  0.11320663299E+01 -0.12325317595E+03  0.23050408853E+03  0.16810208286E+03 0.  0.
        -24    2    3    3    0    0 -0.15060351990E+02 -0.46881184387E+02 -0.35567284895E+02  0.10027152424E+03  0.79778989514E+02 0.  0.
          6    2    1    2  501    0  0.98393077050E+02 -0.11320663299E+01 -0.29726108725E+02  0.19987909207E+03  0.17142208353E+03 0.  0.
         24    2    5    5    0    0  0.10605073038E+03  0.50912329887E+02 -0.17938925936E+02  0.14576544767E+03  0.84183952878E+02 0.  0.
          5    1    5    5  501    0 -0.76576533337E+01 -0.52044396217E+02 -0.11787182789E+02  0.54113644400E+02  0.47000000000E+01 0. -1.
        -11    1    6    6    0    0  0.52925436151E+02  0.70150738173E+02 -0.64885430848E+01  0.88115430257E+02  0.00000000000E+00 0.  1.
         12    1    6    6    0    0  0.53125294233E+02 -0.19238408286E+02 -0.11450382851E+02  0.57650017417E+02  0.00000000000E+00 0. -1.
         -5    1    3    3    0  503 -0.83332725060E+02  0.48013250717E+02 -0.87685891057E+02  0.13023256429E+03  0.47000000000E+01 0.  1.
         11    1    4    4    0    0  0.27046489474E+01 -0.19045461801E+02  0.24846050066E+02  0.31422459245E+02  0.00000000000E+00 0. -1.
        -12    1    4    4    0    0 -0.17765000937E+02 -0.27835722586E+02 -0.60413334960E+02  0.68849064999E+02  0.00000000000E+00 0.  1.
</event>
<event>
12    1  0.8453150E-002  0.1968665E+03  0.7818608E-02  0.1153789E+00
         21   -1    0    0  503  502  0.00000000000E+00  0.00000000000E+00  0.11598633731E+03  0.11598633731E+03  0.00000000000E+00 0.  1.
         21   -1    0    0  501  503 -0.00000000000E+00 -0.00000000000E+00 -0.63719797491E+03  0.63719797491E+03  0.00000000000E+00 0.  1.
          6    2    1    2  501    0 -0.24384513904E+02 -0.77822038881E+02 -0.52265299400E+03  0.55631257520E+03  0.17224010838E+03 0.  0.
         24    2    3    3    0    0  0.41447878676E+02 -0.85591113526E+02 -0.33291606224E+03  0.35527413184E+03  0.79641941829E+02 0.  0.
         -6    2    1    2    0  502  0.24384513904E+02  0.77822038881E+02  0.14413564082E+01  0.19687173702E+03  0.17918015815E+03 0.  0.
        -24    2    5    5    0    0 -0.38076735365E+01 -0.18994508678E+02  0.33779560299E+02  0.90871299545E+02  0.82105082969E+02 0.  0.
          5    1    3    3  501    0 -0.65832392580E+02  0.77690746445E+01 -0.18973693177E+03  0.20103844336E+03  0.47000000000E+01 0. -1.
        -11    1    4    4    0    0 -0.16974829848E+02 -0.23552585176E+02 -0.15868995245E+03  0.16132380520E+03  0.00000000000E+00 0.  1.
         12    1    4    4    0    0  0.58422708524E+02 -0.62038528349E+02 -0.17422610979E+03  0.19395032664E+03  0.00000000000E+00 0. -1.
         -5    1    5    5    0  502  0.28192187440E+02  0.96816547560E+02 -0.32338203891E+02  0.10600043748E+03  0.47000000000E+01 0.  1.
         13    1    6    6    0    0  0.51184387934E+01 -0.40750298690E+02 -0.90086693362E+01  0.42046895036E+02  0.00000000000E+00 0. -1.
        -14    1    6    6    0    0 -0.89261123299E+01  0.21755790012E+02  0.42788229635E+02  0.48824404509E+02  0.00000000000E+00 0.  1.
</event>
<event>
12    1  0.8453150E-002  0.2754899E+03  0.7818608E-02  0.1098318E+00
         21   -1    0    0  503  502  0.00000000000E+00  0.00000000000E+00  0.41865270952E+03  0.41865270952E+03  0.00000000000E+00 0.  1.
         21   -1    0    0  501  503 -0.00000000000E+00 -0.00000000000E+00 -0.18563405534E+03  0.18563405534E+03  0.00000000000E+00 0.  1.
          6    2    1    2  501    0 -0.10051506264E+03  0.18982700454E+03  0.66669676634E+02  0.28246900603E+03  0.17089857845E+03 0.  0.
         24    2    3    3    0    0 -0.10048827566E+03  0.14617813351E+03  0.10695299621E+03  0.22288662192E+03  0.82301655959E+02 0.  0.
         -6    2    1    2    0  502  0.10051506264E+03 -0.18982700454E+03  0.16634897754E+03  0.32181775883E+03  0.17250251621E+03 0.  0.
        -24    2    5    5    0    0  0.17375747535E+02 -0.14184341441E+03  0.16161589700E+03  0.22559373538E+03  0.65964872969E+02 0.  0.
          5    1    3    3  501    0 -0.26786979994E-01  0.43648871034E+02 -0.40283319577E+02  0.59582384110E+02  0.47000000000E+01 0. -1.
        -13    1    4    4    0    0 -0.64941578326E+02  0.27053530737E+02  0.48952922867E+02  0.85707005420E+02  0.00000000000E+00 0.  1.
         14    1    4    4    0    0 -0.35546697335E+02  0.11912460277E+03  0.58000073343E+02  0.13717961650E+03  0.00000000000E+00 0. -1.
         -5    1    5    5    0  502  0.83139315106E+02 -0.47983590126E+02  0.47330805479E+01  0.96224023451E+02  0.47000000000E+01 0.  1.
         11    1    6    6    0    0 -0.67497741841E+01  0.51104980242E+01  0.82341474987E+01  0.11810073100E+02  0.00000000000E+00 0. -1.
        -12    1    6    6    0    0  0.24125521719E+02 -0.14695391244E+03  0.15338174950E+03  0.21378366228E+03  0.00000000000E+00 0.  1.
</event>
<event>
12    1  0.8453150E-002  0.1778470E+03  0.7818608E-02  0.1170598E+00
         21   -1    0    0  503  502  0.00000000000E+00  0.00000000000E+00  0.28566153355E+03  0.28566153355E+03  0.00000000000E+00 0. -1.
         21   -1    0    0  501  503 -0.00000000000E+00 -0.00000000000E+00 -0.13846617980E+03  0.13846617980E+03  0.00000000000E+00 0. -1.
          6    2    1    2  501    0  0.34072671155E+02 -0.23533815793E+02  0.17190696529E+03  0.24734910007E+03  0.17295891183E+03 0.  0.
         24    2    3    3    0    0  0.27189205453E+02 -0.55732599193E+01  0.19825401013E+03  0.21439124153E+03  0.76737460160E+02 0.  0.
         -6    2    1    2    0  502 -0.34072671155E+02  0.23533815793E+02 -0.24711611547E+02  0.17677861328E+03  0.17007418077E+03 0.  0.
        -24    2    5    5    0    0  0.50945147293E+01 -0.88355504731E+01 -0.73261150596E+02  0.10634430301E+03  0.76406109458E+02 0.  0.
          5    1    3    3  501    0  0.68834657021E+01 -0.17960555874E+02 -0.26347044842E+02  0.32957858536E+02  0.47000000000E+01 0. -1.
        -13    1    4    4    0    0 -0.18925234790E+02  0.20928839471E+02  0.61757150713E+02  0.67897912322E+02  0.00000000000E+00 0.  1.
         14    1    4    4    0    0  0.46114440243E+02 -0.26502099390E+02  0.13649685942E+03  0.14649332921E+03  0.00000000000E+00 0. -1.
         -5    1    5    5    0  502 -0.39167185884E+02  0.32369366267E+02  0.48549539049E+02  0.70434310279E+02  0.47000000000E+01 0.  1.
         11    1    6    6    0    0 -0.24764978464E+02  0.12692170008E+02 -0.61823112839E+02  0.67797438144E+02  0.00000000000E+00 0. -1.
        -12    1    6    6    0    0  0.29859493193E+02 -0.21527720481E+02 -0.11438037757E+02  0.38546864861E+02  0.00000000000E+00 0.  1.
</event>
<event>
12    1  0.8453150E-002  0.1775676E+03  0.7818608E-02  0.1170412E+00
         21   -1    0    0  501  502  0.00000000000E+00  0.00000000000E+00  0.92102712916E+02  0.92102712916E+02  0.00000000000E+00 0. -1.
         21   -1    0    0  502  503 -0.00000000000E+00 -0.00000000000E+00 -0.46408518959E+03  0.46408518959E+03  0.00000000000E+00 0. -1.
         -6    2    1    2    0  503 -0.42876480280E+02 -0.13494424196E+02 -0.32985314513E+03  0.37461094294E+03  0.17178407718E+03 0.  0.
        -24    2    3    3    0    0 -0.52072255889E+02 -0.72503544843E+02 -0.20902219977E+03  0.23974491325E+03  0.76282760719E+02 0.  0.
          6    2    1    2  501    0  0.42876480280E+02  0.13494424196E+02 -0.42129331542E+02  0.18157695956E+03  0.17080638051E+03 0.  0.
         24    2    5    5    0    0  0.15843980398E+02  0.32266561691E+02 -0.89041846746E+02  0.12407893109E+03  0.78580964295E+02 0.  0.
          5    1    5    5  501    0  0.27032499883E+02 -0.18772137495E+02  0.46912515204E+02  0.57498028478E+02  0.47000000000E+01 0. -1.
        -13    1    6    6    0    0 -0.21971835597E+02  0.20873388171E+01 -0.67685588002E+02  0.71193099145E+02  0.00000000000E+00 0.  1.
         14    1    6    6    0    0  0.37815815994E+02  0.30179222874E+02 -0.21356258744E+02  0.52885831941E+02  0.00000000000E+00 0. -1.
         -5    1    3    3    0  503  0.91957756086E+01  0.59009120647E+02 -0.12083094536E+03  0.13486602970E+03  0.47000000000E+01 0.  1.
         11    1    4    4    0    0 -0.62001764701E+02 -0.49929366234E+02 -0.19665455568E+03  0.21215601502E+03  0.00000000000E+00 0. -1.
        -12    1    4    4    0    0  0.99295088116E+01 -0.22574178609E+02 -0.12367644087E+02  0.27588898227E+02  0.00000000000E+00 0.  1.
</event>
<event>
12    1  0.8453150E-002  0.1827597E+03  0.7818608E-02  0.1167695E+00
         21   -1    0    0  501  502  0.00000000000E+00  0.00000000000E+00  0.11551248027E+03  0.11551248027E+03  0.00000000000E+00 0. -1.
         21   -1    0    0  502  503 -0.00000000000E+00 -0.00000000000E+00 -0.50606192518E+03  0.50606192518E+03  0.00000000000E+00 0. -1.
         -6    2    1    2    0  503  0.12085716160E+01  0.69776552143E+01 -0.40921628921E+03  0.44817305410E+03  0.18262247054E+03 0.  0.
        -24    2    3    3    0    0  0.32891345685E+01 -0.27696720095E-01 -0.42358114288E+03  0.43138488211E+03  0.81615640294E+02 0.  0.
          6    2    1    2  501    0 -0.12085716160E+01 -0.69776552143E+01  0.18666844306E+02  0.17340135134E+03  0.17224816183E+03 0.  0.
         24    2    5    5    0    0 -0.70771113490E+01  0.52132424009E+02 -0.24754439977E+02  0.99672529616E+02  0.80956505133E+02 0.  0.
          5    1    5    5  501    0  0.58685397330E+01 -0.59110079224E+02  0.43421284284E+02  0.73728821727E+02  0.47000000000E+01 0. -1.
        -13    1    6    6    0    0 -0.15290227512E+02  0.48247594769E+01 -0.44843851795E+02  0.47623947812E+02  0.00000000000E+00 0.  1.
         14    1    6    6    0    0  0.82131161630E+01  0.47307664532E+02  0.20089411818E+02  0.52048581804E+02  0.00000000000E+00 0. -1.
         -5    1    3    3    0  503 -0.20805629525E+01  0.70053519344E+01  0.14364853664E+02  0.16788171989E+02  0.47000000000E+01 0.  1.
         11    1    4    4    0    0  0.38985977213E+02  0.14609396718E+02 -0.26023306670E+03  0.26354238729E+03  0.00000000000E+00 0. -1.
        -12    1    4    4    0    0 -0.35696842645E+02 -0.14637093438E+02 -0.16334807618E+03  0.16784249483E+03  0.00000000000E+00 0.  1.
</event>
<event>
12    1  0.8453150E-002  0.2587736E+03  0.7818608E-02  0.1107907E+00
         21   -1    0    0  501  502  0.00000000000E+00  0.00000000000E+00  0.76642087561E+03  0.76642087561E+03  0.00000000000E+00 0. -1.
         21   -1    0    0  502  503 -0.00000000000E+00 -0.00000000000E+00 -0.87415591437E+02  0.87415591437E+02  0.00000000000E+00 0.  1.
         -6    2    1    2    0  503  0.18088485650E+03 -0.67293720786E+02  0.35391947997E+03  0.43843220310E+03  0.17238335840E+03 0.  0.
        -24    2    3    3    0    0  0.40108226039E+02 -0.48584402253E+01  0.20370322299E+03  0.22325033166E+03  0.81935543498E+02 0.  0.
          6    2    1    2  501    0 -0.18088485650E+03  0.67293720786E+02  0.32508580421E+03  0.41540426394E+03  0.17213990310E+03 0.  0.
         24    2    5    5    0    0 -0.17091358616E+03  0.34191129033E+02  0.16824562824E+03  0.25473025045E+03  0.78742757367E+02 0.  0.
          5    1    5    5  501    0 -0.99712703411E+01  0.33102591752E+02  0.15684017597E+03  0.16067401349E+03  0.47000000000E+01 0. -1.
        -11    1    6    6    0    0 -0.12124657013E+03  0.29875236595E+02  0.16191719847E+03  0.20447601250E+03  0.00000000000E+00 0.  1.
         12    1    6    6    0    0 -0.49667016029E+02  0.43158924388E+01  0.63284297709E+01  0.50254237952E+02  0.00000000000E+00 0. -1.
         -5    1    3    3    0  503  0.14077663046E+03 -0.62435280561E+02  0.15021625697E+03  0.21518187145E+03  0.47000000000E+01 0.  1.
         13    1    4    4    0    0  0.55318799360E+02 -0.27283678382E+02  0.16368649667E+03  0.17492237667E+03  0.00000000000E+00 0. -1.
        -14    1    4    4    0    0 -0.15210573321E+02  0.22425238156E+02  0.40016726329E+02  0.48327954987E+02  0.00000000000E+00 0.  1.
</event>
<event>
12    1  0.8453150E-002  0.2381764E+03  0.7818608E-02  0.1123478E+00
         21   -1    0    0  501  502  0.00000000000E+00  0.00000000000E+00  0.39379356677E+03  0.39379356677E+03  0.00000000000E+00 0. -1.
         21   -1    0    0  502  503 -0.00000000000E+00 -0.00000000000E+00 -0.13902909913E+03  0.13902909913E+03  0.00000000000E+00 0.  1.
         -6    2    1    2    0  503  0.14351697106E+03  0.23540482489E+02  0.81798767518E+02  0.23846719790E+03  0.17036516901E+03 0.  0.
        -24    2    3    3    0    0  0.49731953495E+02  0.36294432401E+02  0.99970550912E+02  0.14197576580E+03  0.79827651875E+02 0.  0.
          6    2    1    2  501    0 -0.14351697106E+03 -0.23540482489E+02  0.17296570013E+03  0.29435546799E+03  0.18861795466E+03 0.  0.
         24    2    5    5    0    0 -0.68275767997E+02 -0.56165007114E+02  0.20141645109E+02  0.12085365233E+03  0.79898879183E+02 0.  0.
          5    1    5    5  501    0 -0.75241203060E+02  0.32624524625E+02  0.15282405502E+03  0.17350181566E+03  0.47000000000E+01 0. -1.
        -11    1    6    6    0    0 -0.52893643212E+02 -0.19929842578E+00  0.31709996170E+02  0.61670909424E+02  0.00000000000E+00 0.  1.
         12    1    6    6    0    0 -0.15382124784E+02 -0.55965708688E+02 -0.11568351061E+02  0.59182742908E+02  0.00000000000E+00 0. -1.
         -5    1    3    3    0  503  0.93785017562E+02 -0.12753949913E+02 -0.18171783393E+02  0.96491432102E+02  0.47000000000E+01 0.  1.
         13    1    4    4    0    0  0.33512832036E+02  0.81586429016E+01  0.10370070962E+03  0.10928636942E+03  0.00000000000E+00 0. -1.
        -14    1    4    4    0    0  0.16219121460E+02  0.28135789500E+02 -0.37301587122E+01  0.32689396380E+02  0.00000000000E+00 0.  1.
</event>
<event>
12    1  0.8453150E-002  0.2262605E+03  0.7818608E-02  0.1129644E+00
         21   -1    0    0  503  502  0.00000000000E+00  0.00000000000E+00  0.11362722083E+03  0.11362722083E+03  0.00000000000E+00 0.  1.
         21   -1    0    0  501  503 -0.00000000000E+00 -0.00000000000E+00 -0.52231722990E+03  0.52231722990E+03  0.00000000000E+00 0.  1.
          6    2    1    2  501    0  0.10345460985E+03  0.10371190240E+03 -0.32602788777E+03  0.39684756998E+03  0.17243780094E+03 0.  0.
         24    2    3    3    0    0  0.10796177457E+03  0.83493959658E+02 -0.14628145064E+03  0.21585046667E+03  0.81031938731E+02 0.  0.
         -6    2    1    2    0  502 -0.10345460985E+03 -0.10371190240E+03 -0.82662121305E+02  0.23909688075E+03  0.16992727000E+03 0.  0.
        -24    2    5    5    0    0 -0.38463468194E+02 -0.43952398167E+02  0.23688502409E+02  0.10079434280E+03  0.78658138193E+02 0.  0.
          5    1    3    3  501    0 -0.45071647210E+01  0.20217942741E+02 -0.17974643713E+03  0.18099710330E+03  0.47000000000E+01 0. -1.
        -11    1    4    4    0    0  0.12420265419E+02  0.38855355610E+02 -0.83989753093E+02  0.93371731682E+02  0.00000000000E+00 0.  1.
         12    1    4    4    0    0  0.95541509149E+02  0.44638604048E+02 -0.62291697547E+02  0.12247873499E+03  0.00000000000E+00 0. -1.
         -5    1    5    5    0  502 -0.64991141652E+02 -0.59759504232E+02 -0.10635062371E+03  0.13830253795E+03  0.47000000000E+01 0.  1.
         11    1    6    6    0    0 -0.42955674266E+02 -0.25246227088E+01 -0.13338697235E+02  0.45049800392E+02  0.00000000000E+00 0. -1.
        -12    1    6    6    0    0  0.44922060712E+01 -0.41427775458E+02  0.37027199644E+02  0.55744542408E+02  0.00000000000E+00 0.  1.
</event>
<event>
12    1  0.8453150E-002  0.2561616E+03  0.7818608E-02  0.1109476E+00
         21   -1    0    0  501  502  0.00000000000E+00  0.00000000000E+00  0.23981317273E+03  0.23981317273E+03  0.00000000000E+00 0.  1.
         21   -1    0    0  502  503 -0.00000000000E+00 -0.00000000000E+00 -0.28009174400E+03  0.28009174400E+03  0.00000000000E+00 0. -1.
         -6    2    1    2    0  503  0.16669783894E+03 -0.84918234534E+02  0.19451083928E+02  0.25689898935E+03  0.17498419929E+03 0.  0.
        -24    2    3    3    0    0  0.99293520642E+02 -0.82273897087E+02 -0.50549718736E+02  0.15957202999E+03  0.79244944991E+02 0.  0.
          6    2    1    2  501    0 -0.16669783894E+03  0.84918234534E+02 -0.59729655199E+02  0.26300592737E+03  0.17494344818E+03 0.  0.
         24    2    5    5    0    0 -0.10393427943E+03  0.10884648340E+03  0.80377132292E+01  0.16747409122E+03  0.73027905655E+02 0.  0.
          5    1    5    5  501    0 -0.62763559502E+02 -0.23928248869E+02 -0.67767368428E+02  0.95531836154E+02  0.47000000000E+01 0. -1.
        -13    1    6    6    0    0 -0.90787874369E+02  0.58751376536E+02 -0.17801229235E+02  0.10959491840E+03  0.00000000000E+00 0.  1.
         14    1    6    6    0    0 -0.13146405066E+02  0.50095106867E+02  0.25838942464E+02  0.57879172816E+02  0.00000000000E+00 0. -1.
         -5    1    3    3    0  503  0.67404318295E+02 -0.26443374473E+01  0.70000802664E+02  0.97326959364E+02  0.47000000000E+01 0.  1.
         11    1    4    4    0    0  0.91197148847E+01  0.70586941275E+01 -0.28492970732E+02  0.30738310681E+02  0.00000000000E+00 0. -1.
        -12    1    4    4    0    0  0.90173805757E+02 -0.89332591215E+02 -0.22056748004E+02  0.12883371931E+03  0.00000000000E+00 0.  1.
</event>
<event>
12    1  0.8453150E-002  0.2309117E+03  0.7818608E-02  0.1126122E+00
         21   -1    0    0  503  502  0.00000000000E+00  0.00000000000E+00  0.51634815296E+03  0.51634815296E+03  0.00000000000E+00 0. -1.
         21   -1    0    0  501  503 -0.00000000000E+00 -0.00000000000E+00 -0.12012832510E+03  0.12012832510E+03  0.00000000000E+00 0. -1.
          6    2    1    2  501    0 -0.60036105787E+02 -0.14086509802E+03  0.77518342887E+02  0.24291470428E+03  0.17190447997E+03 0.  0.
         24    2    3    3    0    0  0.11947371541E+02 -0.94474086712E+01  0.30298695134E+02  0.85739594240E+02  0.78748167447E+02 0.  0.
         -6    2    1    2    0  502  0.60036105787E+02  0.14086509802E+03  0.31870148497E+03  0.39356177378E+03  0.17283785297E+03 0.  0.
        -24    2    5    5    0    0 -0.23809405547E+02  0.10222588197E+03  0.13709831806E+03  0.18978528098E+03  0.78774902871E+02 0.  0.
          5    1    3    3  501    0 -0.71983477328E+02 -0.13141768935E+03  0.47219647753E+02  0.15717511004E+03  0.47000000000E+01 0. -1.
        -13    1    4    4    0    0 -0.10834204187E+02 -0.31840475937E+02 -0.92682773328E+01  0.34886915211E+02  0.00000000000E+00 0.  1.
         14    1    4    4    0    0  0.22781575727E+02  0.22393067266E+02  0.39566972467E+02  0.50852679029E+02  0.00000000000E+00 0. -1.
         -5    1    5    5    0  502  0.83845511334E+02  0.38639216053E+02  0.18160316691E+03  0.20377649280E+03  0.47000000000E+01 0.  1.
         11    1    6    6    0    0  0.15885887512E+02  0.68375194301E+02  0.11129713877E+03  0.13158488408E+03  0.00000000000E+00 0. -1.
        -12    1    6    6    0    0 -0.39695293059E+02  0.33850687668E+02  0.25801179288E+02  0.58200396899E+02  0.00000000000E+00 0.  1.
</event>
<event>
12    1  0.8453150E-002  0.1809915E+03  0.7818608E-02  0.1166997E+00
         21   -1    0    0  503  502  0.00000000000E+00  0.00000000000E+00  0.15410068209E+04  0.15410068209E+04  0.00000000000E+00 0. -1.
         21   -1    0    0  501  503 -0.00000000000E+00 -0.00000000000E+00 -0.23813674622E+02  0.23813674622E+02  0.00000000000E+00 0. -1.
          6    2    1    2  501    0 -0.19241466450E+02 -0.51353474774E+02  0.49977439959E+03  0.53153775005E+03  0.17248337843E+03 0.  0.
         24    2    3    3    0    0  0.41498397604E+02 -0.80835312716E+02  0.31762452821E+03  0.33722054675E+03  0.67645335709E+02 0.  0.
         -6    2    1    2    0  502  0.19241466450E+02  0.51353474774E+02  0.10174187467E+04  0.10332827454E+04  0.17182814839E+03 0.  0.
        -24    2    5    5    0    0 -0.35597106866E+02 -0.17509554767E+02  0.60214226684E+03  0.60875238063E+03  0.80189855222E+02 0.  0.
          5    1    3    3  501    0 -0.60739864054E+02  0.29481837942E+02  0.18214987138E+03  0.19431720330E+03  0.47000000000E+01 0. -1.
        -13    1    4    4    0    0  0.34464385136E+02 -0.36351944309E+02  0.25622094768E+03  0.26107169845E+03  0.00000000000E+00 0.  1.
         14    1    4    4    0    0  0.70340124675E+01 -0.44483368407E+02  0.61403580524E+02  0.76148848300E+02  0.00000000000E+00 0. -1.
         -5    1    5    5    0  502  0.54838573316E+02  0.68863029542E+02  0.41527647982E+03  0.42453036482E+03  0.47000000000E+01 0.  1.
         13    1    6    6    0    0 -0.15150234849E+02  0.30915919366E+02  0.31130712377E+03  0.31320512287E+03  0.00000000000E+00 0. -1.
        -14    1    6    6    0    0 -0.20446872016E+02 -0.48425474133E+02  0.29083514307E+03  0.29554725776E+03  0.00000000000E+00 0.  1.
</event>
<event>
12    1  0.8453150E-002  0.2049222E+03  0.7818608E-02  0.1145702E+00
         21   -1    0    0  501  502  0.00000000000E+00  0.00000000000E+00  0.59000598508E+03  0.59000598508E+03  0.00000000000E+00 0.  1.
         21   -1    0    0  502  503 -0.00000000000E+00 -0.00000000000E+00 -0.11012275514E+03  0.11012275514E+03  0.00000000000E+00 0. -1.
         -6    2    1    2    0  503  0.81554070316E+02 -0.75357963936E+02  0.31432761757E+02  0.20707609072E+03  0.17193777863E+03 0.  0.
        -24    2    3    3    0    0  0.12039926013E+03 -0.87479403468E+02  0.24764549514E+02  0.16557388448E+03  0.68211439207E+02 0.  0.
          6    2    1    2  501    0 -0.81554070316E+02  0.75357963936E+02  0.44845046818E+03  0.49305264951E+03  0.17223008930E+03 0.  0.
         24    2    5    5    0    0  0.11509333508E+02 -0.64403563674E+01  0.19832268394E+03  0.21387929694E+03  0.78984325942E+02 0.  0.
          5    1    5    5  501    0 -0.93063403824E+02  0.81798320303E+02  0.25012778424E+03  0.27917335257E+03  0.47000000000E+01 0. -1.
        -11    1    6    6    0    0  0.23086165032E+02  0.72225827005E+01  0.19394000672E+03  0.19544273566E+03  0.00000000000E+00 0.  1.
         12    1    6    6    0    0 -0.11576831524E+02 -0.13662939068E+02  0.43826772261E+01  0.18436561279E+02  0.00000000000E+00 0. -1.
         -5    1    3    3    0  503 -0.38845189814E+02  0.12121439532E+02  0.66682122435E+01  0.41502206237E+02  0.47000000000E+01 0.  1.
         13    1    4    4    0    0  0.63842564004E+02 -0.31965290971E+02 -0.20533655040E+02  0.74291882428E+02  0.00000000000E+00 0. -1.
        -14    1    4    4    0    0  0.56556696126E+02 -0.55514112497E+02  0.45298204554E+02  0.91282002053E+02  0.00000000000E+00 0.  1.
</event>
<event>
12    1  0.8453150E-002  0.1726926E+03  0.7818608E-02  0.1175565E+00
         21   -1    0    0  501  502  0.00000000000E+00  0.00000000000E+00  0.81193425926E+02  0.81193425926E+02  0.00000000000E+00 0. -1.
         21   -1    0    0  502  503 -0.00000000000E+00 -0.00000000000E+00 -0.47912441842E+03  0.47912441842E+03  0.00000000000E+00 0. -1.
         -6    2    1    2    0  503  0.95949359570E+01 -0.36696466899E+01 -0.33761338122E+03  0.37921699919E+03  0.17238679820E+03 0.  0.
        -24    2    3    3    0    0  0.40902429273E+02  0.53173551089E+02 -0.24268151499E+03  0.26412808792E+03  0.79805349791E+02 0.  0.
          6    2    1    2  501    0 -0.95949359570E+01  0.36696466899E+01 -0.60317611278E+02  0.18110084516E+03  0.17045167287E+03 0.  0.
         24    2    5    5    0    0 -0.61318449810E+02  0.39140979314E+02 -0.39158524381E+02  0.11474322102E+03  0.79628187150E+02 0.  0.
          5    1    5    5  501    0  0.51723513853E+02 -0.35471332624E+02 -0.21159086897E+02  0.66357624142E+02  0.47000000000E+01 0. -1.
        -11    1    6    6    0    0 -0.21127311981E+00  0.10679770094E+02 -0.45779038540E+02  0.47008749135E+02  0.00000000000E+00 0.  1.
         12    1    6    6    0    0 -0.61107176690E+02  0.28461209220E+02  0.66205141589E+01  0.67734471882E+02  0.00000000000E+00 0. -1.
         -5    1    3    3    0  503 -0.31307493316E+02 -0.56843197779E+02 -0.94931866229E+02  0.11508891127E+03  0.47000000000E+01 0.  1.
         11    1    4    4    0    0 -0.14057418983E+02  0.45333730429E+02 -0.91540462464E+02  0.10311359955E+03  0.00000000000E+00 0. -1.
        -12    1    4    4    0    0  0.54959848256E+02  0.78398206599E+01 -0.15114105252E+03  0.16101448837E+03  0.00000000000E+00 0.  1.
</event>
<event>
12    1  0.8453150E-002  0.2190297E+03  0.7818608E-02  0.1134616E+00
         21   -1    0    0  503  502  0.00000000000E+00  0.00000000000E+00  0.23836663323E+02  0.23836663323E+02  0.00000000000E+00 0.  1.
         21   -1    0    0  501  503 -0.00000000000E+00 -0.00000000000E+00 -0.21474914735E+04  0.21474914735E+04  0.00000000000E+00 0. -1.
          6    2    1    2  501    0 -0.12416134764E+03 -0.53381571443E+02 -0.13341905286E+04  0.13520431624E+04  0.17230993637E+03 0.  0.
         24    2    3    3    0    0 -0.14744336907E+03 -0.57191382739E+01 -0.10596765368E+04  0.10724116518E+04  0.73349387782E+02 0.  0.
         -6    2    1    2    0  502  0.12416134764E+03  0.53381571443E+02 -0.78946428160E+03  0.81928497437E+03  0.17236120471E+03 0.  0.
        -24    2    5    5    0    0  0.61410199328E+02  0.65791847258E+02 -0.69441300020E+03  0.70461781405E+03  0.78594333641E+02 0.  0.
          5    1    3    3  501    0  0.23282021432E+02 -0.47662433169E+02 -0.27451399177E+03  0.27963151062E+03  0.47000000000E+01 0. -1.
        -13    1    4    4    0    0 -0.11859486287E+03 -0.13977974778E+02 -0.60066178541E+03  0.61241710111E+03  0.00000000000E+00 0.  1.
         14    1    4    4    0    0 -0.28848506204E+02  0.82588365038E+01 -0.45901475139E+03  0.45999455071E+03  0.00000000000E+00 0. -1.
         -5    1    5    5    0  502  0.62751148314E+02 -0.12410275815E+02 -0.95051281395E+02  0.11466716032E+03  0.47000000000E+01 0.  1.
         11    1    6    6    0    0  0.67991495189E+02  0.25115934715E+02 -0.32904132809E+03  0.33693003604E+03  0.00000000000E+00 0. -1.
        -12    1    6    6    0    0 -0.65812958607E+01  0.40675912542E+02 -0.36537167211E+03  0.36768777801E+03  0.00000000000E+00 0.  1.
</event>
<event>
12    1  0.8453150E-002  0.2004325E+03  0.7818608E-02  0.1149526E+00
         21   -1    0    0  501  502  0.00000000000E+00  0.00000000000E+00  0.14819957846E+03  0.14819957846E+03  0.00000000000E+00 0. -1.
         21   -1    0    0  502  503 -0.00000000000E+00 -0.00000000000E+00 -0.35814428057E+03  0.35814428057E+03  0.00000000000E+00 0. -1.
         -6    2    1    2    0  503 -0.10232757678E+03 -0.24716036385E+01 -0.23035259449E+03  0.30487507444E+03  0.17149184073E+03 0.  0.
        -24    2    3    3    0    0 -0.12606373396E+03 -0.88324444394E+01 -0.12047414552E+03  0.19218421855E+03  0.80316106905E+02 0.  0.
          6    2    1    2  501    0  0.10232757678E+03  0.24716036385E+01  0.20407892381E+02  0.20146878458E+03  0.17232570121E+03 0.  0.
         24    2    5    5    0    0  0.37197015380E+02  0.48089838584E+02  0.56800767053E+02  0.11389284774E+03  0.77775337348E+02 0.  0.
          5    1    5    5  501    0  0.65130561398E+02 -0.45618234945E+02 -0.36392874672E+02  0.87575936846E+02  0.47000000000E+01 0. -1.
        -13    1    6    6    0    0  0.19593433903E+02 -0.88895526758E+01  0.49294691490E+02  0.53785624548E+02  0.00000000000E+00 0.  1.
         14    1    6    6    0    0  0.17603581477E+02  0.56979391259E+02  0.75060755631E+01  0.60107223189E+02  0.00000000000E+00 0. -1.
         -5    1    3    3    0  503  0.23736157181E+02  0.63608408009E+01 -0.10987844897E+03  0.11269085589E+03  0.47000000000E+01 0.  1.
         11    1    4    4    0    0 -0.92407418215E+02  0.16876749115E+01 -0.12623756611E+03  0.15645415394E+03  0.00000000000E+00 0. -1.
        -12    1    4    4    0    0 -0.33656315745E+02 -0.10520119351E+02  0.57634205879E+01  0.35730064617E+02  0.00000000000E+00 0.  1.
</event>
<event>
12    1  0.8453150E-002  0.2165158E+03  0.7818608E-02  0.1136578E+00
         21   -1    0    0  501  502  0.00000000000E+00  0.00000000000E+00  0.85269047813E+03  0.85269047813E+03  0.00000000000E+00 0.  1.
         21   -1    0    0  502  503 -0.00000000000E+00 -0.00000000000E+00 -0.58875634021E+02  0.58875634021E+02  0.00000000000E+00 0.  1.
         -6    2    1    2    0  503 -0.10953388951E+03 -0.72963844772E+02  0.27855541908E+03  0.35280617116E+03  0.17192346353E+03 0.  0.
        -24    2    3    3    0    0 -0.14759022907E+03 -0.62278415971E+02  0.19957442385E+03  0.26436098488E+03  0.66297080303E+02 0.  0.
          6    2    1    2  501    0  0.10953388951E+03  0.72963844772E+02  0.51525942502E+03  0.55875994099E+03  0.17146136878E+03 0.  0.
         24    2    5    5    0    0  0.10254727917E+03  0.75070188240E+02  0.52597424063E+03  0.54497057261E+03  0.64749869306E+02 0.  0.
          5    1    5    5  501    0  0.69866103370E+01 -0.21063434682E+01 -0.10714815607E+02  0.13789368379E+02  0.47000000000E+01 0. -1.
        -11    1    6    6    0    0  0.55207469375E+02  0.29255147747E+02  0.37612634355E+03  0.38128041473E+03  0.00000000000E+00 0.  1.
         12    1    6    6    0    0  0.47339809799E+02  0.45815040493E+02  0.14984789708E+03  0.16369015788E+03  0.00000000000E+00 0. -1.
         -5    1    3    3    0  503  0.38056339556E+02 -0.10685428801E+02  0.78980995232E+02  0.88445186284E+02  0.47000000000E+01 0.  1.
         13    1    4    4    0    0 -0.25132791581E+02 -0.20768910761E+02  0.87042329131E+02  0.92948221755E+02  0.00000000000E+00 0. -1.
        -14    1    4    4    0    0 -0.12245743749E+03 -0.41509505210E+02  0.11253209472E+03  0.17141276312E+03  0.00000000000E+00 0.  1.
</event>
<event>
12    1  0.8453150E-002  0.2143777E+03  0.7818608E-02  0.1139436E+00
         21   -1    0    0  503  502  0.00000000000E+00  0.00000000000E+00  0.15019791028E+03  0.15019791028E+03  0.00000000000E+00 0. -1.
         21   -1    0    0  501  503 -0.00000000000E+00 -0.00000000000E+00 -0.35684376547E+03  0.35684376547E+03  0.00000000000E+00 0. -1.
          6    2    1    2  501    0 -0.12396469466E+03  0.48471605087E+02 -0.20609401020E+03  0.29266329149E+03  0.15956290021E+03 0.  0.
         24    2    3    3    0    0 -0.64303683051E+02 -0.28344121753E+02 -0.13320555152E+03  0.17102896408E+03  0.81048347958E+02 0.  0.
         -6    2    1    2    0  502  0.12396469466E+03 -0.48471605087E+02 -0.55184499471E+00  0.21437838425E+03  0.16805072174E+03 0.  0.
        -24    2    5    5    0    0  0.77389046851E+02 -0.87352514688E+02  0.32075699265E+02  0.14533012037E+03  0.80451643913E+02 0.  0.
          5    1    3    3  501    0 -0.59661011613E+02  0.76815726840E+02 -0.72888458679E+02  0.12163432741E+03  0.47000000000E+01 0. -1.
        -13    1    4    4    0    0  0.17702933538E+02 -0.16403609020E+01 -0.41457343529E+02  0.45108712820E+02  0.00000000000E+00 0.  1.
         14    1    4    4    0    0 -0.82006616589E+02 -0.26703760851E+02 -0.91748207987E+02  0.12592025126E+03  0.00000000000E+00 0. -1.
         -5    1    5    5    0  502  0.46575647812E+02  0.38880909601E+02 -0.32627544260E+02  0.69048263881E+02  0.47000000000E+01 0.  1.
         11    1    6    6    0    0  0.46999151036E+02  0.23234007125E+01  0.10113872278E+02  0.48131162477E+02  0.00000000000E+00 0. -1.
        -12    1    6    6    0    0  0.30389895815E+02 -0.89675915401E+02  0.21961826987E+02  0.97198957892E+02  0.00000000000E+00 0.  1.
</event>
<event>
12    1  0.8453150E-002  0.2112530E+03  0.7818608E-02  0.1144940E+00
         21   -1    0    0  503  502  0.00000000000E+00  0.00000000000E+00  0.51731139450E+02  0.51731139450E+02  0.00000000000E+00 0.  1.
         21   -1    0    0  501  503 -0.00000000000E+00 -0.00000000000E+00 -0.78894769699E+03  0.78894769699E+03  0.00000000000E+00 0. -1.
          6    2    1    2  501    0 -0.64153838171E+02  0.52316835364E+02 -0.43464714142E+03  0.48326595058E+03  0.19435811079E+03 0.  0.
         24    2    3    3    0    0  0.27496079573E+02 -0.14592169389E+02 -0.10987331909E+03  0.13920687424E+03  0.79608051028E+02 0.  0.
         -6    2    1    2    0  502  0.64153838171E+02 -0.52316835364E+02 -0.30256941612E+03  0.35741288586E+03  0.17129784936E+03 0.  0.
        -24    2    5    5    0    0  0.91679744433E+02 -0.66224917246E+02 -0.29045512764E+03  0.32394713856E+03  0.88242009291E+02 0.  0.
          5    1    3    3  501    0 -0.91649917744E+02  0.66909004753E+02 -0.32477382233E+03  0.34405907633E+03  0.47000000000E+01 0. -1.
        -11    1    4    4    0    0  0.35204906060E+02  0.26126588759E+02 -0.61172064319E+02  0.75259587455E+02  0.00000000000E+00 0.  1.
         12    1    4    4    0    0 -0.77088264868E+01 -0.40718758148E+02 -0.48701254772E+02  0.63947286786E+02  0.00000000000E+00 0. -1.
         -5    1    5    5    0  502 -0.27525906262E+02  0.13908081882E+02 -0.12114288478E+02  0.33465747302E+02  0.47000000000E+01 0.  1.
         11    1    6    6    0    0 -0.11433400119E+02 -0.33964734351E+01 -0.83463710368E+02  0.84311622084E+02  0.00000000000E+00 0. -1.
        -12    1    6    6    0    0  0.10311314455E+03 -0.62828443811E+02 -0.20699141727E+03  0.23963551647E+03  0.00000000000E+00 0.  1.
</event>
<event>
12    1  0.8453150E-002  0.2235265E+03  0.7818608E-02  0.1131645E+00
         21   -1    0    0  503  502  0.00000000000E+00  0.00000000000E+00  0.23519345857E+03  0.23519345857E+03  0.00000000000E+00 0. -1.
         21   -1    0    0  501  503 -0.00000000000E+00 -0.00000000000E+00 -0.24616153752E+03  0.24616153752E+03  0.00000000000E+00 0. -1.
          6    2    1    2  501    0 -0.13105326913E+03 -0.48860097838E+02 -0.96998758292E+02  0.24184434558E+03  0.17180704255E+03 0.  0.
         24    2    3    3    0    0 -0.40633160379E+02 -0.66858025075E+02 -0.92929381601E+02  0.14944103786E+03  0.87038523618E+02 0.  0.
         -6    2    1    2    0  502  0.13105326913E+03  0.48860097838E+02  0.86030679344E+02  0.23951065051E+03  0.17436113503E+03 0.  0.
        -24    2    5    5    0    0  0.14362139329E+03  0.80178945316E+02  0.91868233760E+02  0.20494195088E+03  0.80657690102E+02 0.  0.
          5    1    3    3  501    0 -0.90420108749E+02  0.17997927237E+02 -0.40693766905E+01  0.92403307721E+02  0.47000000000E+01 0. -1.
        -13    1    4    4    0    0 -0.28961951846E+02 -0.18430840050E+02 -0.93522210073E+02  0.99623763714E+02  0.00000000000E+00 0.  1.
         14    1    4    4    0    0 -0.11671208533E+02 -0.48427185025E+02  0.59282847141E+00  0.49817274150E+02  0.00000000000E+00 0. -1.
         -5    1    5    5    0  502 -0.12568124167E+02 -0.31318847477E+02 -0.58375544165E+01  0.34568699628E+02  0.47000000000E+01 0.  1.
         11    1    6    6    0    0  0.98221725178E+01  0.42692431989E+02  0.28192071799E+02  0.52095217961E+02  0.00000000000E+00 0. -1.
        -12    1    6    6    0    0  0.13379922078E+03  0.37486513326E+02  0.63676161962E+02  0.15284673292E+03  0.00000000000E+00 0.  1.
</event>
<event>
12    1  0.8453150E-002  0.1798521E+03  0.7818608E-02  0.1168209E+00
         21   -1    0    0  501  502  0.00000000000E+00  0.00000000000E+00  0.26240221412E+03  0.26240221412E+03  0.00000000000E+00 0.  1.
         21   -1    0    0  502  503 -0.00000000000E+00 -0.00000000000E+00 -0.17131157284E+03  0.17131157284E+03  0.00000000000E+00 0.  1.
         -6    2    1    2    0  503 -0.48378684911E+02  0.43222222199E+01 -0.70073052407E+02  0.19302071814E+03  0.17316924149E+03 0.  0.
        -24    2    3    3    0    0  0.13582021794E+02  0.45146195712E+02 -0.73915855554E+02  0.11857219147E+03  0.79832077416E+02 0.  0.
          6    2    1    2  501    0  0.48378684911E+02 -0.43222222199E+01  0.16116369369E+03  0.24069306883E+03  0.17204719835E+03 0.  0.
         24    2    5    5    0    0  0.77171679078E+02  0.31926363042E+02  0.14971463443E+03  0.19277472783E+03  0.88163843027E+02 0.  0.
          5    1    5    5  501    0 -0.28792994168E+02 -0.36248585262E+02  0.11449059256E+02  0.47918341003E+02  0.47000000000E+01 0. -1.
        -11    1    6    6    0    0  0.43603596514E+02  0.44312388119E+01  0.79824312738E+01  0.44549171883E+02  0.00000000000E+00 0.  1.
         12    1    6    6    0    0  0.33568082564E+02  0.27495124230E+02  0.14173220316E+03  0.14822555594E+03  0.00000000000E+00 0. -1.
         -5    1    3    3    0  503 -0.61960706704E+02 -0.40823973493E+02  0.38428031469E+01  0.74448526668E+02  0.47000000000E+01 0.  1.
         13    1    4    4    0    0  0.26332397831E+02 -0.55399974741E+01 -0.57998543539E+02  0.63936826636E+02  0.00000000000E+00 0. -1.
        -14    1    4    4    0    0 -0.12750376038E+02  0.50686193187E+02 -0.15917312014E+02  0.54635364835E+02  0.00000000000E+00 0.  1.
</event>
<event>
12    1  0.8453150E-002  0.2086390E+03  0.7818608E-02  0.1143155E+00
         21   -1    0    0  503  502  0.00000000000E+00  0.00000000000E+00  0.15178863181E+03  0.15178863181E+03  0.00000000000E+00 0. -1.
         21   -1    0    0  501  503 -0.00000000000E+00 -0.00000000000E+00 -0.49237096105E+03  0.49237096105E+03  0.00000000000E+00 0. -1.
          6    2    1    2  501    0 -0.87277401849E+02 -0.70493388004E+02 -0.37955624174E+03  0.43191163229E+03  0.17291053997E+03 0.  0.
         24    2    3    3    0    0 -0.63185615204E+02 -0.11585967169E+03 -0.27431288935E+03  0.31470767714E+03  0.79859096487E+02 0.  0.
         -6    2    1    2    0  502  0.87277401849E+02  0.70493388004E+02  0.38973912501E+02  0.21224796057E+03  0.17590784031E+03 0.  0.
        -24    2    5    5    0    0  0.55073372771E+02  0.80676414341E+02 -0.39165873067E+02  0.12699123296E+03  0.71070721224E+02 0.  0.
          5    1    3    3  501    0 -0.24091786645E+02  0.45366283690E+02 -0.10524335239E+03  0.11720395515E+03  0.47000000000E+01 0. -1.
        -11    1    4    4    0    0  0.15868098204E+02 -0.37937614707E+02 -0.52662938134E+02  0.66816496490E+02  0.00000000000E+00 0.  1.
         12    1    4    4    0    0 -0.79053713408E+02 -0.77922056987E+02 -0.22164995121E+03  0.24789118065E+03  0.00000000000E+00 0. -1.
         -5    1    5    5    0  502  0.32204029077E+02 -0.10183026337E+02  0.78139785568E+02  0.85256727611E+02  0.47000000000E+01 0.  1.
         11    1    6    6    0    0 -0.17198777407E+02  0.19456211408E+02 -0.61584902682E+01  0.26688370296E+02  0.00000000000E+00 0. -1.
        -12    1    6    6    0    0  0.72272150179E+02  0.61220202933E+02 -0.33007382799E+02  0.10030286266E+03  0.00000000000E+00 0.  1.
</event>
<event>
12    1  0.8453150E-002  0.1917849E+03  0.7818608E-02  0.1157102E+00
         21   -1    0    0  501  502  0.00000000000E+00  0.00000000000E+00  0.54769742376E+03  0.54769742376E+03  0.00000000000E+00 0. -1.
         21   -1    0    0  502  503 -0.00000000000E+00 -0.00000000000E+00 -0.75756840771E+02  0.75756840771E+02  0.00000000000E+00 0. -1.
         -6    2    1    2    0  503  0.81604235720E+02  0.14052124433E+02  0.12808149927E+03  0.22972780886E+03  0.17179430206E+03 0.  0.
        -24    2    3    3    0    0  0.56665363162E+02 -0.36876384086E+02  0.31986674777E+02  0.11804985383E+03  0.91333397732E+02 0.  0.
          6    2    1    2  501    0 -0.81604235720E+02 -0.14052124433E+02  0.34385908372E+03  0.39372645567E+03  0.17298768439E+03 0.  0.
         24    2    5    5    0    0 -0.33485747634E+01  0.34467082129E+02  0.11504486496E+03  0.14703616688E+03  0.84765091364E+02 0.  0.
          5    1    5    5  501    0 -0.78255660956E+02 -0.48519206562E+02  0.22881421876E+03  0.24669028879E+03  0.47000000000E+01 0. -1.
        -11    1    6    6    0    0  0.22941104857E+02 -0.14824772207E+02  0.70435188078E+02  0.75545905797E+02  0.00000000000E+00 0.  1.
         12    1    6    6    0    0 -0.26289679621E+02  0.49291854336E+02  0.44609676883E+02  0.71490261085E+02  0.00000000000E+00 0. -1.
         -5    1    3    3    0  503  0.24938872558E+02  0.50928508519E+02  0.96094824495E+02  0.11167795503E+03  0.47000000000E+01 0.  1.
         13    1    4    4    0    0  0.29771089375E+02 -0.53845680014E+02  0.51929929227E+02  0.80513306777E+02  0.00000000000E+00 0. -1.
        -14    1    4    4    0    0  0.26894273787E+02  0.16969295927E+02 -0.19943254451E+02  0.37536547056E+02  0.00000000000E+00 0.  1.
</event>
<event>
12    1  0.8453150E-002  0.2657341E+03  0.7818608E-02  0.1103747E+00
         21   -1    0    0  501  502  0.00000000000E+00  0.00000000000E+00  0.95204499445E+02  0.95204499445E+02  0.00000000000E+00 0. -1.
         21   -1    0    0  502  503 -0.00000000000E+00 -0.00000000000E+00 -0.12665935329E+04  0.12665935329E+04  0.00000000000E+00 0. -1.
         -6    2    1    2    0  503 -0.20268144758E+03  0.72238065019E+00 -0.10240203639E+04  0.10579359675E+04  0.17184444939E+03 0.  0.
        -24    2    3    3    0    0 -0.18268383339E+03  0.51297435085E+02 -0.71723046503E+03  0.74632744274E+03  0.81119060575E+02 0.  0.
          6    2    1    2  501    0  0.20268144758E+03 -0.72238065019E+00 -0.14736866955E+03  0.30386206476E+03  0.17185557486E+03 0.  0.
         24    2    5    5    0    0  0.14959014103E+03  0.64893352081E+02 -0.99451275140E+02  0.20669068060E+03  0.79007112854E+02 0.  0.
          5    1    5    5  501    0  0.53091306553E+02 -0.65615732732E+02 -0.47917394408E+02  0.97171384163E+02  0.47000000000E+01 0. -1.
        -11    1    6    6    0    0  0.10486937752E+02 -0.22691227095E+01 -0.39607485897E+02  0.41035079144E+02  0.00000000000E+00 0.  1.
         12    1    6    6    0    0  0.13910320327E+03  0.67162474791E+02 -0.59843789243E+02  0.16565560145E+03  0.00000000000E+00 0. -1.
         -5    1    3    3    0  503 -0.19997614188E+02 -0.50575054435E+02 -0.30678989883E+03  0.31160852481E+03  0.47000000000E+01 0.  1.
         11    1    4    4    0    0 -0.18256368899E+02  0.23911281911E+02 -0.47992131463E+02  0.56641761011E+02  0.00000000000E+00 0. -1.
        -12    1    4    4    0    0 -0.16442746449E+03  0.27386153174E+02 -0.66923833357E+03  0.68968568173E+03  0.00000000000E+00 0.  1.
</event>
<event>
12    1  0.8453150E-002  0.2260787E+03  0.7818608E-02  0.1129472E+00
         21   -1    0    0  501  502  0.00000000000E+00  0.00000000000E+00  0.43338313841E+03  0.43338313841E+03  0.00000000000E+00 0.  1.
         21   -1    0    0  502  503 -0.00000000000E+00 -0.00000000000E+00 -0.11815058050E+03  0.11815058050E+03  0.00000000000E+00 0. -1.
         -6    2    1    2    0  503  0.45950082265E+02 -0.13941820894E+03  0.17236823538E+03  0.28429274807E+03  0.17193810222E+03 0.  0.
        -24    2    3    3    0    0  0.75200638695E+02 -0.71150254214E+02  0.50674454538E+02  0.14164782181E+03  0.82332923820E+02 0.  0.
          6    2    1    2  501    0 -0.45950082265E+02  0.13941820894E+03  0.14286432253E+03  0.26724097084E+03  0.17163529591E+03 0.  0.
         24    2    5    5    0    0  0.92184772156E+01  0.14231011043E+02  0.50264137169E+02  0.10197667100E+03  0.87093374871E+02 0.  0.
          5    1    5    5  501    0 -0.55168559480E+02  0.12518719789E+03  0.92600185359E+02  0.16526429984E+03  0.47000000000E+01 0. -1.
        -13    1    6    6    0    0  0.15128947997E+02 -0.31035554328E+02  0.43951944761E+02  0.55891539147E+02  0.00000000000E+00 0.  1.
         14    1    6    6    0    0 -0.59104707814E+01  0.45266565371E+02  0.63121924076E+01  0.46085131858E+02  0.00000000000E+00 0. -1.
         -5    1    3    3    0  503 -0.29250556430E+02 -0.68267954723E+02  0.12169378085E+03  0.14264492627E+03  0.47000000000E+01 0.  1.
         13    1    4    4    0    0 -0.89386125906E+00 -0.49369460517E+02  0.36100560099E+02  0.61166927822E+02  0.00000000000E+00 0. -1.
        -14    1    4    4    0    0  0.76094499954E+02 -0.21780793697E+02  0.14573894439E+02  0.80480893984E+02  0.00000000000E+00 0.  1.
</event>
<event>
12    1  0.8453150E-002  0.1766365E+03  0.7818608E-02  0.1171402E+00
         21   -1    0    0  503  502  0.00000000000E+00  0.00000000000E+00  0.11800807876E+04  0.11800807876E+04  0.00000000000E+00 0.  1.
         21   -1    0    0  501  503 -0.00000000000E+00 -0.00000000000E+00 -0.48461412376E+02  0.48461412376E+02  0.00000000000E+00 0.  1.
          6    2    1    2  501    0  0.66086256736E+01  0.34281767532E+02  0.14894938456E+03  0.23012307213E+03  0.17190635721E+03 0.  0.
         24    2    3    3    0    0  0.42762867815E+02  0.56819394618E+02  0.44121886787E+02  0.11687128120E+03  0.81578483727E+02 0.  0.
         -6    2    1    2    0  502 -0.66086256736E+01 -0.34281767532E+02  0.98266999065E+03  0.99841912783E+03  0.17315175650E+03 0.  0.
        -24    2    5    5    0    0 -0.39321356898E+02 -0.37585390813E+02  0.30774762050E+03  0.32268002697E+03  0.80342835207E+02 0.  0.
          5    1    3    3  501    0 -0.36154242142E+02 -0.22537627086E+02  0.10482749778E+03  0.11325179093E+03  0.47000000000E+01 0. -1.
        -13    1    4    4    0    0 -0.89257776225E+01  0.11505646502E+02 -0.18733191105E+02  0.23727238705E+02  0.00000000000E+00 0.  1.
         14    1    4    4    0    0  0.51688645438E+02  0.45313748116E+02  0.62855077892E+02  0.93144042495E+02  0.00000000000E+00 0. -1.
         -5    1    5    5    0  502  0.32712731224E+02  0.33036232814E+01  0.67492237014E+03  0.67573910086E+03  0.47000000000E+01 0.  1.
         11    1    6    6    0    0 -0.24788983151E+02  0.21541030001E+02  0.15083476272E+03  0.15436850490E+03  0.00000000000E+00 0. -1.
        -12    1    6    6    0    0 -0.14532373747E+02 -0.59126420814E+02  0.15691285778E+03  0.16831152207E+03  0.00000000000E+00 0.  1.
</event>
<event>
12    1  0.8453150E-002  0.1894876E+03  0.7818608E-02  0.1159059E+00
         21   -1    0    0  501  502  0.00000000000E+00  0.00000000000E+00  0.54193131109E+02  0.54193131109E+02  0.00000000000E+00 0. -1.
         21   -1    0    0  502  503 -0.00000000000E+00 -0.00000000000E+00 -0.12055506613E+04  0.12055506613E+04  0.00000000000E+00 0. -1.
         -6    2    1    2    0  503  0.62409289781E+02 -0.55478566394E+02 -0.99970403701E+03  0.10175036645E+04  0.17009631075E+03 0.  0.
        -24    2    3    3    0    0  0.10540687035E+03 -0.57012168574E+02 -0.82650492186E+03  0.83897868767E+03  0.80086558411E+02 0.  0.
          6    2    1    2  501    0 -0.62409289781E+02  0.55478566394E+02 -0.15165349316E+03  0.24224012786E+03  0.16943643875E+03 0.  0.
         24    2    5    5    0    0  0.23513147293E+02  0.34628143474E+02 -0.47967485058E+02  0.10589393758E+03  0.84620742000E+02 0.  0.
          5    1    5    5  501    0 -0.85922437074E+02  0.20850422921E+02 -0.10368600810E+03  0.13634619028E+03  0.47000000000E+01 0. -1.
        -13    1    6    6    0    0  0.28356082914E+02 -0.15153497916E+02 -0.45634416260E+02  0.55822897495E+02  0.00000000000E+00 0.  1.
         14    1    6    6    0    0 -0.48429356209E+01  0.49781641389E+02 -0.23330687974E+01  0.50071040081E+02  0.00000000000E+00 0. -1.
         -5    1    3    3    0  503 -0.42997580566E+02  0.15336021793E+01 -0.17319911516E+03  0.17852497686E+03  0.47000000000E+01 0.  1.
         13    1    4    4    0    0  0.69378728797E+02 -0.47586098307E+02 -0.31250102247E+03  0.32362746145E+03  0.00000000000E+00 0. -1.
        -14    1    4    4    0    0  0.36028141549E+02 -0.94260702666E+01 -0.51400389939E+03  0.51535122622E+03  0.00000000000E+00 0.  1.
</event>
<event>
12    1  0.8453150E-002  0.1783152E+03  0.7818608E-02  0.1169455E+00
         21   -1    0    0  501  502  0.00000000000E+00  0.00000000000E+00  0.11691086139E+03  0.11691086139E+03  0.00000000000E+00 0. -1.
         21   -1    0    0  502  503 -0.00000000000E+00 -0.00000000000E+00 -0.34743982835E+03  0.34743982835E+03  0.00000000000E+00 0. -1.
         -6    2    1    2    0  503  0.45010372893E+02 -0.17868284520E+02 -0.22351275178E+03  0.28589752215E+03  0.17156408045E+03 0.  0.
        -24    2    3    3    0    0  0.23171070474E+02  0.23800424146E+02 -0.22192524236E+03  0.23859163881E+03  0.81066628250E+02 0.  0.
          6    2    1    2  501    0 -0.45010372893E+02  0.17868284520E+02 -0.70162151742E+01  0.17845316760E+03  0.17161321770E+03 0.  0.
         24    2    5    5    0    0  0.37352499050E+02 -0.46673821304E+01  0.19398401949E+02  0.88947184869E+02  0.78219627055E+02 0.  0.
          5    1    5    5  501    0 -0.82362871943E+02  0.22535666651E+02 -0.26414617123E+02  0.89505982727E+02  0.47000000000E+01 0. -1.
        -13    1    6    6    0    0 -0.22506521980E+02  0.10171164285E+02  0.15553060725E+01  0.24747021872E+02  0.00000000000E+00 0.  1.
         14    1    6    6    0    0  0.59859021030E+02 -0.14838546415E+02  0.17843095877E+02  0.64200162997E+02  0.00000000000E+00 0. -1.
         -5    1    3    3    0  503  0.21839302418E+02 -0.41668708667E+02 -0.15875094170E+01  0.47305883336E+02  0.47000000000E+01 0.  1.
         11    1    4    4    0    0 -0.22009464091E+02  0.79593755635E+01 -0.19148876914E+02  0.30239835582E+02  0.00000000000E+00 0. -1.
        -12    1    4    4    0    0  0.45180534566E+02  0.15841048583E+02 -0.20277636545E+03  0.20835180323E+03  0.00000000000E+00 0.  1.
</event>
<event>
12    1  0.8453150E-002  0.2296496E+03  0.7818608E-02  0.1128538E+00
         21   -1    0    0  503  502  0.00000000000E+00  0.00000000000E+00  0.22054116604E+03  0.22054116604E+03  0.00000000000E+00 0. -1.
         21   -1    0    0  501  503 -0.00000000000E+00 -0.00000000000E+00 -0.29934912816E+03  0.29934912816E+03  0.00000000000E+00 0.  1.
          6    2    1    2  501    0  0.99568687715E+02  0.95275747770E+02 -0.16540078668E+03  0.28301303714E+03  0.18370510954E+03 0.  0.
         24    2    3    3    0    0 -0.20155503600E+01 -0.14395327321E+02 -0.55088915131E+02  0.97169282492E+02  0.78713359717E+02 0.  0.
         -6    2    1    2    0  502 -0.99568687715E+02 -0.95275747770E+02  0.86592824556E+02  0.23687725706E+03  0.17210789047E+03 0.  0.
        -24    2    5    5    0    0  0.20095395102E+01 -0.46071326689E+02  0.49348626956E+02  0.11793007738E+03  0.96672699225E+02 0.  0.
          5    1    3    3  501    0  0.10158423807E+03  0.10967107509E+03 -0.11031187154E+03  0.18584375464E+03  0.47000000000E+01 0. -1.
        -11    1    4    4    0    0  0.20865167724E+02  0.25522594453E+02 -0.30918812667E+02  0.45196582044E+02  0.00000000000E+00 0.  1.
         12    1    4    4    0    0 -0.22880718084E+02 -0.39917921773E+02 -0.24170102464E+02  0.51972700448E+02  0.00000000000E+00 0. -1.
         -5    1    5    5    0  502 -0.10157822722E+03 -0.49204421081E+02  0.37244197599E+02  0.11894717968E+03  0.47000000000E+01 0.  1.
         13    1    6    6    0    0 -0.15841239654E+02 -0.71641482645E+02  0.45921471631E+02  0.86557659777E+02  0.00000000000E+00 0. -1.
        -14    1    6    6    0    0  0.17850779164E+02  0.25570155956E+02  0.34271553258E+01  0.31372417599E+02  0.00000000000E+00 0.  1.
</event>
<event>
12    1  0.8453150E-002  0.1981019E+03  0.7818608E-02  0.1151418E+00
         21   -1    0    0  501  502  0.00000000000E+00  0.00000000000E+00  0.38514829901E+02  0.38514829901E+02  0.00000000000E+00 0. -1.
         21   -1    0    0  502  503 -0.00000000000E+00 -0.00000000000E+00 -0.10563853709E+04  0.10563853709E+04  0.00000000000E+00 0. -1.
         -6    2    1    2    0  503  0.79342959272E+02 -0.59121059823E+02 -0.61462409889E+03  0.64576090103E+03  0.17162095868E+03 0.  0.
        -24    2    3    3    0    0  0.30543236069E+02  0.29866646086E+02 -0.36140156104E+03  0.37291668089E+03  0.81430072726E+02 0.  0.
          6    2    1    2  501    0 -0.79342959272E+02  0.59121059823E+02 -0.40324644214E+03  0.44913929981E+03  0.17125364998E+03 0.  0.
         24    2    5    5    0    0 -0.57664070455E+02 -0.31106954911E+02 -0.19015535227E+03  0.21667215924E+03  0.80591432088E+02 0.  0.
          5    1    5    5  501    0 -0.21678888817E+02  0.90228014734E+02 -0.21309108987E+03  0.23246714057E+03  0.47000000000E+01 0. -1.
        -11    1    6    6    0    0 -0.31061600085E+02 -0.56126915647E+02 -0.93884823146E+02  0.11370757968E+03  0.00000000000E+00 0.  1.
         12    1    6    6    0    0 -0.26602470370E+02  0.25019960736E+02 -0.96270529128E+02  0.10296457956E+03  0.00000000000E+00 0. -1.
         -5    1    3    3    0  503  0.48799723203E+02 -0.88987705909E+02 -0.25322253785E+03  0.27284422014E+03  0.47000000000E+01 0.  1.
         11    1    4    4    0    0  0.43148231436E+02 -0.11049913702E+02 -0.24215153457E+03  0.24621380173E+03  0.00000000000E+00 0. -1.
        -12    1    4    4    0    0 -0.12604995367E+02  0.40916559788E+02 -0.11925002647E+03  0.12670287915E+03  0.00000000000E+00 0.  1.
</event>
<event>
12    1  0.8453150E-002  0.1994842E+03  0.7818608E-02  0.1151255E+00
         21   -1    0    0  503  502  0.00000000000E+00  0.00000000000E+00  0.66282444205E+02  0.66282444205E+02  0.00000000000E+00 0.  1.
         21   -1    0    0  501  503 -0.00000000000E+00 -0.00000000000E+00 -0.58801389895E+03  0.58801389895E+03  0.00000000000E+00 0.  1.
          6    2    1    2  501    0 -0.81267945005E+02 -0.61623406259E+02 -0.27968881765E+03  0.34064271429E+03  0.16555875392E+03 0.  0.
         24    2    3    3    0    0 -0.43821473028E+02 -0.72701622996E+02 -0.91785968951E+02  0.14866736249E+03  0.80445466561E+02 0.  0.
         -6    2    1    2    0  502  0.81267945005E+02  0.61623406259E+02 -0.24204263710E+03  0.31365362887E+03  0.17144106172E+03 0.  0.
        -24    2    5    5    0    0  0.83214301406E+02  0.55271673515E+02 -0.26244729025E+03  0.29168609186E+03  0.78883573550E+02 0.  0.
          5    1    3    3  501    0 -0.37446471977E+02  0.11078216737E+02 -0.18790284869E+03  0.19197535180E+03  0.47000000000E+01 0. -1.
        -11    1    4    4    0    0  0.67934571709E+01 -0.83334790884E+01 -0.59797021491E+02  0.60755919163E+02  0.00000000000E+00 0.  1.
         12    1    4    4    0    0 -0.50614930199E+02 -0.64368143908E+02 -0.31988947460E+02  0.87911443332E+02  0.00000000000E+00 0. -1.
         -5    1    5    5    0  502 -0.19463564009E+01  0.63517327441E+01  0.20404653146E+02  0.21967537005E+02  0.47000000000E+01 0.  1.
         13    1    6    6    0    0 -0.12682924753E+02  0.22676451076E+02 -0.55699805247E+02  0.61461746788E+02  0.00000000000E+00 0. -1.
        -14    1    6    6    0    0  0.95897226159E+02  0.32595222440E+02 -0.20674748500E+03  0.23022434508E+03  0.00000000000E+00 0.  1.
</event>
<event>
12    1  0.8453150E-002  0.2062335E+03  0.7818608E-02  0.1146300E+00
         21   -1    0    0  501  502  0.00000000000E+00  0.00000000000E+00  0.23852487520E+03  0.23852487520E+03  0.00000000000E+00 0.  1.
         21   -1    0    0  502  503 -0.00000000000E+00 -0.00000000000E+00 -0.17335924421E+03  0.17335924421E+03  0.00000000000E+00 0.  1.
         -6    2    1    2    0  503 -0.95603217609E+02 -0.26506587344E+02  0.90753506679E+01  0.19815911050E+03  0.17129534931E+03 0.  0.
        -24    2    3    3    0    0 -0.69062076471E+02  0.36729649738E+02  0.12355494643E+02  0.12933975859E+03  0.10226180776E+03 0.  0.
          6    2    1    2  501    0  0.95603217609E+02  0.26506587344E+02  0.56090280321E+02  0.21372500890E+03  0.18080289128E+03 0.  0.
         24    2    5    5    0    0  0.40533017803E+02 -0.21468208909E+01  0.10239930867E+03  0.13613402478E+03  0.79995749362E+02 0.  0.
          5    1    5    5  501    0  0.55070199806E+02  0.28653408235E+02 -0.46309028347E+02  0.77590984120E+02  0.47000000000E+01 0. -1.
        -11    1    6    6    0    0 -0.44035369955E+01  0.27222940789E+02  0.10118835333E+02  0.29374656964E+02  0.00000000000E+00 0.  1.
         12    1    6    6    0    0  0.44936554798E+02 -0.29369761680E+02  0.92280473335E+02  0.10675936782E+03  0.00000000000E+00 0. -1.
         -5    1    3    3    0  503 -0.26541141138E+02 -0.63236237082E+02 -0.32801439750E+01  0.68819351913E+02  0.47000000000E+01 0.  1.
         13    1    4    4    0    0  0.74377182006E+01 -0.27726628120E+02  0.33258115957E+01  0.28898902777E+02  0.00000000000E+00 0. -1.
        -14    1    4    4    0    0 -0.76499794672E+02  0.64456277858E+02  0.90296830473E+01  0.10044085581E+03  0.00000000000E+00 0.  1.
</event>
<event>
12    1  0.8453150E-002  0.1767612E+03  0.7818608E-02  0.1171048E+00
         21   -1    0    0  503  502  0.00000000000E+00  0.00000000000E+00  0.12582514572E+03  0.12582514572E+03  0.00000000000E+00 0.  1.
         21   -1    0    0  501  503 -0.00000000000E+00 -0.00000000000E+00 -0.25034121214E+03  0.25034121214E+03  0.00000000000E+00 0.  1.
          6    2    1    2  501    0  0.35597237645E+02  0.25569526173E+02 -0.80758811972E+02  0.19406960586E+03  0.17093876743E+03 0.  0.
         24    2    3    3    0    0  0.78968415546E+01  0.63041912520E+02 -0.10033447584E+03  0.14330753047E+03  0.80208468416E+02 0.  0.
         -6    2    1    2    0  502 -0.35597237645E+02 -0.25569526173E+02 -0.43757254452E+02  0.18209675201E+03  0.17124125022E+03 0.  0.
        -24    2    5    5    0    0 -0.47862240436E+01 -0.20846214742E+02  0.42595459474E+02  0.90170099549E+02  0.76542805509E+02 0.  0.
          5    1    3    3  501    0  0.27700396091E+02 -0.37472386347E+02  0.19575663866E+02  0.50762075390E+02  0.47000000000E+01 0. -1.
        -13    1    4    4    0    0  0.42535543460E+02  0.34418259856E+02 -0.71030448251E+02  0.89661662084E+02  0.00000000000E+00 0.  1.
         14    1    4    4    0    0 -0.34638701906E+02  0.28623652664E+02 -0.29304027587E+02  0.53645868381E+02  0.00000000000E+00 0. -1.
         -5    1    5    5    0  502 -0.30811013602E+02 -0.47233114315E+01 -0.86352713926E+02  0.91926652460E+02  0.47000000000E+01 0.  1.
         13    1    6    6    0    0  0.30304100947E+02 -0.60601044086E+01 -0.26690488610E+01  0.31019142823E+02  0.00000000000E+00 0. -1.
        -14    1    6    6    0    0 -0.35090324991E+02 -0.14786110333E+02  0.45264508335E+02  0.59150956726E+02  0.00000000000E+00 0.  1.
</event>
<event>
12    1  0.8453150E-002  0.1948678E+03  0.7818608E-02  0.1155389E+00
         21   -1    0    0  503  502  0.00000000000E+00  0.00000000000E+00  0.11832074216E+04  0.11832074216E+04  0.00000000000E+00 0. -1.
         21   -1    0    0  501  503 -0.00000000000E+00 -0.00000000000E+00 -0.51041172634E+02  0.51041172634E+02  0.00000000000E+00 0. -1.
          6    2    1    2  501    0  0.62279017008E+02 -0.49972472483E+02  0.18615476820E+03  0.26949406023E+03  0.17775693182E+03 0.  0.
         24    2    3    3    0    0  0.78633807566E+02  0.27185510347E+02  0.11278513423E+03  0.16167000597E+03  0.80587695477E+02 0.  0.
         -6    2    1    2    0  502 -0.62279017008E+02  0.49972472483E+02  0.94601148078E+03  0.96475453401E+03  0.17157408069E+03 0.  0.
        -24    2    5    5    0    0 -0.70412214630E+02  0.93249518486E+02  0.77156274819E+03  0.78477258515E+03  0.83099839600E+02 0.  0.
          5    1    3    3  501    0 -0.16354790558E+02 -0.77157982830E+02  0.73369633972E+02  0.10782405426E+03  0.47000000000E+01 0. -1.
        -13    1    4    4    0    0  0.80403380544E+01  0.13097928051E+02  0.81915600009E+02  0.83344875547E+02  0.00000000000E+00 0.  1.
         14    1    4    4    0    0  0.70593469512E+02  0.14087582297E+02  0.30869534218E+02  0.78325130421E+02  0.00000000000E+00 0. -1.
         -5    1    5    5    0  502  0.81331976225E+01 -0.43277046004E+02  0.17444873259E+03  0.17998194886E+03  0.47000000000E+01 0.  1.
         13    1    6    6    0    0 -0.42496686775E+02  0.23643580085E+02  0.12924369567E+03  0.13809026083E+03  0.00000000000E+00 0. -1.
        -14    1    6    6    0    0 -0.27915527855E+02  0.69605938402E+02  0.64231905251E+03  0.64668232431E+03  0.00000000000E+00 0.  1.
</event>
<event>
12    1  0.8453150E-002  0.1738309E+03  0.7818608E-02  0.1173987E+00
         21   -1    0    0  501  502  0.00000000000E+00  0.00000000000E+00  0.88791635889E+02  0.88791635889E+02  0.00000000000E+00 0.  1.
         21   -1    0    0  502  503 -0.00000000000E+00 -0.00000000000E+00 -0.34780300920E+03  0.34780300920E+03  0.00000000000E+00 0.  1.
         -6    2    1    2    0  503  0.95228690658E+01  0.14111698250E+02 -0.16288081704E+03  0.23821700684E+03  0.17299525058E+03 0.  0.
        -24    2    3    3    0    0  0.40049260801E+02 -0.70425964244E+01 -0.20978254274E+02  0.91459410458E+02  0.79190877972E+02 0.  0.
          6    2    1    2  501    0 -0.95228690658E+01 -0.14111698250E+02 -0.96130556268E+02  0.19837763825E+03  0.17269272841E+03 0.  0.
         24    2    5    5    0    0 -0.38436544678E+02  0.73403557607E+01  0.50361766654E+01  0.90892806244E+02  0.81883394910E+02 0.  0.
          5    1    5    5  501    0  0.28913675612E+02 -0.21452054010E+02 -0.10116673293E+03  0.10748483200E+03  0.47000000000E+01 0. -1.
        -11    1    6    6    0    0 -0.39917919571E+01  0.24108006447E+02  0.34700437948E+02  0.42441144797E+02  0.00000000000E+00 0.  1.
         12    1    6    6    0    0 -0.34444752721E+02 -0.16767650686E+02 -0.29664261283E+02  0.48451661447E+02  0.00000000000E+00 0. -1.
         -5    1    3    3    0  503 -0.30526391735E+02  0.21154294674E+02 -0.14190256277E+03  0.14675759638E+03  0.47000000000E+01 0.  1.
         11    1    4    4    0    0  0.27510510290E+02 -0.38381565490E+02 -0.30710214698E+02  0.56330187578E+02  0.00000000000E+00 0. -1.
        -12    1    4    4    0    0  0.12538750511E+02  0.31338969065E+02  0.97319604240E+01  0.35129222880E+02  0.00000000000E+00 0.  1.
</event>
<event>
12    1  0.8453150E-002  0.1744556E+03  0.7818608E-02  0.1174119E+00
         21   -1    0    0  503  502  0.00000000000E+00  0.00000000000E+00  0.63357779081E+02  0.63357779081E+02  0.00000000000E+00 0. -1.
         21   -1    0    0  501  503 -0.00000000000E+00 -0.00000000000E+00 -0.47171621146E+03  0.47171621146E+03  0.00000000000E+00 0. -1.
          6    2    1    2  501    0 -0.19292570829E+01 -0.17748438631E+02 -0.21376233698E+03  0.27591502055E+03  0.17353971518E+03 0.  0.
         24    2    3    3    0    0 -0.19820231711E+02 -0.45688432767E+02 -0.22189735343E+03  0.24143315955E+03  0.81063312281E+02 0.  0.
         -6    2    1    2    0  502  0.19292570829E+01  0.17748438631E+02 -0.19459609540E+03  0.25915896999E+03  0.17022632663E+03 0.  0.
        -24    2    5    5    0    0  0.63919968613E+02  0.61685050195E+01 -0.15034963096E+03  0.18197877309E+03  0.79921520787E+02 0.  0.
          5    1    3    3  501    0  0.17890974628E+02  0.27939994136E+02  0.81350164460E+01  0.34481861000E+02  0.47000000000E+01 0. -1.
        -13    1    4    4    0    0  0.15041993693E+02 -0.25931964411E+02 -0.18350759127E+03  0.18594021729E+03  0.00000000000E+00 0.  1.
         14    1    4    4    0    0 -0.34862225404E+02 -0.19756468356E+02 -0.38389762159E+02  0.55492942260E+02  0.00000000000E+00 0. -1.
         -5    1    5    5    0  502 -0.61990711530E+02  0.11579933612E+02 -0.44246464442E+02  0.77180196903E+02  0.47000000000E+01 0.  1.
         11    1    6    6    0    0  0.59550046660E+02 -0.25938067390E+02 -0.70791071668E+02  0.96074800156E+02  0.00000000000E+00 0. -1.
        -12    1    6    6    0    0  0.43699219523E+01  0.32106572409E+02 -0.79558559288E+02  0.85903972933E+02  0.00000000000E+00 0.  1.
</event>
<event>
12    1  0.8453150E-002  0.2029526E+03  0.7818608E-02  0.1147548E+00
         21   -1    0    0  503  502  0.00000000000E+00  0.00000000000E+00  0.13409619322E+03  0.13409619322E+03  0.00000000000E+00 0. -1.
         21   -1    0    0  501  503 -0.00000000000E+00 -0.00000000000E+00 -0.36667714682E+03  0.36667714682E+03  0.00000000000E+00 0. -1.
          6    2    1    2  501    0 -0.69157517949E+02 -0.82092750196E+02 -0.21853156938E+03  0.29733502994E+03  0.17067539744E+03 0.  0.
         24    2    3    3    0    0 -0.78052748957E+02 -0.66542468896E+02 -0.23738280220E+03  0.27090785904E+03  0.80748631684E+02 0.  0.
         -6    2    1    2    0  502  0.69157517949E+02  0.82092750196E+02 -0.14049384219E+02  0.20343831010E+03  0.17224337113E+03 0.  0.
        -24    2    5    5    0    0  0.10379044701E+03  0.75004342815E+02 -0.43064473171E+02  0.15746385326E+03  0.80883916220E+02 0.  0.
          5    1    3    3  501    0  0.88952310076E+01 -0.15550281301E+02  0.18851232824E+02  0.26427170908E+02  0.47000000000E+01 0. -1.
        -13    1    4    4    0    0  0.83279631697E+01  0.87267527999E+01 -0.48624929442E+02  0.50098851766E+02  0.00000000000E+00 0.  1.
         14    1    4    4    0    0 -0.86380712127E+02 -0.75269221696E+02 -0.18875787276E+03  0.22080900727E+03  0.00000000000E+00 0. -1.
         -5    1    5    5    0  502 -0.34632929063E+02  0.70884073818E+01  0.29015088951E+02  0.45974456838E+02  0.47000000000E+01 0.  1.
         13    1    6    6    0    0  0.41762480515E+00  0.35502786377E+02 -0.29132238341E+02  0.45927220271E+02  0.00000000000E+00 0. -1.
        -14    1    6    6    0    0  0.10337282221E+03  0.39501556437E+02 -0.13932234830E+02  0.11153663299E+03  0.00000000000E+00 0.  1.
</event>
<event>
12    1  0.8453150E-002  0.1728460E+03  0.7818608E-02  0.1175244E+00
         21   -1    0    0  503  502  0.00000000000E+00  0.00000000000E+00  0.29060019213E+03  0.29060019213E+03  0.00000000000E+00 0.  1.
         21   -1    0    0  501  503 -0.00000000000E+00 -0.00000000000E+00 -0.10321499278E+03  0.10321499278E+03  0.00000000000E+00 0.  1.
          6    2    1    2  501    0 -0.14850598680E+02 -0.86522493284E+01  0.72308557626E+02  0.18616556183E+03  0.17068593148E+03 0.  0.
         24    2    3    3    0    0 -0.24055112806E+02  0.50814571447E+02  0.95763640483E+01  0.99111303090E+02  0.81059080480E+02 0.  0.
         -6    2    1    2    0  502  0.14850598680E+02  0.86522493284E+01  0.11507664172E+03  0.20764962307E+03  0.17198933337E+03 0.  0.
        -24    2    5    5    0    0  0.15520134311E+02  0.63617185649E+02  0.26848561933E+02  0.10359253986E+03  0.75647525792E+02 0.  0.
          5    1    3    3  501    0  0.92045141263E+01 -0.59466820776E+02  0.62732193578E+02  0.87054258739E+02  0.47000000000E+01 0. -1.
        -13    1    4    4    0    0  0.77430614007E+01  0.16625257821E+02 -0.31810147693E+02  0.36718383594E+02  0.00000000000E+00 0.  1.
         14    1    4    4    0    0 -0.31798174207E+02  0.34189313627E+02  0.41386511741E+02  0.62392919496E+02  0.00000000000E+00 0. -1.
         -5    1    5    5    0  502 -0.66953563145E+00 -0.54964936321E+02  0.88228079792E+02  0.10405708321E+03  0.47000000000E+01 0.  1.
         11    1    6    6    0    0 -0.24443024334E+02  0.53457956040E+02  0.17173722964E+02  0.61238478615E+02  0.00000000000E+00 0. -1.
        -12    1    6    6    0    0  0.39963158645E+02  0.10159229609E+02  0.96748389694E+01  0.42354061249E+02  0.00000000000E+00 0.  1.
</event>
<event>
12    1  0.8453150E-002  0.1957207E+03  0.7818608E-02  0.1155698E+00
         21   -1    0    0  501  502  0.00000000000E+00  0.00000000000E+00  0.71697119238E+02  0.71697119238E+02  0.00000000000E+00 0.  1.
         21   -1    0    0  502  503 -0.00000000000E+00 -0.00000000000E+00 -0.11870008296E+04  0.11870008296E+04  0.00000000000E+00 0.  1.
         -6    2    1    2    0  503  0.36421524261E+02 -0.59293525404E+02 -0.10404995079E+04  0.10587472856E+04  0.18293260877E+03 0.  0.
        -24    2    3    3    0    0  0.59691468236E+02  0.30344013463E+02 -0.51874630353E+03  0.52881816309E+03  0.77891537772E+02 0.  0.
          6    2    1    2  501    0 -0.36421524261E+02  0.59293525404E+02 -0.74804202494E+02  0.19995066322E+03  0.17187888010E+03 0.  0.
         24    2    5    5    0    0  0.31681178995E+02  0.73138317550E+02 -0.31689373321E+02  0.11803219793E+03  0.81083122598E+02 0.  0.
          5    1    5    5  501    0 -0.68102703256E+02 -0.13844792146E+02 -0.43114829174E+02  0.81918465287E+02  0.47000000000E+01 0. -1.
        -13    1    6    6    0    0 -0.99216152435E+01  0.11719009086E+02  0.21736621753E+02  0.26613048458E+02  0.00000000000E+00 0.  1.
         14    1    6    6    0    0  0.41602794239E+02  0.61419308464E+02 -0.53425995074E+02  0.91419149472E+02  0.00000000000E+00 0. -1.
         -5    1    3    3    0  503 -0.23269943975E+02 -0.89637538867E+02 -0.52175320434E+03  0.52992912253E+03  0.47000000000E+01 0.  1.
         13    1    4    4    0    0  0.17963254534E+02 -0.24570973031E+02 -0.10348539878E+03  0.10786861912E+03  0.00000000000E+00 0. -1.
        -14    1    4    4    0    0  0.41728213702E+02  0.54914986494E+02 -0.41526090475E+03  0.42094954398E+03  0.00000000000E+00 0.  1.
</event>
<event>
12    1  0.8453150E-002  0.3419180E+03  0.7818608E-02  0.1066085E+00
         21   -1    0    0  501  502  0.00000000000E+00  0.00000000000E+00  0.39616901038E+03  0.39616901038E+03  0.00000000000E+00 0. -1.
         21   -1    0    0  502  503 -0.00000000000E+00 -0.00000000000E+00 -0.14058423328E+04  0.14058423328E+04  0.00000000000E+00 0.  1.
         -6    2    1    2    0  503  0.29209315482E+02  0.29338494029E+03 -0.13058672674E+04  0.13496411769E+04  0.17121354818E+03 0.  0.
        -24    2    3    3    0    0  0.10128122072E+02  0.11721666903E+03 -0.35181697207E+03  0.37926320533E+03  0.78886441948E+02 0.  0.
          6    2    1    2  501    0 -0.29209315482E+02 -0.29338494029E+03  0.29619394500E+03  0.45237016625E+03  0.17314735620E+03 0.  0.
         24    2    5    5    0    0  0.70394602116E+01 -0.20949416934E+03  0.11935937353E+03  0.25326167609E+03  0.77184555035E+02 0.  0.
          5    1    5    5  501    0 -0.36248775694E+02 -0.83890770949E+02  0.17683457146E+03  0.19910849016E+03  0.47000000000E+01 0. -1.
        -11    1    6    6    0    0 -0.94120912331E+01 -0.15514858905E+03  0.49264420623E+02  0.16305414832E+03  0.00000000000E+00 0.  1.
         12    1    6    6    0    0  0.16451551445E+02 -0.54345580294E+02  0.70094952911E+02  0.90207527768E+02  0.00000000000E+00 0. -1.
         -5    1    3    3    0  503  0.19081193410E+02  0.17616827126E+03 -0.95405029531E+03  0.97037797158E+03  0.47000000000E+01 0.  1.
         11    1    4    4    0    0  0.23821484369E+02  0.32738761938E+01 -0.36475645285E+02  0.43688145781E+02  0.00000000000E+00 0. -1.
        -12    1    4    4    0    0 -0.13693362297E+02  0.11394279284E+03 -0.31534132679E+03  0.33557505955E+03  0.00000000000E+00 0.  1.
</event>
<event>
12    1  0.8453150E-002  0.1853974E+03  0.7818608E-02  0.1162925E+00
         21   -1    0    0  501  502  0.00000000000E+00  0.00000000000E+00  0.57414065892E+02  0.57414065892E+02  0.00000000000E+00 0.  1.
         21   -1    0    0  502  503 -0.00000000000E+00 -0.00000000000E+00 -0.61564214662E+03  0.61564214662E+03  0.00000000000E+00 0.  1.
         -6    2    1    2    0  503  0.46934619441E+02 -0.48126884196E+02 -0.33954789674E+03  0.38636263767E+03  0.17165156020E+03 0.  0.
        -24    2    3    3    0    0  0.49521630986E+02 -0.67080394600E+02 -0.34860281345E+03  0.36468293052E+03  0.67212699619E+02 0.  0.
          6    2    1    2  501    0 -0.46934619441E+02  0.48126884196E+02 -0.21868018399E+03  0.28669357485E+03  0.17278057618E+03 0.  0.
         24    2    5    5    0    0 -0.55579947432E+02  0.70435572325E+01 -0.22366295975E+03  0.24415536256E+03  0.80299310383E+02 0.  0.
          5    1    5    5  501    0  0.86453279912E+01  0.41083326964E+02  0.49827757592E+01  0.42538212289E+02  0.47000000000E+01 0. -1.
        -13    1    6    6    0    0  0.90147547159E+01  0.27601505428E+02 -0.51394949080E+02  0.59030074499E+02  0.00000000000E+00 0.  1.
         14    1    6    6    0    0 -0.64594702148E+02 -0.20557948195E+02 -0.17226801067E+03  0.18512528806E+03  0.00000000000E+00 0. -1.
         -5    1    3    3    0  503 -0.25870115448E+01  0.18953510404E+02  0.90549167103E+01  0.21679707147E+02  0.47000000000E+01 0.  1.
         13    1    4    4    0    0 -0.13550824670E+02 -0.23726847125E+02 -0.13615006994E+03  0.13886478916E+03  0.00000000000E+00 0. -1.
        -14    1    4    4    0    0  0.63072455656E+02 -0.43353547475E+02 -0.21245274352E+03  0.22581814136E+03  0.00000000000E+00 0.  1.
</event>
<event>
12    1  0.8453150E-002  0.2286948E+03  0.7818608E-02  0.1127614E+00
         21   -1    0    0  503  502  0.00000000000E+00  0.00000000000E+00  0.26667084236E+03  0.26667084236E+03  0.00000000000E+00 0. -1.
         21   -1    0    0  501  503 -0.00000000000E+00 -0.00000000000E+00 -0.20198006379E+03  0.20198006379E+03  0.00000000000E+00 0. -1.
          6    2    1    2  501    0 -0.53950933915E+02  0.14009256929E+03 -0.83689446272E+01  0.22884789924E+03  0.17252446351E+03 0.  0.
         24    2    3    3    0    0 -0.37051937830E+02  0.16511565079E+03  0.20871889720E+02  0.18655313514E+03  0.75699486241E+02 0.  0.
         -6    2    1    2    0  502  0.53950933915E+02 -0.14009256929E+03  0.73059723195E+02  0.23980300691E+03  0.17213694470E+03 0.  0.
        -24    2    5    5    0    0  0.30698288628E+02 -0.15551047471E+03  0.97758836506E+02  0.20224593676E+03  0.78871643511E+02 0.  0.
          5    1    3    3  501    0 -0.16898996085E+02 -0.25023081504E+02 -0.29240834347E+02  0.42294764096E+02  0.47000000000E+01 0. -1.
        -11    1    4    4    0    0 -0.37811009387E+02  0.27434406618E+02  0.13701721228E+02  0.48683223619E+02  0.00000000000E+00 0.  1.
         12    1    4    4    0    0  0.75907155704E+00  0.13768124417E+03  0.71701684921E+01  0.13786991152E+03  0.00000000000E+00 0. -1.
         -5    1    5    5    0  502  0.23252645287E+02  0.15417905421E+02 -0.24699113311E+02  0.37557070157E+02  0.47000000000E+01 0.  1.
         13    1    6    6    0    0 -0.19168050490E+02 -0.91443799827E+02  0.35548609461E+02  0.99965425628E+02  0.00000000000E+00 0. -1.
        -14    1    6    6    0    0  0.49866339118E+02 -0.64066674882E+02  0.62210227046E+02  0.10228051113E+03  0.00000000000E+00 0.  1.
</event>
<event>
12    1  0.8453150E-002  0.1826395E+03  0.7818608E-02  0.1165676E+00
         21   -1    0    0  501  502  0.00000000000E+00  0.00000000000E+00  0.23692891194E+02  0.23692891194E+02  0.00000000000E+00 0.  1.
         21   -1    0    0  502  503 -0.00000000000E+00 -0.00000000000E+00 -0.14163572495E+04  0.14163572495E+04  0.00000000000E+00 0.  1.
         -6    2    1    2    0  503 -0.11434216244E+02  0.52061427782E+02 -0.78814511609E+03  0.80903023577E+03  0.17468847932E+03 0.  0.
        -24    2    3    3    0    0 -0.16048038213E+02  0.85700595992E+02 -0.74321774350E+03  0.75251970755E+03  0.79442836833E+02 0.  0.
          6    2    1    2  501    0  0.11434216244E+02 -0.52061427782E+02 -0.60451924226E+03  0.63101990497E+03  0.17292042285E+03 0.  0.
         24    2    5    5    0    0 -0.28598789637E+02 -0.56118926165E+02 -0.20536984677E+03  0.22981991149E+03  0.81689614451E+02 0.  0.
          5    1    5    5  501    0  0.40033005881E+02  0.40574983829E+01 -0.39914939548E+03  0.40119999348E+03  0.47000000000E+01 0. -1.
        -13    1    6    6    0    0  0.22002429835E+02 -0.46770952449E+02 -0.10426804275E+03  0.11637634489E+03  0.00000000000E+00 0.  1.
         14    1    6    6    0    0 -0.50601219472E+02 -0.93479737160E+01 -0.10110180403E+03  0.11344356660E+03  0.00000000000E+00 0. -1.
         -5    1    3    3    0  503  0.46138219691E+01 -0.33639168210E+02 -0.44927372593E+02  0.56510528215E+02  0.47000000000E+01 0.  1.
         13    1    4    4    0    0 -0.58840050439E+01 -0.15203875768E+02 -0.12050450542E+03  0.12160228279E+03  0.00000000000E+00 0. -1.
        -14    1    4    4    0    0 -0.10164033169E+02  0.10090447176E+03 -0.62271323808E+03  0.63091742476E+03  0.00000000000E+00 0.  1.
</event>
<event>
12    1  0.8453150E-002  0.2537624E+03  0.7818608E-02  0.1110973E+00
         21   -1    0    0  501  502  0.00000000000E+00  0.00000000000E+00  0.97645449764E+02  0.97645449764E+02  0.00000000000E+00 0.  1.
         21   -1    0    0  502  503 -0.00000000000E+00 -0.00000000000E+00 -0.65987206560E+03  0.65987206560E+03  0.00000000000E+00 0. -1.
         -6    2    1    2    0  503  0.74263635404E+02  0.17049857951E+03 -0.26816052122E+03  0.36919567337E+03  0.17265725277E+03 0.  0.
        -24    2    3    3    0    0  0.30118816787E+02  0.17608282919E+03 -0.19506121908E+03  0.28348950773E+03  0.10200547015E+03 0.  0.
          6    2    1    2  501    0 -0.74263635404E+02 -0.17049857951E+03 -0.29406609462E+03  0.38832184200E+03  0.17243587739E+03 0.  0.
         24    2    5    5    0    0 -0.29597652303E+02 -0.82352072519E+01 -0.10084274859E+03  0.13203722781E+03  0.79503018328E+02 0.  0.
          5    1    5    5  501    0 -0.44665983100E+02 -0.16226337225E+03 -0.19322334603E+03  0.25628461419E+03  0.47000000000E+01 0. -1.
        -13    1    6    6    0    0 -0.39112361368E+02  0.97479231228E+01 -0.10391722078E+03  0.11146114835E+03  0.00000000000E+00 0.  1.
         14    1    6    6    0    0  0.95147090650E+01 -0.17983130375E+02  0.30744721870E+01  0.20576079459E+02  0.00000000000E+00 0. -1.
         -5    1    3    3    0  503  0.44144818617E+02 -0.55842496884E+01 -0.73099302138E+02  0.85706165638E+02  0.47000000000E+01 0.  1.
         13    1    4    4    0    0  0.26439740861E+02  0.10415680204E+03 -0.18041770027E+03  0.20999582348E+03  0.00000000000E+00 0. -1.
        -14    1    4    4    0    0  0.36790759260E+01  0.71926027150E+02 -0.14643518814E+02  0.73493684249E+02  0.00000000000E+00 0.  1.
</event>
<event>
12    1  0.8453150E-002  0.2055064E+03  0.7818608E-02  0.1145919E+00
         21   -1    0    0  501  502  0.00000000000E+00  0.00000000000E+00  0.10701280496E+03  0.10701280496E+03  0.00000000000E+00 0. -1.
         21   -1    0    0  502  503 -0.00000000000E+00 -0.00000000000E+00 -0.39589321295E+03  0.39589321295E+03  0.00000000000E+00 0.  1.
         -6    2    1    2    0  503 -0.50239659519E+02 -0.99135505001E+02 -0.10706822975E+03  0.22851840345E+03  0.16853837294E+03 0.  0.
        -24    2    3    3    0    0 -0.86079792269E+01  0.44180165422E+01 -0.11498649905E+02  0.81507644596E+02  0.80110305213E+02 0.  0.
          6    2    1    2  501    0  0.50239659519E+02  0.99135505001E+02 -0.18181217824E+03  0.27438761446E+03  0.17286128275E+03 0.  0.
         24    2    5    5    0    0  0.54783190025E+02  0.10979930278E+03 -0.20254288971E+03  0.25017578573E+03  0.80667321716E+02 0.  0.
          5    1    5    5  501    0 -0.45435305053E+01 -0.10663797779E+02  0.20730711470E+02  0.24211828732E+02  0.47000000000E+01 0. -1.
        -11    1    6    6    0    0  0.53460792476E+02  0.27489834495E+02 -0.56331545897E+02  0.82383192436E+02  0.00000000000E+00 0.  1.
         12    1    6    6    0    0  0.13223975483E+01  0.82309468284E+02 -0.14621134381E+03  0.16779259329E+03  0.00000000000E+00 0. -1.
         -5    1    3    3    0  503 -0.41631680292E+02 -0.10355352154E+03 -0.95569579847E+02  0.14701075886E+03  0.47000000000E+01 0.  1.
         11    1    4    4    0    0 -0.58089917178E+01  0.41199031334E+02  0.33558464427E+01  0.41741661119E+02  0.00000000000E+00 0. -1.
        -12    1    4    4    0    0 -0.27989875091E+01 -0.36781014791E+02 -0.14854496347E+02  0.39765983477E+02  0.00000000000E+00 0.  1.
</event>
<event>
12    1  0.8453150E-002  0.1922027E+03  0.7818608E-02  0.1160482E+00
         21   -1    0    0  503  502  0.00000000000E+00  0.00000000000E+00  0.19931836574E+03  0.19931836574E+03  0.00000000000E+00 0. -1.
         21   -1    0    0  501  503 -0.00000000000E+00 -0.00000000000E+00 -0.27526751586E+03  0.27526751586E+03  0.00000000000E+00 0. -1.
          6    2    1    2  501    0  0.44641668448E+02 -0.30693387103E+02 -0.18407549548E+03  0.25405658686E+03  0.16651125703E+03 0.  0.
         24    2    3    3    0    0 -0.13321550871E+02 -0.59720473567E+02 -0.75720285563E+02  0.12770292424E+03  0.82646697049E+02 0.  0.
         -6    2    1    2    0  502 -0.44641668448E+02  0.30693387103E+02  0.10812634537E+03  0.22052929474E+03  0.18440960035E+03 0.  0.
        -24    2    5    5    0    0 -0.91358944499E+02 -0.50688827417E+01  0.10640491485E+03  0.16148272711E+03  0.79890643619E+02 0.  0.
          5    1    3    3  501    0  0.57963219319E+02  0.29027086464E+02 -0.10835520992E+03  0.12635366262E+03  0.47000000000E+01 0. -1.
        -11    1    4    4    0    0  0.27339839391E+02 -0.48554428077E+02 -0.61998990318E+02  0.83359907055E+02  0.00000000000E+00 0.  1.
         12    1    4    4    0    0 -0.40661390261E+02 -0.11166045489E+02 -0.13721295245E+02  0.44343017185E+02  0.00000000000E+00 0. -1.
         -5    1    5    5    0  502  0.46717276051E+02  0.35762269844E+02  0.17214305161E+01  0.59046567632E+02  0.47000000000E+01 0.  1.
         11    1    6    6    0    0 -0.43441690645E+02 -0.32338349449E+02  0.17580715204E+02  0.56938834536E+02  0.00000000000E+00 0. -1.
        -12    1    6    6    0    0 -0.47917253854E+02  0.27269466708E+02  0.88824199645E+02  0.10454389257E+03  0.00000000000E+00 0.  1.
</event>
<event>
12    1  0.8453150E-002  0.1988264E+03  0.7818608E-02  0.1150944E+00
         21   -1    0    0  503  502  0.00000000000E+00  0.00000000000E+00  0.43525344278E+03  0.43525344278E+03  0.00000000000E+00 0.  1.
         21   -1    0    0  501  503 -0.00000000000E+00 -0.00000000000E+00 -0.16231285270E+03  0.16231285270E+03  0.00000000000E+00 0. -1.
          6    2    1    2  501    0  0.68058608658E+01 -0.98996038162E+02 -0.62252032565E+02  0.20834408076E+03  0.17229453014E+03 0.  0.
         24    2    3    3    0    0 -0.17663402570E+02 -0.94492939049E+01 -0.79383348750E+02  0.11382986884E+03  0.79083740659E+02 0.  0.
         -6    2    1    2    0  502 -0.68058608658E+01  0.98996038162E+02  0.33519262264E+03  0.38922221471E+03  0.17115286395E+03 0.  0.
        -24    2    5    5    0    0 -0.61704057523E+02  0.39757822111E+02  0.13493608532E+03  0.17324131514E+03  0.80104500611E+02 0.  0.
          5    1    3    3  501    0  0.24469263436E+02 -0.89546744257E+02  0.17131316185E+02  0.94514211918E+02  0.47000000000E+01 0. -1.
        -13    1    4    4    0    0 -0.19989929685E+02 -0.42322434709E+02 -0.34498015827E+02  0.58145497371E+02  0.00000000000E+00 0.  1.
         14    1    4    4    0    0  0.23265271149E+01  0.32873140804E+02 -0.44885332924E+02  0.55684371474E+02  0.00000000000E+00 0. -1.
         -5    1    5    5    0  502  0.54898196657E+02  0.59238216052E+02  0.20025653733E+03  0.21598089957E+03  0.47000000000E+01 0.  1.
         13    1    6    6    0    0 -0.53246761146E+02 -0.91779348359E+01  0.44214358393E+02  0.69816628023E+02  0.00000000000E+00 0. -1.
        -14    1    6    6    0    0 -0.84572963771E+01  0.48935756947E+02  0.90721726922E+02  0.10342468712E+03  0.00000000000E+00 0.  1.
</event>
<event>
12    1  0.8453150E-002  0.1971758E+03  0.7818608E-02  0.1152845E+00
         21   -1    0    0  503  502  0.00000000000E+00  0.00000000000E+00  0.26335251356E+03  0.26335251356E+03  0.00000000000E+00 0. -1.
         21   -1    0    0  501  503 -0.00000000000E+00 -0.00000000000E+00 -0.14916174265E+03  0.14916174265E+03  0.00000000000E+00 0. -1.
          6    2    1    2  501    0  0.66340438523E+02 -0.69504459437E+02  0.24018006540E+02  0.19863321818E+03  0.17218120414E+03 0.  0.
         24    2    3    3    0    0  0.83174709677E+01 -0.39009405794E+02  0.74586714141E+02  0.11571218798E+03  0.78963399478E+02 0.  0.
         -6    2    1    2    0  502 -0.66340438523E+02  0.69504459437E+02  0.90172764375E+02  0.21388103803E+03  0.16846972229E+03 0.  0.
        -24    2    5    5    0    0 -0.98588870458E+02  0.91363540036E+02  0.68389436298E+02  0.16899914693E+03  0.76266210331E+02 0.  0.
          5    1    3    3  501    0  0.58022967555E+02 -0.30495053643E+02 -0.50568707601E+02  0.82921030197E+02  0.47000000000E+01 0. -1.
        -11    1    4    4    0    0  0.42055969597E+02 -0.14810314200E+02  0.51813719754E+02  0.68357234732E+02  0.00000000000E+00 0.  1.
         12    1    4    4    0    0 -0.33738498630E+02 -0.24199091594E+02  0.22772994387E+02  0.47354953248E+02  0.00000000000E+00 0. -1.
         -5    1    5    5    0  502  0.32248431935E+02 -0.21859080599E+02  0.21783328078E+02  0.44881891104E+02  0.47000000000E+01 0.  1.
         13    1    6    6    0    0  0.49693049912E+01 -0.71639341635E+00  0.22455066451E+02  0.23009502840E+02  0.00000000000E+00 0. -1.
        -14    1    6    6    0    0 -0.10355817545E+03  0.92079933452E+02  0.45934369847E+02  0.14598964409E+03  0.00000000000E+00 0.  1.
</event>
<event>
12    1  0.8453150E-002  0.1767930E+03  0.7818608E-02  0.1171115E+00
         21   -1    0    0  503  502  0.00000000000E+00  0.00000000000E+00  0.19214087703E+03  0.19214087703E+03  0.00000000000E+00 0. -1.
         21   -1    0    0  501  503 -0.00000000000E+00 -0.00000000000E+00 -0.21045001573E+03  0.21045001573E+03  0.00000000000E+00 0. -1.
          6    2    1    2  501    0 -0.58404797645E+01  0.34892585378E+02 -0.10571575997E+03  0.20598929733E+03  0.17321710363E+03 0.  0.
         24    2    3    3    0    0  0.35865209728E+02  0.77640963383E+02 -0.61576128858E+02  0.13157703092E+03  0.78781107865E+02 0.  0.
         -6    2    1    2    0  502  0.58404797645E+01 -0.34892585378E+02  0.87406621269E+02  0.19660159542E+03  0.17251279999E+03 0.  0.
        -24    2    5    5    0    0  0.42878927008E+01  0.41520581772E+02  0.77665292751E+02  0.11941114185E+03  0.80528121585E+02 0.  0.
          5    1    3    3  501    0 -0.41705689493E+02 -0.42748378005E+02 -0.44139631112E+02  0.74412266414E+02  0.47000000000E+01 0. -1.
        -13    1    4    4    0    0  0.41100372211E+02  0.41356795639E+01 -0.31657507634E+02  0.52043656971E+02  0.00000000000E+00 0.  1.
         14    1    4    4    0    0 -0.52351624828E+01  0.73505283819E+02 -0.29918621224E+02  0.79533373948E+02  0.00000000000E+00 0. -1.
         -5    1    5    5    0  502  0.15525870637E+01 -0.76413167150E+02  0.97413285181E+01  0.77190453566E+02  0.47000000000E+01 0.  1.
         11    1    6    6    0    0  0.34308979593E+02  0.46573767345E+02  0.37210194648E+02  0.68780960092E+02  0.00000000000E+00 0. -1.
        -12    1    6    6    0    0 -0.30021086892E+02 -0.50531855733E+01  0.40455098103E+02  0.50630181761E+02  0.00000000000E+00 0.  1.
</event>
<event>
12    1  0.8453150E-002  0.2418406E+03  0.7818608E-02  0.1118742E+00
         21   -1    0    0  501  502  0.00000000000E+00  0.00000000000E+00  0.95594580705E+03  0.95594580705E+03  0.00000000000E+00 0.  1.
         21   -1    0    0  502  503 -0.00000000000E+00 -0.00000000000E+00 -0.13313549338E+03  0.13313549338E+03  0.00000000000E+00 0.  1.
         -6    2    1    2    0  503  0.15741019106E+03  0.59803404387E+02  0.99636216392E+01  0.24102079012E+03  0.17215496534E+03 0.  0.
        -24    2    3    3    0    0  0.19096551544E+02  0.71936307522E+01  0.40372440694E+02  0.89874379535E+02  0.77659793490E+02 0.  0.
          6    2    1    2  501    0 -0.15741019106E+03 -0.59803404387E+02  0.81284669203E+03  0.84806051030E+03  0.17358706452E+03 0.  0.
         24    2    5    5    0    0 -0.27002671340E+02 -0.47946394368E+02  0.20809407617E+03  0.22927579308E+03  0.78969891488E+02 0.  0.
          5    1    5    5  501    0 -0.13040751972E+03 -0.11857010020E+02  0.60475261586E+03  0.61878471723E+03  0.47000000000E+01 0. -1.
        -13    1    6    6    0    0 -0.16053777487E+02 -0.53412988175E+02  0.20964783960E+03  0.21693982513E+03  0.00000000000E+00 0.  1.
         14    1    6    6    0    0 -0.10948893853E+02  0.54665938072E+01 -0.15537634298E+01  0.12335967950E+02  0.00000000000E+00 0. -1.
         -5    1    3    3    0  503  0.13831363951E+03  0.52609773635E+02 -0.30408819054E+02  0.15114641059E+03  0.47000000000E+01 0.  1.
         13    1    4    4    0    0  0.27265272007E+02  0.37972807823E+02  0.14804866128E+02  0.49035836413E+02  0.00000000000E+00 0. -1.
        -14    1    4    4    0    0 -0.81687204637E+01 -0.30779177071E+02  0.25567574566E+02  0.40838543122E+02  0.00000000000E+00 0.  1.
</event>
<event>
12    1  0.8453150E-002  0.2585450E+03  0.7818608E-02  0.1108021E+00
         21   -1    0    0  503  502  0.00000000000E+00  0.00000000000E+00  0.18269510812E+03  0.18269510812E+03  0.00000000000E+00 0.  1.
         21   -1    0    0  501  503 -0.00000000000E+00 -0.00000000000E+00 -0.37232967356E+03  0.37232967356E+03  0.00000000000E+00 0.  1.
          6    2    1    2  501    0 -0.12922237284E+03  0.14346085229E+03 -0.13133898417E+03  0.28998913042E+03  0.17194280799E+03 0.  0.
         24    2    3    3    0    0 -0.14879719246E+03  0.15167176060E+03 -0.14003486162E+03  0.26657330536E+03  0.79414338857E+02 0.  0.
         -6    2    1    2    0  502  0.12922237284E+03 -0.14346085229E+03 -0.58295581260E+02  0.26503565125E+03  0.17194791031E+03 0.  0.
        -24    2    5    5    0    0  0.52419924690E+02 -0.49916025781E+01  0.38333125742E+01  0.94875613037E+02  0.78828440699E+02 0.  0.
          5    1    3    3  501    0  0.19574819630E+02 -0.82109083042E+01  0.86958774464E+01  0.23415825061E+02  0.47000000000E+01 0. -1.
        -13    1    4    4    0    0 -0.60757521251E+02  0.60936124349E+02 -0.12430564958E+02  0.86943697785E+02  0.00000000000E+00 0.  1.
         14    1    4    4    0    0 -0.88039671214E+02  0.90735636246E+02 -0.12760429666E+03  0.17962960758E+03  0.00000000000E+00 0. -1.
         -5    1    5    5    0  502  0.76802448145E+02 -0.13846924971E+03 -0.62128893834E+02  0.17016003822E+03  0.47000000000E+01 0.  1.
         11    1    6    6    0    0  0.11338978423E+02 -0.39366372745E+02  0.51805156445E+01  0.41293116582E+02  0.00000000000E+00 0. -1.
        -12    1    6    6    0    0  0.41080946267E+02  0.34374770167E+02 -0.13472030703E+01  0.53582496454E+02  0.00000000000E+00 0.  1.
</event>
<event>
12    1  0.8453150E-002  0.1773851E+03  0.7818608E-02  0.1171535E+00
         21   -1    0    0  503  502  0.00000000000E+00  0.00000000000E+00  0.10825734467E+03  0.10825734467E+03  0.00000000000E+00 0.  1.
         21   -1    0    0  501  503 -0.00000000000E+00 -0.00000000000E+00 -0.36765723114E+03  0.36765723114E+03  0.00000000000E+00 0.  1.
          6    2    1    2  501    0  0.22151507718E+02 -0.32136057349E+01 -0.24521962103E+03  0.30265183652E+03  0.17596719879E+03 0.  0.
         24    2    3    3    0    0  0.17537284122E+02  0.60594946080E+02 -0.96610409511E+02  0.14078890038E+03  0.80676139105E+02 0.  0.
         -6    2    1    2    0  502 -0.22151507718E+02  0.32136057349E+01 -0.14180265439E+02  0.17326273929E+03  0.17122464876E+03 0.  0.
        -24    2    5    5    0    0 -0.10752633617E+02  0.27471545814E+02 -0.70898628964E+02  0.11035451448E+03  0.79254011371E+02 0.  0.
          5    1    3    3  501    0  0.46142235956E+01 -0.63808551815E+02 -0.14860921152E+03  0.16186293613E+03  0.47000000000E+01 0. -1.
        -11    1    4    4    0    0  0.45152483453E+02  0.48094780898E+02 -0.86604050248E+02  0.10886742502E+03  0.00000000000E+00 0.  1.
         12    1    4    4    0    0 -0.27615199331E+02  0.12500165182E+02 -0.10006359263E+02  0.31921475363E+02  0.00000000000E+00 0. -1.
         -5    1    5    5    0  502 -0.11398874100E+02 -0.24257940080E+02  0.56718363525E+02  0.62908224809E+02  0.47000000000E+01 0.  1.
         13    1    6    6    0    0 -0.38979927985E+02  0.30855604146E+02 -0.23280177366E+02  0.54895079480E+02  0.00000000000E+00 0. -1.
        -14    1    6    6    0    0  0.28227294368E+02 -0.33840583315E+01 -0.47618451598E+02  0.55459435002E+02  0.00000000000E+00 0.  1.
</event>
<event>
12    1  0.8453150E-002  0.1933438E+03  0.7818608E-02  0.1155596E+00
         21   -1    0    0  503  502  0.00000000000E+00  0.00000000000E+00  0.20805057091E+04  0.20805057091E+04  0.00000000000E+00 0.  1.
         21   -1    0    0  501  503 -0.00000000000E+00 -0.00000000000E+00 -0.32173856711E+02  0.32173856711E+02  0.00000000000E+00 0.  1.
          6    2    1    2  501    0 -0.67272253879E+01 -0.87615241395E+02  0.32025797565E+03  0.37382329013E+03  0.17163040287E+03 0.  0.
         24    2    3    3    0    0 -0.39845773999E+02 -0.13405159102E+02  0.70760449790E+02  0.11138266830E+03  0.75044477122E+02 0.  0.
         -6    2    1    2    0  502  0.67272253879E+01  0.87615241395E+02  0.17280738767E+04  0.17388562757E+04  0.17222118898E+03 0.  0.
        -24    2    5    5    0    0  0.40830659866E+02  0.22684653077E+02  0.13808632340E+04  0.13839529847E+04  0.79754977850E+02 0.  0.
          5    1    3    3  501    0  0.33118548611E+02 -0.74210082293E+02  0.24949752586E+03  0.26244062183E+03  0.47000000000E+01 0. -1.
        -11    1    4    4    0    0  0.22166677210E+02 -0.49683809164E+01  0.25479273290E+02  0.34135608313E+02  0.00000000000E+00 0.  1.
         12    1    4    4    0    0 -0.62012451210E+02 -0.84367781854E+01  0.45281176500E+02  0.77247059985E+02  0.00000000000E+00 0. -1.
         -5    1    5    5    0  502 -0.34103434478E+02  0.64930588317E+02  0.34721064276E+03  0.35490329104E+03  0.47000000000E+01 0.  1.
         13    1    6    6    0    0 -0.19211731400E+02 -0.11189533541E+02  0.24821676880E+03  0.24921047450E+03  0.00000000000E+00 0. -1.
        -14    1    6    6    0    0  0.60042391266E+02  0.33874186618E+02  0.11326464652E+04  0.11347425102E+04  0.00000000000E+00 0.  1.
</event>
<event>
12    1  0.8453150E-002  0.2078736E+03  0.7818608E-02  0.1143304E+00
         21   -1    0    0  503  502  0.00000000000E+00  0.00000000000E+00  0.20121045468E+03  0.20121045468E+03  0.00000000000E+00 0.  1.
         21   -1    0    0  501  503 -0.00000000000E+00 -0.00000000000E+00 -0.63415829974E+03  0.63415829974E+03  0.00000000000E+00 0.  1.
          6    2    1    2  501    0  0.11616702910E+03 -0.11782448742E+02 -0.55620128803E+03  0.59370196001E+03  0.17172227512E+03 0.  0.
         24    2    3    3    0    0  0.19918117239E+02  0.48182269392E+02 -0.22410428602E+03  0.24274593827E+03  0.77360177454E+02 0.  0.
         -6    2    1    2    0  502 -0.11616702910E+03  0.11782448742E+02  0.12325344296E+03  0.24166679441E+03  0.17198204432E+03 0.  0.
        -24    2    5    5    0    0 -0.74907709526E+02 -0.51853707375E+02  0.40295602923E+02  0.12916797201E+03  0.82223217301E+02 0.  0.
          5    1    3    3  501    0  0.96248911858E+02 -0.59964718135E+02 -0.33209700200E+03  0.35095602174E+03  0.47000000000E+01 0. -1.
        -11    1    4    4    0    0  0.43903582924E+02  0.10746031776E+02 -0.79384130662E+02  0.91350106697E+02  0.00000000000E+00 0.  1.
         12    1    4    4    0    0 -0.23985465685E+02  0.37436237616E+02 -0.14472015536E+03  0.15139583158E+03  0.00000000000E+00 0. -1.
         -5    1    5    5    0  502 -0.41259319571E+02  0.63636156117E+02  0.82957840040E+02  0.11249882240E+03  0.47000000000E+01 0.  1.
         13    1    6    6    0    0 -0.21884437846E+02  0.14741512864E+01 -0.22332713830E+02  0.31302585339E+02  0.00000000000E+00 0. -1.
        -14    1    6    6    0    0 -0.53023271680E+02 -0.53327858661E+02  0.62628316753E+02  0.97865386672E+02  0.00000000000E+00 0.  1.
</event>
<event>
12    1  0.8453150E-002  0.2911189E+03  0.7818608E-02  0.1090267E+00
         21   -1    0    0  501  502  0.00000000000E+00  0.00000000000E+00  0.75669207929E+03  0.75669207929E+03  0.00000000000E+00 0. -1.
         21   -1    0    0  502  503 -0.00000000000E+00 -0.00000000000E+00 -0.18656313513E+03  0.18656313513E+03  0.00000000000E+00 0. -1.
         -6    2    1    2    0  503 -0.12157239122E+02  0.22978658114E+03 -0.17129933292E+02  0.28779873013E+03  0.17200291600E+03 0.  0.
        -24    2    3    3    0    0  0.20234459051E+02  0.21692090473E+03 -0.46833631218E+02  0.24176453186E+03  0.93768798692E+02 0.  0.
          6    2    1    2  501    0  0.12157239122E+02 -0.22978658114E+03  0.58725887745E+03  0.65545648429E+03  0.17832706557E+03 0.  0.
         24    2    5    5    0    0  0.10199327946E+01 -0.40811465257E+02  0.10825325163E+03  0.14037968071E+03  0.79505171585E+02 0.  0.
          5    1    5    5  501    0  0.11137306328E+02 -0.18897511589E+03  0.47900562582E+03  0.51507680358E+03  0.47000000000E+01 0. -1.
        -13    1    6    6    0    0  0.38119806129E+01 -0.62457540757E+02  0.56879898879E+02  0.84562394066E+02  0.00000000000E+00 0.  1.
         14    1    6    6    0    0 -0.27920478183E+01  0.21646075501E+02  0.51373352752E+02  0.55817286646E+02  0.00000000000E+00 0. -1.
         -5    1    3    3    0  503 -0.32391698173E+02  0.12865676411E+02  0.29703697925E+02  0.46034198271E+02  0.47000000000E+01 0.  1.
         11    1    4    4    0    0 -0.31424950948E+02  0.12926641446E+03 -0.94401914323E+01  0.13336585269E+03  0.00000000000E+00 0. -1.
        -12    1    4    4    0    0  0.51659409999E+02  0.87654490275E+02 -0.37393439785E+02  0.10839867917E+03  0.00000000000E+00 0.  1.
</event>
<event>
12    1  0.8453150E-002  0.2000986E+03  0.7818608E-02  0.1149670E+00
         21   -1    0    0  501  502  0.00000000000E+00  0.00000000000E+00  0.27345184072E+03  0.27345184072E+03  0.00000000000E+00 0. -1.
         21   -1    0    0  502  503 -0.00000000000E+00 -0.00000000000E+00 -0.15456547900E+03  0.15456547900E+03  0.00000000000E+00 0.  1.
         -6    2    1    2    0  503 -0.48996713114E+02  0.89083764684E+02  0.10870140803E+03  0.22765969551E+03  0.17226823801E+03 0.  0.
        -24    2    3    3    0    0 -0.67386533834E+02  0.87852511474E+02  0.21412008974E+02  0.13832196173E+03  0.80096705630E+02 0.  0.
          6    2    1    2  501    0  0.48996713114E+02 -0.89083764684E+02  0.10184953681E+02  0.20035762421E+03  0.17234514577E+03 0.  0.
         24    2    5    5    0    0  0.14600891770E+02 -0.56666946588E+02 -0.59928867509E+02  0.11567019572E+03  0.79773404977E+02 0.  0.
          5    1    5    5  501    0  0.34395821343E+02 -0.32416818096E+02  0.70113821191E+02  0.84687428485E+02  0.47000000000E+01 0. -1.
        -13    1    6    6    0    0  0.27076416290E+02 -0.68017871751E+02 -0.65164079443E+02  0.98009797706E+02  0.00000000000E+00 0.  1.
         14    1    6    6    0    0 -0.12475524520E+02  0.11350925163E+02  0.52352119342E+01  0.17660398017E+02  0.00000000000E+00 0. -1.
         -5    1    3    3    0  503  0.18389820721E+02  0.12312532097E+01  0.87289399056E+02  0.89337733787E+02  0.47000000000E+01 0.  1.
         13    1    4    4    0    0  0.11402890241E+02  0.39811969137E+02  0.20098469459E+02  0.46032241603E+02  0.00000000000E+00 0. -1.
        -14    1    4    4    0    0 -0.78789424075E+02  0.48040542337E+02  0.13135395151E+01  0.92289720122E+02  0.00000000000E+00 0.  1.
</event>
<event>
12    1  0.8453150E-002  0.1785847E+03  0.7818608E-02  0.1169455E+00
         21   -1    0    0  501  502  0.00000000000E+00  0.00000000000E+00  0.21634512157E+04  0.21634512157E+04  0.00000000000E+00 0. -1.
         21   -1    0    0  502  503 -0.00000000000E+00 -0.00000000000E+00 -0.27905827592E+02  0.27905827592E+02  0.00000000000E+00 0. -1.
         -6    2    1    2    0  503  0.29506804221E+02  0.38126584245E+02  0.31082264019E+03  0.35791612366E+03  0.17078919755E+03 0.  0.
        -24    2    3    3    0    0  0.51932011842E+02  0.75968623641E+02  0.16292598754E+03  0.20354507797E+03  0.80109648094E+02 0.  0.
          6    2    1    2  501    0 -0.29506804221E+02 -0.38126584245E+02  0.18247227479E+04  0.18334409196E+04  0.17195409589E+03 0.  0.
         24    2    5    5    0    0 -0.33689837312E+02  0.26724529676E+02  0.15013993599E+04  0.15036178337E+04  0.69407106522E+02 0.  0.
          5    1    5    5  501    0  0.41830330908E+01 -0.64851113921E+02  0.32332338805E+03  0.32982308591E+03  0.47000000000E+01 0. -1.
        -11    1    6    6    0    0  0.19703245322E+02  0.85330983869E+01  0.24022274908E+03  0.24118043209E+03  0.00000000000E+00 0.  1.
         12    1    6    6    0    0 -0.53393082635E+02  0.18191431290E+02  0.12611766108E+04  0.12624374016E+04  0.00000000000E+00 0. -1.
         -5    1    3    3    0  503 -0.22425207620E+02 -0.37842039396E+02  0.14789665265E+03  0.15437104569E+03  0.47000000000E+01 0.  1.
         13    1    4    4    0    0  0.58685259334E+01  0.71669526730E+02  0.73301051947E+02  0.10268400496E+03  0.00000000000E+00 0. -1.
        -14    1    4    4    0    0  0.46063485908E+02  0.42990969109E+01  0.89624935593E+02  0.10086107301E+03  0.00000000000E+00 0.  1.
</event>
<event>
12    1  0.8453150E-002  0.2266001E+03  0.7818608E-02  0.1129089E+00
         21   -1    0    0  501  502  0.00000000000E+00  0.00000000000E+00  0.18389397087E+03  0.18389397087E+03  0.00000000000E+00 0. -1.
         21   -1    0    0  502  503 -0.00000000000E+00 -0.00000000000E+00 -0.37387322681E+03  0.37387322681E+03  0.00000000000E+00 0. -1.
         -6    2    1    2    0  503 -0.14360416518E+03  0.29005281111E+02 -0.23550530505E+03  0.32681851388E+03  0.17287026846E+03 0.  0.
        -24    2    3    3    0    0 -0.15125666540E+03  0.68074612853E+02 -0.21005503657E+03  0.27933399421E+03  0.79947671567E+02 0.  0.
          6    2    1    2  501    0  0.14360416518E+03 -0.29005281111E+02  0.45526049123E+02  0.23094868380E+03  0.17263027200E+03 0.  0.
         24    2    5    5    0    0  0.14830082012E+03  0.25320157133E+02  0.34468668357E+02  0.17511260695E+03  0.82716941492E+02 0.  0.
          5    1    5    5  501    0 -0.46966549437E+01 -0.54325438244E+02  0.11057380766E+02  0.55836076845E+02  0.47000000000E+01 0. -1.
        -13    1    6    6    0    0  0.31758184969E+02  0.42814997989E+02  0.17149624468E+02  0.55998356982E+02  0.00000000000E+00 0.  1.
         14    1    6    6    0    0  0.11654263515E+03 -0.17494840856E+02  0.17319043889E+02  0.11911424997E+03  0.00000000000E+00 0. -1.
         -5    1    3    3    0  503  0.76525002240E+01 -0.39069331742E+02 -0.25450268489E+02  0.47484519673E+02  0.47000000000E+01 0.  1.
         11    1    4    4    0    0 -0.25912832559E+02  0.65387108731E+01 -0.94129689957E+02  0.97850028935E+02  0.00000000000E+00 0. -1.
        -12    1    4    4    0    0 -0.12534383284E+03  0.61535901980E+02 -0.11592534661E+03  0.18148396527E+03  0.00000000000E+00 0.  1.
</event>
<event>
12    1  0.8453150E-002  0.2052638E+03  0.7818608E-02  0.1145379E+00
         21   -1    0    0  503  502  0.00000000000E+00  0.00000000000E+00  0.20068735149E+03  0.20068735149E+03  0.00000000000E+00 0.  1.
         21   -1    0    0  501  503 -0.00000000000E+00 -0.00000000000E+00 -0.32463283605E+03  0.32463283605E+03  0.00000000000E+00 0.  1.
          6    2    1    2  501    0 -0.35715887567E+02 -0.10640656007E+03 -0.21811038501E+03  0.29948780311E+03  0.17182206933E+03 0.  0.
         24    2    3    3    0    0 -0.32677296920E+02 -0.93456556018E+02 -0.24052292629E+03  0.27300483416E+03  0.82936287628E+02 0.  0.
         -6    2    1    2    0  502  0.35715887567E+02  0.10640656007E+03  0.94164900457E+02  0.22583238444E+03  0.17185824604E+03 0.  0.
        -24    2    5    5    0    0  0.46284077044E+02  0.51037344642E+00  0.22922570135E+02  0.97679161301E+02  0.82905356052E+02 0.  0.
          5    1    3    3  501    0 -0.30385906470E+01 -0.12950004054E+02  0.22412541274E+02  0.26482968951E+02  0.47000000000E+01 0. -1.
        -13    1    4    4    0    0 -0.13418509061E+02 -0.91246427650E+02 -0.12216248378E+03  0.15306743412E+03  0.00000000000E+00 0.  1.
         14    1    4    4    0    0 -0.19258787859E+02 -0.22101283687E+01 -0.11836044251E+03  0.11993740004E+03  0.00000000000E+00 0. -1.
         -5    1    5    5    0  502 -0.10568189477E+02  0.10589618663E+03  0.71242330323E+02  0.12815322314E+03  0.47000000000E+01 0.  1.
         13    1    6    6    0    0 -0.12278476657E+02  0.27514441725E+02  0.11137820112E+02  0.32122523707E+02  0.00000000000E+00 0. -1.
        -14    1    6    6    0    0  0.58562553701E+02 -0.27004068278E+02  0.11784750023E+02  0.65556637594E+02  0.00000000000E+00 0.  1.
</event>
<event>
12    1  0.8453150E-002  0.2362140E+03  0.7818608E-02  0.1122530E+00
         21   -1    0    0  501  502  0.00000000000E+00  0.00000000000E+00  0.27393168514E+03  0.27393168514E+03  0.00000000000E+00 0.  1.
         21   -1    0    0  502  503 -0.00000000000E+00 -0.00000000000E+00 -0.22586403374E+03  0.22586403374E+03  0.00000000000E+00 0. -1.
         -6    2    1    2    0  503  0.57309788585E+02 -0.15039886330E+03  0.10395202166E+03  0.25706108564E+03  0.17137721258E+03 0.  0.
        -24    2    3    3    0    0  0.82206129181E+02 -0.10567650393E+03  0.17493182291E+02  0.15647710029E+03  0.79080340988E+02 0.  0.
          6    2    1    2  501    0 -0.57309788585E+02  0.15039886330E+03 -0.55884370258E+02  0.24273463325E+03  0.17289537122E+03 0.  0.
         24    2    5    5    0    0 -0.18830174025E+02  0.33128813828E+02  0.29138974707E+02  0.92787961300E+02  0.79425639158E+02 0.  0.
          5    1    5    5  501    0 -0.38479614560E+02  0.11727004947E+03 -0.85023344965E+02  0.14994667195E+03  0.47000000000E+01 0. -1.
        -13    1    6    6    0    0 -0.12365171930E+02  0.50737800407E+02 -0.63888017908E+01  0.52612153115E+02  0.00000000000E+00 0.  1.
         14    1    6    6    0    0 -0.64650020942E+01 -0.17608986580E+02  0.35527776498E+02  0.40175808185E+02  0.00000000000E+00 0. -1.
         -5    1    3    3    0  503 -0.24896340596E+02 -0.44722359371E+02  0.86458839371E+02  0.10058398535E+03  0.47000000000E+01 0.  1.
         11    1    4    4    0    0  0.77560344403E+02 -0.11458009327E+03  0.24433518584E+01  0.13838415649E+03  0.00000000000E+00 0. -1.
        -12    1    4    4    0    0  0.46457847787E+01  0.89035893438E+01  0.15049830432E+02  0.18092943803E+02  0.00000000000E+00 0.  1.
</event>
<event>
12    1  0.8453150E-002  0.1890517E+03  0.7818608E-02  0.1160405E+00
         21   -1    0    0  503  502  0.00000000000E+00  0.00000000000E+00  0.20610355690E+03  0.20610355690E+03  0.00000000000E+00 0. -1.
         21   -1    0    0  501  503 -0.00000000000E+00 -0.00000000000E+00 -0.32245039640E+03  0.32245039640E+03  0.00000000000E+00 0. -1.
          6    2    1    2  501    0  0.59508782095E+02  0.48452174196E+02 -0.24002552152E+03  0.30264030997E+03  0.16760070974E+03 0.  0.
         24    2    3    3    0    0  0.89261548459E+02 -0.56796708115E+01 -0.17603323880E+03  0.21357524387E+03  0.81405165312E+02 0.  0.
         -6    2    1    2    0  502 -0.59508782095E+02 -0.48452174196E+02  0.12367868201E+03  0.22591364333E+03  0.17277629910E+03 0.  0.
        -24    2    5    5    0    0 -0.24963568094E+02 -0.64320031523E+02  0.79774686419E+01  0.10403656804E+03  0.77457867882E+02 0.  0.
          5    1    3    3  501    0 -0.29752766365E+02  0.54131845008E+02 -0.63992282724E+02  0.89065066095E+02  0.47000000000E+01 0. -1.
        -11    1    4    4    0    0  0.26918287958E+02  0.33593151300E+02 -0.39474749972E+02  0.58406762675E+02  0.00000000000E+00 0.  1.
         12    1    4    4    0    0  0.62343260501E+02 -0.39272822112E+02 -0.13655848882E+03  0.15516848119E+03  0.00000000000E+00 0. -1.
         -5    1    5    5    0  502 -0.34545214001E+02  0.15867857327E+02  0.11570121337E+03  0.12187707529E+03  0.47000000000E+01 0.  1.
         11    1    6    6    0    0  0.14409732339E+02 -0.32661867533E+02  0.32138262810E+02  0.48034424252E+02  0.00000000000E+00 0. -1.
        -12    1    6    6    0    0 -0.39373300432E+02 -0.31658163990E+02 -0.24160794168E+02  0.56002143789E+02  0.00000000000E+00 0.  1.
</event>
<event>
12    1  0.8453150E-002  0.1738390E+03  0.7818608E-02  0.1173936E+00
         21   -1    0    0  501  502  0.00000000000E+00  0.00000000000E+00  0.90113886849E+02  0.90113886849E+02  0.00000000000E+00 0. -1.
         21   -1    0    0  502  503 -0.00000000000E+00 -0.00000000000E+00 -0.46334762751E+03  0.46334762751E+03  0.00000000000E+00 0. -1.
         -6    2    1    2    0  503  0.24765326531E+02 -0.10573501977E+02 -0.33226031635E+03  0.37498920696E+03  0.17174069748E+03 0.  0.
        -24    2    3    3    0    0 -0.74835559830E+01  0.57206107829E+02 -0.20645051310E+03  0.22841409815E+03  0.78883734008E+02 0.  0.
          6    2    1    2  501    0 -0.24765326531E+02  0.10573501977E+02 -0.40973424314E+02  0.17847230740E+03  0.17160542727E+03 0.  0.
         24    2    5    5    0    0  0.32264635994E+02  0.43267868063E+02 -0.56478730192E+02  0.11076822548E+03  0.78527941960E+02 0.  0.
          5    1    5    5  501    0 -0.57029962525E+02 -0.32694366086E+02  0.15505305878E+02  0.67704081928E+02  0.47000000000E+01 0. -1.
        -11    1    6    6    0    0 -0.49156317327E+00 -0.18930624900E+01 -0.54922110762E+02  0.54956924682E+02  0.00000000000E+00 0.  1.
         12    1    6    6    0    0  0.32756199167E+02  0.45160930553E+02 -0.15566194298E+01  0.55811300794E+02  0.00000000000E+00 0. -1.
         -5    1    3    3    0  503  0.32248882514E+02 -0.67779609805E+02 -0.12580980325E+03  0.14657510881E+03  0.47000000000E+01 0.  1.
         13    1    4    4    0    0 -0.16806492387E+02 -0.15408927483E+02 -0.69181530831E+02  0.72842140555E+02  0.00000000000E+00 0. -1.
        -14    1    4    4    0    0  0.93229364037E+01  0.72615035312E+02 -0.13726898226E+03  0.15557195759E+03  0.00000000000E+00 0.  1.
</event>
<event>
12    1  0.8453150E-002  0.2497855E+03  0.7818608E-02  0.1113452E+00
         21   -1    0    0  501  502  0.00000000000E+00  0.00000000000E+00  0.77780322158E+03  0.77780322158E+03  0.00000000000E+00 0. -1.
         21   -1    0    0  502  503 -0.00000000000E+00 -0.00000000000E+00 -0.85453897395E+02  0.85453897395E+02  0.00000000000E+00 0. -1.
         -6    2    1    2    0  503 -0.17733025101E+03  0.34673155536E+02  0.23912420791E+03  0.34579358609E+03  0.17246614664E+03 0.  0.
        -24    2    3    3    0    0 -0.55594287372E+02 -0.93566289176E+01  0.17712825885E+03  0.20218350824E+03  0.79532883938E+02 0.  0.
          6    2    1    2  501    0  0.17733025101E+03 -0.34673155536E+02  0.45322511628E+03  0.51746353288E+03  0.17235793048E+03 0.  0.
         24    2    5    5    0    0  0.14486385687E+03 -0.82056380331E+02  0.28489728555E+03  0.33954336724E+03  0.80027797358E+02 0.  0.
          5    1    5    5  501    0  0.32466394144E+02  0.47383224794E+02  0.16832783074E+03  0.17792016564E+03  0.47000000000E+01 0. -1.
        -11    1    6    6    0    0  0.23228731538E+02  0.81801474785E+01  0.86546950570E+02  0.89982572950E+02  0.00000000000E+00 0.  1.
         12    1    6    6    0    0  0.12163512533E+03 -0.90236527809E+02  0.19835033497E+03  0.24956079429E+03  0.00000000000E+00 0. -1.
         -5    1    3    3    0  503 -0.12173596364E+03  0.44029784454E+02  0.61995949055E+02  0.14361007785E+03  0.47000000000E+01 0.  1.
         11    1    4    4    0    0 -0.68135526260E+02  0.15043918662E+02  0.12007688845E+03  0.13887846690E+03  0.00000000000E+00 0. -1.
        -12    1    4    4    0    0  0.12541238888E+02 -0.24400547579E+02  0.57051370397E+02  0.63305041341E+02  0.00000000000E+00 0.  1.
</event>
<event>
12    1  0.8453150E-002  0.1934384E+03  0.7818608E-02  0.1157185E+00
         21   -1    0    0  503  502  0.00000000000E+00  0.00000000000E+00  0.19626529395E+03  0.19626529395E+03  0.00000000000E+00 0. -1.
         21   -1    0    0  501  503 -0.00000000000E+00 -0.00000000000E+00 -0.20181055607E+03  0.20181055607E+03  0.00000000000E+00 0. -1.
          6    2    1    2  501    0 -0.28344009362E+02  0.83591776698E+02 -0.63627305373E+02  0.19610572547E+03  0.16315040170E+03 0.  0.
         24    2    3    3    0    0  0.38069212475E+02  0.14280596861E+02 -0.21306391239E+02  0.91091890869E+02  0.78680174691E+02 0.  0.
         -6    2    1    2    0  502  0.28344009362E+02 -0.83591776698E+02  0.58082043256E+02  0.20197012454E+03  0.17212623118E+03 0.  0.
        -24    2    5    5    0    0 -0.25998495514E+02 -0.10463144404E+03  0.41162015027E+02  0.14110837306E+03  0.81200989016E+02 0.  0.
          5    1    3    3  501    0 -0.66413221837E+02  0.69311179837E+02 -0.42320914134E+02  0.10501383460E+03  0.47000000000E+01 0. -1.
        -13    1    4    4    0    0  0.11989091804E+01 -0.30348092387E+02 -0.37691261998E+01  0.30604744846E+02  0.00000000000E+00 0.  1.
         14    1    4    4    0    0  0.36870303294E+02  0.44628689248E+02 -0.17537265039E+02  0.60487146024E+02  0.00000000000E+00 0. -1.
         -5    1    5    5    0  502  0.54342504876E+02  0.21039667337E+02  0.16920028229E+02  0.60861751479E+02  0.47000000000E+01 0.  1.
         11    1    6    6    0    0 -0.16064300274E+01 -0.10353292518E+03  0.50200008271E+02  0.11507253383E+03  0.00000000000E+00 0. -1.
        -12    1    6    6    0    0 -0.24392065487E+02 -0.10985188601E+01 -0.90379932437E+01  0.26035839227E+02  0.00000000000E+00 0.  1.
</event>
<event>
12    1  0.8453150E-002  0.2177598E+03  0.7818608E-02  0.1135715E+00
         21   -1    0    0  503  502  0.00000000000E+00  0.00000000000E+00  0.96243164794E+03  0.96243164794E+03  0.00000000000E+00 0. -1.
         21   -1    0    0  501  503 -0.00000000000E+00 -0.00000000000E+00 -0.10142091746E+03  0.10142091746E+03  0.00000000000E+00 0.  1.
          6    2    1    2  501    0 -0.13311300677E+03 -0.54117955812E+01  0.48035121021E+02  0.22221804544E+03  0.17124580802E+03 0.  0.
         24    2    3    3    0    0 -0.96830096673E+02  0.50937057519E+02  0.68911953717E+02  0.15186482978E+03  0.79645575568E+02 0.  0.
         -6    2    1    2    0  502  0.13311300677E+03  0.54117955812E+01  0.81297560946E+03  0.84163451996E+03  0.17225261539E+03 0.  0.
        -24    2    5    5    0    0  0.42754485734E+02  0.49707597709E+02  0.56089957707E+03  0.57017329526E+03  0.78679474778E+02 0.  0.
          5    1    3    3  501    0 -0.36282910096E+02 -0.56348853101E+02 -0.20876832696E+02  0.70353215664E+02  0.47000000000E+01 0. -1.
        -11    1    4    4    0    0  0.11403221646E+02  0.18014244052E+02  0.48825455702E+01  0.21872030174E+02  0.00000000000E+00 0.  1.
         12    1    4    4    0    0 -0.10823331832E+03  0.32922813468E+02  0.64029408147E+02  0.12999279960E+03  0.00000000000E+00 0. -1.
         -5    1    5    5    0  502  0.90358521035E+02 -0.44295802128E+02  0.25207603239E+03  0.27146122470E+03  0.47000000000E+01 0.  1.
         11    1    6    6    0    0  0.39853395417E+02  0.15174801583E+02  0.11051260244E+03  0.11845506755E+03  0.00000000000E+00 0. -1.
        -12    1    6    6    0    0  0.29010903168E+01  0.34532796126E+02  0.45038697463E+03  0.45171822772E+03  0.00000000000E+00 0.  1.
</event>
<event>
12    1  0.8453150E-002  0.2064555E+03  0.7818608E-02  0.1144577E+00
         21   -1    0    0  503  502  0.00000000000E+00  0.00000000000E+00  0.60155463223E+03  0.60155463223E+03  0.00000000000E+00 0.  1.
         21   -1    0    0  501  503 -0.00000000000E+00 -0.00000000000E+00 -0.75424395007E+02  0.75424395007E+02  0.00000000000E+00 0.  1.
          6    2    1    2  501    0 -0.41981259377E+01 -0.11336099215E+03  0.34848271832E+03  0.40461432462E+03  0.17147655209E+03 0.  0.
         24    2    3    3    0    0 -0.54298192304E+02 -0.10150576836E+03  0.17788920648E+03  0.22635945298E+03  0.79638668210E+02 0.  0.
         -6    2    1    2    0  502  0.41981259377E+01  0.11336099215E+03  0.17764751890E+03  0.27236470262E+03  0.17249797523E+03 0.  0.
        -24    2    5    5    0    0  0.25861726179E+02  0.93923364958E+01  0.13690821831E+03  0.15852018783E+03  0.75018296736E+02 0.  0.
          5    1    3    3  501    0  0.50100066367E+02 -0.11855223790E+02  0.17059351184E+03  0.17825487164E+03  0.47000000000E+01 0. -1.
        -11    1    4    4    0    0 -0.33134279527E+02 -0.24373852785E+01  0.20041613713E+02  0.38800613487E+02  0.00000000000E+00 0.  1.
         12    1    4    4    0    0 -0.21163912778E+02 -0.99068383078E+02  0.15784759277E+03  0.18755883949E+03  0.00000000000E+00 0. -1.
         -5    1    5    5    0  502 -0.21663600241E+02  0.10396865565E+03  0.40739300595E+02  0.11384451478E+03  0.47000000000E+01 0.  1.
         13    1    6    6    0    0 -0.22868819966E+02 -0.61245669075E+01  0.20285028722E+02  0.31176523807E+02  0.00000000000E+00 0. -1.
        -14    1    6    6    0    0  0.48730546145E+02  0.15516903403E+02  0.11662318959E+03  0.12734366403E+03  0.00000000000E+00 0.  1.
</event>
<event>
12    1  0.8453150E-002  0.1723212E+03  0.7818608E-02  0.1175515E+00
         21   -1    0    0  503  502  0.00000000000E+00  0.00000000000E+00  0.12863189017E+04  0.12863189017E+04  0.00000000000E+00 0. -1.
         21   -1    0    0  501  503 -0.00000000000E+00 -0.00000000000E+00 -0.23629030513E+02  0.23629030513E+02  0.00000000000E+00 0. -1.
          6    2    1    2  501    0  0.87086072765E+01 -0.11627539535E+02  0.52929967196E+03  0.55664418306E+03  0.17170778747E+03 0.  0.
         24    2    3    3    0    0 -0.37749418698E+01 -0.68505953773E+02  0.42217216285E+03  0.43462211041E+03  0.77199273833E+02 0.  0.
         -6    2    1    2    0  502 -0.87086072765E+01  0.11627539535E+02  0.73339019927E+03  0.75330374920E+03  0.17144770240E+03 0.  0.
        -24    2    5    5    0    0  0.54834064232E+02  0.16298827785E+02  0.55699549512E+03  0.56569598367E+03  0.80594900370E+02 0.  0.
          5    1    3    3  501    0  0.12483549146E+02  0.56878414238E+02  0.10712750911E+03  0.12202207264E+03  0.47000000000E+01 0. -1.
        -11    1    4    4    0    0 -0.39523376415E+02 -0.27203512506E+02  0.17281878901E+03  0.17935568631E+03  0.00000000000E+00 0.  1.
         12    1    4    4    0    0  0.35748434545E+02 -0.41302441267E+02  0.24935337384E+03  0.25526642410E+03  0.00000000000E+00 0. -1.
         -5    1    5    5    0  502 -0.63542671508E+02 -0.46712882499E+01  0.17639470415E+03  0.18760776553E+03  0.47000000000E+01 0.  1.
         11    1    6    6    0    0 -0.20557683933E+02  0.87604372835E+01  0.10040932422E+03  0.10286591282E+03  0.00000000000E+00 0. -1.
        -12    1    6    6    0    0  0.75391748164E+02  0.75383905017E+01  0.45658617090E+03  0.46283007084E+03  0.00000000000E+00 0.  1.
</event>
<event>
12    1  0.8453150E-002  0.1965052E+03  0.7818608E-02  0.1153416E+00
         21   -1    0    0  501  502  0.00000000000E+00  0.00000000000E+00  0.25740200744E+03  0.25740200744E+03  0.00000000000E+00 0. -1.
         21   -1    0    0  502  503 -0.00000000000E+00 -0.00000000000E+00 -0.23270768559E+03  0.23270768559E+03  0.00000000000E+00 0. -1.
         -6    2    1    2    0  503 -0.65449413386E+02 -0.61857609236E+02 -0.13591977419E+03  0.23631608648E+03  0.17105881498E+03 0.  0.
        -24    2    3    3    0    0 -0.33118446223E+02  0.31245239180E+02 -0.84124284946E+02  0.12487868465E+03  0.80278852203E+02 0.  0.
          6    2    1    2  501    0  0.65449413386E+02  0.61857609236E+02  0.16061409604E+03  0.25379360654E+03  0.17465485204E+03 0.  0.
         24    2    5    5    0    0  0.47907051080E+02  0.11148406744E+03  0.12178491536E+03  0.18821681871E+03  0.76617376624E+02 0.  0.
          5    1    5    5  501    0  0.17542362306E+02 -0.49626458208E+02  0.38829180679E+02  0.65576787828E+02  0.47000000000E+01 0. -1.
        -11    1    6    6    0    0  0.12800609897E+02  0.47207177997E+02  0.10078449087E+03  0.11202627758E+03  0.00000000000E+00 0.  1.
         12    1    6    6    0    0  0.35106441183E+02  0.64276889447E+02  0.21000424486E+02  0.76190541133E+02  0.00000000000E+00 0. -1.
         -5    1    3    3    0  503 -0.32330967163E+02 -0.93102848416E+02 -0.51795489239E+02  0.11143740183E+03  0.47000000000E+01 0.  1.
         13    1    4    4    0    0 -0.39747760325E+02 -0.17235748381E+02 -0.41245241304E+02  0.59817433942E+02  0.00000000000E+00 0. -1.
        -14    1    4    4    0    0  0.66293141019E+01  0.48480987561E+02 -0.42879043642E+02  0.65061250711E+02  0.00000000000E+00 0.  1.
</event>
<event>
12    1  0.8453150E-002  0.1782306E+03  0.7818608E-02  0.1171112E+00
         21   -1    0    0  501  502  0.00000000000E+00  0.00000000000E+00  0.16545035541E+03  0.16545035541E+03  0.00000000000E+00 0.  1.
         21   -1    0    0  502  503 -0.00000000000E+00 -0.00000000000E+00 -0.21246000909E+03  0.21246000909E+03  0.00000000000E+00 0.  1.
         -6    2    1    2    0  503  0.48665062348E+02 -0.23040647665E+01 -0.90779008440E+02  0.19438410010E+03  0.16483553315E+03 0.  0.
        -24    2    3    3    0    0  0.30341981656E+02  0.60994951949E+02 -0.64623163429E+02  0.12332976152E+03  0.79956593287E+02 0.  0.
          6    2    1    2  501    0 -0.48665062348E+02  0.23040647665E+01  0.43769354758E+02  0.18352626439E+03  0.17144251602E+03 0.  0.
         24    2    5    5    0    0  0.12440997329E+01  0.32111793812E+02 -0.27791750828E+02  0.91208839153E+02  0.80709081518E+02 0.  0.
          5    1    5    5  501    0 -0.49909162081E+02 -0.29807729046E+02  0.71561105586E+02  0.92317425241E+02  0.47000000000E+01 0. -1.
        -11    1    6    6    0    0 -0.35028221846E+02  0.10868773605E+02  0.61416943559E+01  0.37186381579E+02  0.00000000000E+00 0.  1.
         12    1    6    6    0    0  0.36272321579E+02  0.21243020207E+02 -0.33933445183E+02  0.54022457574E+02  0.00000000000E+00 0. -1.
         -5    1    3    3    0  503  0.18323080691E+02 -0.63299016716E+02 -0.26155845011E+02  0.71054338583E+02  0.47000000000E+01 0.  1.
         13    1    4    4    0    0 -0.88378109308E+01  0.48863521725E+02 -0.65634754574E+02  0.82302318712E+02  0.00000000000E+00 0. -1.
        -14    1    4    4    0    0  0.39179792587E+02  0.12131430225E+02  0.10115911445E+01  0.41027442805E+02  0.00000000000E+00 0.  1.
</event>
<event>
12    1  0.8453150E-002  0.2165870E+03  0.7818608E-02  0.1136814E+00
         21   -1    0    0  501  502  0.00000000000E+00  0.00000000000E+00  0.42079531007E+03  0.42079531007E+03  0.00000000000E+00 0.  1.
         21   -1    0    0  502  503 -0.00000000000E+00 -0.00000000000E+00 -0.42475211143E+03  0.42475211143E+03  0.00000000000E+00 0.  1.
         -6    2    1    2    0  503 -0.10803435453E+03 -0.67595232980E+02 -0.36561552661E+03  0.42399437883E+03  0.17278883847E+03 0.  0.
        -24    2    3    3    0    0 -0.35874620780E+02 -0.90033821906E+01 -0.56297956322E+02  0.10097815409E+03  0.75226846346E+02 0.  0.
          6    2    1    2  501    0  0.10803435453E+03  0.67595232980E+02  0.36165872525E+03  0.42155304266E+03  0.17512680247E+03 0.  0.
         24    2    5    5    0    0  0.40392247771E+02 -0.28627749121E+02  0.20729914340E+03  0.22743120618E+03  0.79378441576E+02 0.  0.
          5    1    5    5  501    0  0.67642106757E+02  0.96222982101E+02  0.15435958185E+03  0.19412183648E+03  0.47000000000E+01 0. -1.
        -11    1    6    6    0    0  0.14091740394E+02  0.19811682855E+02  0.13139531140E+03  0.13362562547E+03  0.00000000000E+00 0.  1.
         12    1    6    6    0    0  0.26300507377E+02 -0.48439431975E+02  0.75903832004E+02  0.93805580705E+02  0.00000000000E+00 0. -1.
         -5    1    3    3    0  503 -0.72159733748E+02 -0.58591850790E+02 -0.30931757029E+03  0.32301622474E+03  0.47000000000E+01 0.  1.
         11    1    4    4    0    0 -0.49181803545E+02  0.18146312508E+02 -0.27389971781E+02  0.59146842788E+02  0.00000000000E+00 0. -1.
        -12    1    4    4    0    0  0.13307182766E+02 -0.27149694698E+02 -0.28907984540E+02  0.41831311306E+02  0.00000000000E+00 0.  1.
</event>
<event>
12    1  0.8453150E-002  0.2224917E+03  0.7818608E-02  0.1132473E+00
         21   -1    0    0  503  502  0.00000000000E+00  0.00000000000E+00  0.41047277683E+03  0.41047277683E+03  0.00000000000E+00 0. -1.
         21   -1    0    0  501  503 -0.00000000000E+00 -0.00000000000E+00 -0.11935570129E+03  0.11935570129E+03  0.00000000000E+00 0. -1.
          6    2    1    2  501    0  0.13676945069E+03 -0.13212033916E+02  0.14868884639E+03  0.26565365191E+03  0.17199723617E+03 0.  0.
         24    2    3    3    0    0  0.14805813226E+03  0.26762447339E+02  0.14426764739E+03  0.22361759020E+03  0.80958220398E+02 0.  0.
         -6    2    1    2    0  502 -0.13676945069E+03  0.13212033916E+02  0.14242822915E+03  0.26417482621E+03  0.17499170797E+03 0.  0.
        -24    2    5    5    0    0 -0.15103357867E+03  0.54471143490E+02  0.95985280180E+02  0.20026225328E+03  0.71509081368E+02 0.  0.
          5    1    3    3  501    0 -0.11288681567E+02 -0.39974481255E+02  0.44211990047E+01  0.42036061706E+02  0.47000000000E+01 0. -1.
        -11    1    4    4    0    0  0.16375278630E+02  0.98871096293E+01  0.67721439844E+02  0.70371145376E+02  0.00000000000E+00 0.  1.
         12    1    4    4    0    0  0.13168285363E+03  0.16875337710E+02  0.76546207542E+02  0.15324644483E+03  0.00000000000E+00 0. -1.
         -5    1    5    5    0  502  0.14264127973E+02 -0.41259109574E+02  0.46442948968E+02  0.63912572930E+02  0.47000000000E+01 0.  1.
         11    1    6    6    0    0 -0.64223120387E+02  0.12243453402E+02  0.78491291260E+02  0.10215377696E+03  0.00000000000E+00 0. -1.
        -12    1    6    6    0    0 -0.86810458279E+02  0.42227690088E+02  0.17493988920E+02  0.98108476316E+02  0.00000000000E+00 0.  1.
</event>
<event>
12    1  0.8453150E-002  0.1842682E+03  0.7818608E-02  0.1164998E+00
         21   -1    0    0  501  502  0.00000000000E+00  0.00000000000E+00  0.22876019083E+02  0.22876019083E+02  0.00000000000E+00 0. -1.
         21   -1    0    0  502  503 -0.00000000000E+00 -0.00000000000E+00 -0.18188866503E+04  0.18188866503E+04  0.00000000000E+00 0. -1.
         -6    2    1    2    0  503  0.62854552609E+02 -0.21598813038E+02 -0.46843687487E+03  0.50146163503E+03  0.16617298867E+03 0.  0.
        -24    2    3    3    0    0  0.18523102025E+02  0.48794810998E+02 -0.27369325485E+03  0.28964164694E+03  0.79121722710E+02 0.  0.
          6    2    1    2  501    0 -0.62854552609E+02  0.21598813038E+02 -0.13275737563E+04  0.13403010343E+04  0.17186500700E+03 0.  0.
         24    2    5    5    0    0 -0.32651420416E+02  0.78196303250E+02 -0.73658622574E+03  0.74582323289E+03  0.80698510995E+02 0.  0.
          5    1    5    5  501    0 -0.30203132192E+02 -0.56597490212E+02 -0.59098753059E+03  0.59447780144E+03  0.47000000000E+01 0. -1.
        -11    1    6    6    0    0 -0.22478118140E+02  0.25476169953E+02 -0.78330277979E+02  0.85381107271E+02  0.00000000000E+00 0.  1.
         12    1    6    6    0    0 -0.10173302276E+02  0.52720133297E+02 -0.65825594776E+03  0.66044212562E+03  0.00000000000E+00 0. -1.
         -5    1    3    3    0  503  0.44331450584E+02 -0.70393624036E+02 -0.19474362002E+03  0.21181998809E+03  0.47000000000E+01 0.  1.
         13    1    4    4    0    0  0.26818581006E+02 -0.31078172058E+01 -0.30064723211E+02  0.40407702196E+02  0.00000000000E+00 0. -1.
        -14    1    4    4    0    0 -0.82954789809E+01  0.51902628204E+02 -0.24362853164E+03  0.24923394475E+03  0.00000000000E+00 0.  1.
</event>
<event>
12    1  0.8453150E-002  0.2012289E+03  0.7818608E-02  0.1149054E+00
         21   -1    0    0  501  502  0.00000000000E+00  0.00000000000E+00  0.40398962279E+02  0.40398962279E+02  0.00000000000E+00 0.  1.
         21   -1    0    0  502  503 -0.00000000000E+00 -0.00000000000E+00 -0.10019979568E+04  0.10019979568E+04  0.00000000000E+00 0. -1.
         -6    2    1    2    0  503  0.17378584464E+02  0.10378281790E+03 -0.43648924741E+03  0.48064116538E+03  0.17152311294E+03 0.  0.
        -24    2    3    3    0    0  0.77056123959E+02  0.78266265422E+02 -0.30396975185E+03  0.33300644767E+03  0.80202428959E+02 0.  0.
          6    2    1    2  501    0 -0.17378584464E+02 -0.10378281790E+03 -0.52510974709E+03  0.56175575367E+03  0.16957709693E+03 0.  0.
         24    2    5    5    0    0  0.39838309123E+02 -0.11155352582E+03 -0.35517026036E+03  0.38221278955E+03  0.76872769282E+02 0.  0.
          5    1    5    5  501    0 -0.57216893587E+02  0.77707079206E+01 -0.16993948673E+03  0.17954296412E+03  0.47000000000E+01 0. -1.
        -13    1    6    6    0    0  0.26656520263E+02 -0.76976372451E+01 -0.31223480929E+02  0.41769958739E+02  0.00000000000E+00 0.  1.
         14    1    6    6    0    0  0.13181788860E+02 -0.10385588858E+03 -0.32394677943E+03  0.34044283081E+03  0.00000000000E+00 0. -1.
         -5    1    3    3    0  503 -0.59677539495E+02  0.25516552479E+02 -0.13251949556E+03  0.14763471771E+03  0.47000000000E+01 0.  1.
         13    1    4    4    0    0  0.17567611824E+02  0.54158077725E+02 -0.22037466435E+03  0.22761087640E+03  0.00000000000E+00 0. -1.
        -14    1    4    4    0    0  0.59488512136E+02  0.24108187697E+02 -0.83595087491E+02  0.10539557127E+03  0.00000000000E+00 0.  1.
</event>
<event>
12    1  0.8453150E-002  0.1785488E+03  0.7818608E-02  0.1169887E+00
         21   -1    0    0  503  502  0.00000000000E+00  0.00000000000E+00  0.13877163710E+04  0.13877163710E+04  0.00000000000E+00 0. -1.
         21   -1    0    0  501  503 -0.00000000000E+00 -0.00000000000E+00 -0.30456236166E+02  0.30456236166E+02  0.00000000000E+00 0. -1.
          6    2    1    2  501    0 -0.30134917353E+02  0.25019686667E+02  0.31516307343E+03  0.36089026262E+03  0.17140571996E+03 0.  0.
         24    2    3    3    0    0 -0.81476207067E+02  0.77219054995E+01  0.25825663721E+03  0.28217829564E+03  0.78930980757E+02 0.  0.
         -6    2    1    2    0  502  0.30134917353E+02 -0.25019686667E+02  0.10420970614E+04  0.10572823445E+04  0.17419980696E+03 0.  0.
        -24    2    5    5    0    0  0.63598628174E+02  0.61023207327E+01  0.93690776258E+03  0.94249873128E+03  0.80160333511E+02 0.  0.
          5    1    3    3  501    0  0.51341289713E+02  0.17297781167E+02  0.56906436223E+02  0.78711966983E+02  0.47000000000E+01 0. -1.
        -11    1    4    4    0    0  0.18749067510E+01  0.25099081102E+02  0.92096752882E+02  0.95474033323E+02  0.00000000000E+00 0.  1.
         12    1    4    4    0    0 -0.83351113818E+02 -0.17377175603E+02  0.16615988433E+03  0.18670426231E+03  0.00000000000E+00 0. -1.
         -5    1    5    5    0  502 -0.33463710821E+02 -0.31122007400E+02  0.10518929881E+03  0.11478361325E+03  0.47000000000E+01 0.  1.
         11    1    6    6    0    0  0.62641806072E+02 -0.26784458018E+02  0.55222508226E+03  0.55641166822E+03  0.00000000000E+00 0. -1.
        -12    1    6    6    0    0  0.95682210222E+00  0.32886778750E+02  0.38468268032E+03  0.38608706306E+03  0.00000000000E+00 0.  1.
</event>
<event>
12    1  0.8453150E-002  0.1913549E+03  0.7818608E-02  0.1157438E+00
         21   -1    0    0  501  502  0.00000000000E+00  0.00000000000E+00  0.23624687439E+03  0.23624687439E+03  0.00000000000E+00 0. -1.
         21   -1    0    0  502  503 -0.00000000000E+00 -0.00000000000E+00 -0.19318143025E+03  0.19318143025E+03  0.00000000000E+00 0. -1.
         -6    2    1    2    0  503 -0.79687947002E+01 -0.82115159665E+02 -0.74840274728E+02  0.20466521065E+03  0.17169851657E+03 0.  0.
        -24    2    3    3    0    0  0.30461820321E+02 -0.10330400128E+03 -0.86799590383E+02  0.15893781831E+03  0.78277851403E+02 0.  0.
          6    2    1    2  501    0  0.79687947002E+01  0.82115159665E+02  0.11790571887E+03  0.22476309398E+03  0.17265656298E+03 0.  0.
         24    2    5    5    0    0  0.49090564703E+02  0.86193969756E+02  0.12901348997E+03  0.18171533865E+03  0.80849859270E+02 0.  0.
          5    1    5    5  501    0 -0.41121770003E+02 -0.40788100901E+01 -0.11107771099E+02  0.43047755327E+02  0.47000000000E+01 0. -1.
        -13    1    6    6    0    0  0.10512807486E+02  0.24761584425E+02 -0.67964517625E+01  0.27746115783E+02  0.00000000000E+00 0.  1.
         14    1    6    6    0    0  0.38577757218E+02  0.61432385330E+02  0.13580994173E+03  0.15396922287E+03  0.00000000000E+00 0. -1.
         -5    1    3    3    0  503 -0.38430615021E+02  0.21188841611E+02  0.11959315655E+02  0.45727392345E+02  0.47000000000E+01 0.  1.
         13    1    4    4    0    0 -0.11168045459E+02 -0.63915456035E+02 -0.77172736566E+02  0.10082431269E+03  0.00000000000E+00 0. -1.
        -14    1    4    4    0    0  0.41629865780E+02 -0.39388545242E+02 -0.96268538172E+01  0.58113505620E+02  0.00000000000E+00 0.  1.
</event>
<event>
12    1  0.8453150E-002  0.1870552E+03  0.7818608E-02  0.1161728E+00
         21   -1    0    0  503  502  0.00000000000E+00  0.00000000000E+00  0.12457799560E+03  0.12457799560E+03  0.00000000000E+00 0. -1.
         21   -1    0    0  501  503 -0.00000000000E+00 -0.00000000000E+00 -0.27978271545E+03  0.27978271545E+03  0.00000000000E+00 0. -1.
          6    2    1    2  501    0  0.12381923114E+00 -0.73054830964E+02 -0.96884892846E+02  0.20842486011E+03  0.16946154783E+03 0.  0.
         24    2    3    3    0    0 -0.19707142153E+01  0.14102554094E+02 -0.87884291524E+02  0.12065301004E+03  0.81429321432E+02 0.  0.
         -6    2    1    2    0  502 -0.12381923114E+00  0.73054830964E+02 -0.58319827005E+02  0.19593585093E+03  0.17219939547E+03 0.  0.
        -24    2    5    5    0    0 -0.22415822946E+01 -0.14285197920E+02  0.15637085134E+02  0.81373726220E+02  0.78537082431E+02 0.  0.
          5    1    3    3  501    0  0.20945334465E+01 -0.87157385057E+02 -0.90006013222E+01  0.87771850069E+02  0.47000000000E+01 0. -1.
        -11    1    4    4    0    0  0.37896197717E+02  0.58362952035E+01 -0.25117629448E+02  0.45837533225E+02  0.00000000000E+00 0.  1.
         12    1    4    4    0    0 -0.39866911932E+02  0.82662588903E+01 -0.62766662077E+02  0.74815476816E+02  0.00000000000E+00 0. -1.
         -5    1    5    5    0  502  0.21177630635E+01  0.87340028883E+02 -0.73956912139E+02  0.11456212471E+03  0.47000000000E+01 0.  1.
         11    1    6    6    0    0  0.19099339742E+01  0.16145412306E+02  0.39347295262E+02  0.42573839747E+02  0.00000000000E+00 0. -1.
        -12    1    6    6    0    0 -0.41515162688E+01 -0.30430610226E+02 -0.23710210128E+02  0.38799886474E+02  0.00000000000E+00 0.  1.
</event>
<event>
12    1  0.8453150E-002  0.1865030E+03  0.7818608E-02  0.1165993E+00
         21   -1    0    0  501  502  0.00000000000E+00  0.00000000000E+00  0.13204900791E+03  0.13204900791E+03  0.00000000000E+00 0. -1.
         21   -1    0    0  502  503 -0.00000000000E+00 -0.00000000000E+00 -0.26144084469E+03  0.26144084469E+03  0.00000000000E+00 0. -1.
         -6    2    1    2    0  503  0.15817674769E+02  0.73773356328E+02 -0.39892941278E+01  0.16874737524E+03  0.15088755828E+03 0.  0.
        -24    2    3    3    0    0  0.27761637484E+02  0.10222565734E+03  0.12264948879E+02  0.13355530093E+03  0.80410172878E+02 0.  0.
          6    2    1    2  501    0 -0.15817674769E+02 -0.73773356328E+02 -0.12540254266E+03  0.22474247736E+03  0.17055989120E+03 0.  0.
         24    2    5    5    0    0  0.49300368939E+02 -0.78611640004E+02 -0.80214762241E+02  0.14519504432E+03  0.77697339024E+02 0.  0.
          5    1    5    5  501    0 -0.65118043708E+02  0.48382836767E+01 -0.45187780417E+02  0.79547433047E+02  0.47000000000E+01 0. -1.
        -11    1    6    6    0    0  0.92017140779E+01 -0.13993140191E+02 -0.65664566761E+02  0.67766620414E+02  0.00000000000E+00 0.  1.
         12    1    6    6    0    0  0.40098654861E+02 -0.64618499813E+02 -0.14550195480E+02  0.77428423904E+02  0.00000000000E+00 0. -1.
         -5    1    3    3    0  503 -0.11943962714E+02 -0.28452301010E+02 -0.16254243007E+02  0.35192074303E+02  0.47000000000E+01 0.  1.
         13    1    4    4    0    0 -0.21186728946E+02  0.72885644994E+02  0.81531667818E+01  0.76339169881E+02  0.00000000000E+00 0. -1.
        -14    1    4    4    0    0  0.48948366429E+02  0.29340012344E+02  0.41117820971E+01  0.57216131051E+02  0.00000000000E+00 0.  1.
</event>
<event>
12    1  0.8453150E-002  0.2320459E+03  0.7818608E-02  0.1125373E+00
         21   -1    0    0  501  502  0.00000000000E+00  0.00000000000E+00  0.46671555800E+03  0.46671555800E+03  0.00000000000E+00 0.  1.
         21   -1    0    0  502  503 -0.00000000000E+00 -0.00000000000E+00 -0.13946014572E+03  0.13946014572E+03  0.00000000000E+00 0. -1.
         -6    2    1    2    0  503  0.34519882009E+02  0.15145698567E+03  0.29109698318E+03  0.37226703338E+03  0.17237879731E+03 0.  0.
        -24    2    3    3    0    0 -0.21290980083E+02  0.74214058611E+02  0.23055518873E+03  0.25926826797E+03  0.90018372551E+02 0.  0.
          6    2    1    2  501    0 -0.34519882009E+02 -0.15145698567E+03  0.36158429096E+02  0.23390867034E+03  0.17109936674E+03 0.  0.
         24    2    5    5    0    0 -0.67645698703E+01 -0.11912007574E+02  0.43981065006E+02  0.91337839176E+02  0.78870853022E+02 0.  0.
          5    1    5    5  501    0 -0.27755312138E+02 -0.13954497810E+03 -0.78226359099E+01  0.14257083116E+03  0.47000000000E+01 0. -1.
        -13    1    6    6    0    0  0.21214373428E+02 -0.23543450964E+02  0.51176819594E+02  0.60194772090E+02  0.00000000000E+00 0.  1.
         14    1    6    6    0    0 -0.27978943299E+02  0.11631443390E+02 -0.71957545878E+01  0.31143067086E+02  0.00000000000E+00 0. -1.
         -5    1    3    3    0  503  0.55810862092E+02  0.77242927064E+02  0.60541794446E+02  0.11299876541E+03  0.47000000000E+01 0.  1.
         11    1    4    4    0    0 -0.18100223191E+02  0.65049033638E+01  0.16100624389E+03  0.16215098649E+03  0.00000000000E+00 0. -1.
        -12    1    4    4    0    0 -0.31907568930E+01  0.67709155247E+02  0.69548944840E+02  0.97117281481E+02  0.00000000000E+00 0.  1.
</event>
<event>
12    1  0.8453150E-002  0.2368650E+03  0.7818608E-02  0.1121974E+00
         21   -1    0    0  501  502  0.00000000000E+00  0.00000000000E+00  0.45579432101E+03  0.45579432101E+03  0.00000000000E+00 0. -1.
         21   -1    0    0  502  503 -0.00000000000E+00 -0.00000000000E+00 -0.12611375338E+03  0.12611375338E+03  0.00000000000E+00 0.  1.
         -6    2    1    2    0  503 -0.19764944280E+02 -0.16299452404E+03  0.21170451975E+03  0.31768510502E+03  0.17072537709E+03 0.  0.
        -24    2    3    3    0    0  0.91220344204E+01 -0.16519130451E+03  0.22194315913E+03  0.28660129703E+03  0.74230445089E+02 0.  0.
          6    2    1    2  501    0  0.19764944280E+02  0.16299452404E+03  0.11797604788E+03  0.26422296936E+03  0.17011043994E+03 0.  0.
         24    2    5    5    0    0 -0.47297700090E+02  0.49935563340E+02  0.83775869465E+02  0.12831318653E+03  0.68667638769E+02 0.  0.
          5    1    5    5  501    0  0.67062644370E+02  0.11305896070E+03  0.34200178413E+02  0.13590978282E+03  0.47000000000E+01 0. -1.
        -11    1    6    6    0    0  0.14952557034E+01  0.20553000137E+02 -0.64678925746E+01  0.21598500841E+02  0.00000000000E+00 0.  1.
         12    1    6    6    0    0 -0.48792955793E+02  0.29382563203E+02  0.90243762040E+02  0.10671468569E+03  0.00000000000E+00 0. -1.
         -5    1    3    3    0  503 -0.28886978701E+02  0.21967804704E+01 -0.10238639380E+02  0.31083807991E+02  0.47000000000E+01 0.  1.
         13    1    4    4    0    0  0.15517214550E+02 -0.78853034590E+02  0.16339041105E+03  0.18208517632E+03  0.00000000000E+00 0. -1.
        -14    1    4    4    0    0 -0.63951801299E+01 -0.86338269918E+02  0.58552748082E+02  0.10451612072E+03  0.00000000000E+00 0.  1.
</event>
<event>
12    1  0.8453150E-002  0.1749586E+03  0.7818608E-02  0.1172837E+00
         21   -1    0    0  503  502  0.00000000000E+00  0.00000000000E+00  0.22321926342E+03  0.22321926342E+03  0.00000000000E+00 0. -1.
         21   -1    0    0  501  503 -0.00000000000E+00 -0.00000000000E+00 -0.15769576959E+03  0.15769576959E+03  0.00000000000E+00 0. -1.
          6    2    1    2  501    0 -0.24477156911E+02 -0.22382211080E+02 -0.36366346764E+02  0.17845013205E+03  0.17152796818E+03 0.  0.
         24    2    3    3    0    0 -0.76344746959E+02  0.10167056535E+02 -0.35302387107E+02  0.11702600218E+03  0.80727549354E+02 0.  0.
         -6    2    1    2    0  502  0.24477156911E+02  0.22382211080E+02  0.10188984059E+03  0.20246490096E+03  0.17178591887E+03 0.  0.
        -24    2    5    5    0    0  0.69213417737E+02 -0.22317958727E+02  0.46141284712E+02  0.11802895070E+03  0.80704563514E+02 0.  0.
          5    1    3    3  501    0  0.51867590048E+02 -0.32549267615E+02 -0.10639596566E+01  0.61424129866E+02  0.47000000000E+01 0. -1.
        -11    1    4    4    0    0  0.15297726455E+02  0.52938179698E+01  0.47856688696E+01  0.16880390100E+02  0.00000000000E+00 0.  1.
         12    1    4    4    0    0 -0.91642473414E+02  0.48732385653E+01 -0.40088055977E+02  0.10014561208E+03  0.00000000000E+00 0. -1.
         -5    1    5    5    0  502 -0.44736260826E+02  0.44700169807E+02  0.55748555878E+02  0.84435950258E+02  0.47000000000E+01 0.  1.
         13    1    6    6    0    0  0.59544859430E+02  0.12930443673E+02  0.53098567809E+02  0.80822302376E+02  0.00000000000E+00 0. -1.
        -14    1    6    6    0    0  0.96685583076E+01 -0.35248402399E+02 -0.69572830963E+01  0.37206648324E+02  0.00000000000E+00 0.  1.
</event>
<event>
12    1  0.8453150E-002  0.2072958E+03  0.7818608E-02  0.1143837E+00
         21   -1    0    0  503  502  0.00000000000E+00  0.00000000000E+00  0.55675243661E+02  0.55675243661E+02  0.00000000000E+00 0. -1.
         21   -1    0    0  501  503 -0.00000000000E+00 -0.00000000000E+00 -0.94916429450E+03  0.94916429450E+03  0.00000000000E+00 0.  1.
          6    2    1    2  501    0  0.11234488969E+03  0.25817186214E+02 -0.66565458600E+03  0.69718547202E+03  0.17228944597E+03 0.  0.
         24    2    3    3    0    0  0.81813112373E+01  0.37728566558E+02 -0.29611873935E+03  0.31303606878E+03  0.93887666762E+02 0.  0.
         -6    2    1    2    0  502 -0.11234488969E+03 -0.25817186214E+02 -0.22783446484E+03  0.30765406614E+03  0.17162336584E+03 0.  0.
        -24    2    5    5    0    0  0.46096188005E+01 -0.60152501516E+01 -0.52737974320E+02  0.96108929776E+02  0.79988753131E+02 0.  0.
          5    1    3    3  501    0  0.10416357845E+03 -0.11911380344E+02 -0.36953584665E+03  0.38414940324E+03  0.47000000000E+01 0. -1.
        -11    1    4    4    0    0  0.46224169975E+02  0.28460839736E+02 -0.22886349206E+03  0.23521307635E+03  0.00000000000E+00 0.  1.
         12    1    4    4    0    0 -0.38042858738E+02  0.92677268217E+01 -0.67255247291E+02  0.77822992423E+02  0.00000000000E+00 0. -1.
         -5    1    5    5    0  502 -0.11695450849E+03 -0.19801936062E+02 -0.17509649052E+03  0.21154513637E+03  0.47000000000E+01 0.  1.
         13    1    6    6    0    0 -0.64212885706E+01  0.15999076038E+02  0.15736442017E+02  0.23341786314E+02  0.00000000000E+00 0. -1.
        -14    1    6    6    0    0  0.11030907371E+02 -0.22014326190E+02 -0.68474416336E+02  0.72767143462E+02  0.00000000000E+00 0.  1.
</event>
<event>
12    1  0.8453150E-002  0.2188019E+03  0.7818608E-02  0.1135582E+00
         21   -1    0    0  503  502  0.00000000000E+00  0.00000000000E+00  0.17200640954E+03  0.17200640954E+03  0.00000000000E+00 0.  1.
         21   -1    0    0  501  503 -0.00000000000E+00 -0.00000000000E+00 -0.99715938084E+03  0.99715938084E+03  0.00000000000E+00 0.  1.
          6    2    1    2  501    0 -0.50192585585E+02  0.12108377913E+03 -0.90965073944E+03  0.93461485118E+03  0.16988194454E+03 0.  0.
         24    2    3    3    0    0  0.29070019421E+02  0.43478507152E+02 -0.55360548257E+03  0.56165982209E+03  0.79039729275E+02 0.  0.
         -6    2    1    2    0  502  0.50192585585E+02 -0.12108377913E+03  0.84497768133E+02  0.23455093920E+03  0.17519615591E+03 0.  0.
        -24    2    5    5    0    0  0.84371194301E+02 -0.13716285296E+03  0.78401198596E+02  0.19600263095E+03  0.79612415729E+02 0.  0.
          5    1    3    3  501    0 -0.79262605006E+02  0.77605271977E+02 -0.35604525687E+03  0.37295502910E+03  0.47000000000E+01 0. -1.
        -13    1    4    4    0    0  0.19219159464E+02  0.14915700821E+02 -0.49613556616E+03  0.49673167227E+03  0.00000000000E+00 0.  1.
         14    1    4    4    0    0  0.98508599572E+01  0.28562806331E+02 -0.57469916406E+02  0.64928149821E+02  0.00000000000E+00 0. -1.
         -5    1    5    5    0  502 -0.34178608716E+02  0.16079073828E+02  0.60965695368E+01  0.38548308251E+02  0.47000000000E+01 0.  1.
         11    1    6    6    0    0  0.29602272298E+02 -0.48198086748E+02 -0.12030328365E+02  0.57828011308E+02  0.00000000000E+00 0. -1.
        -12    1    6    6    0    0  0.54768922003E+02 -0.88964766209E+02  0.90431526961E+02  0.13817461964E+03  0.00000000000E+00 0.  1.
</event>
<event>
12    1  0.8453150E-002  0.2241793E+03  0.7818608E-02  0.1130900E+00
         21   -1    0    0  501  502  0.00000000000E+00  0.00000000000E+00  0.72490142448E+03  0.72490142448E+03  0.00000000000E+00 0.  1.
         21   -1    0    0  502  503 -0.00000000000E+00 -0.00000000000E+00 -0.86103590991E+02  0.86103590991E+02  0.00000000000E+00 0. -1.
         -6    2    1    2    0  503 -0.29149151186E+01 -0.14193624340E+03  0.13985459634E+03  0.26422654368E+03  0.17349917680E+03 0.  0.
        -24    2    3    3    0    0 -0.47434021007E+02 -0.14355070851E+03  0.13711499238E+03  0.21934723089E+03  0.80348579961E+02 0.  0.
          6    2    1    2  501    0  0.29149151186E+01  0.14193624340E+03  0.49894323715E+03  0.54677847179E+03  0.17282346310E+03 0.  0.
         24    2    5    5    0    0 -0.58042597449E+02  0.55956029876E+02  0.20015263347E+03  0.22990889246E+03  0.79353649889E+02 0.  0.
          5    1    5    5  501    0  0.60957512568E+02  0.85980213519E+02  0.29879060368E+03  0.31686957933E+03  0.47000000000E+01 0. -1.
        -11    1    6    6    0    0 -0.57136443106E+02  0.12800054249E+02  0.62480851619E+02  0.85628682919E+02  0.00000000000E+00 0.  1.
         12    1    6    6    0    0 -0.90615434356E+00  0.43155975627E+02  0.13767178185E+03  0.14428020954E+03  0.00000000000E+00 0. -1.
         -5    1    3    3    0  503  0.44519105888E+02  0.16144651176E+01  0.27396039638E+01  0.44879312791E+02  0.47000000000E+01 0.  1.
         11    1    4    4    0    0 -0.55457282443E+02 -0.43412316234E+02  0.49936527411E+02  0.86335370194E+02  0.00000000000E+00 0. -1.
        -12    1    4    4    0    0  0.80232614356E+01 -0.10013839228E+03  0.87178464967E+02  0.13301186070E+03  0.00000000000E+00 0.  1.
</event>
<event>
12    1  0.8453150E-002  0.1952263E+03  0.7818608E-02  0.1155804E+00
         21   -1    0    0  501  502  0.00000000000E+00  0.00000000000E+00  0.84462911334E+02  0.84462911334E+02  0.00000000000E+00 0.  1.
         21   -1    0    0  502  503 -0.00000000000E+00 -0.00000000000E+00 -0.56008744907E+03  0.56008744907E+03  0.00000000000E+00 0.  1.
         -6    2    1    2    0  503 -0.71170196416E+02  0.19140888448E+01 -0.38823758828E+03  0.43065838276E+03  0.17224795237E+03 0.  0.
        -24    2    3    3    0    0 -0.51478471590E+01 -0.53407178234E+02 -0.22736743331E+03  0.24811882554E+03  0.83595303920E+02 0.  0.
          6    2    1    2  501    0  0.71170196416E+02 -0.19140888448E+01 -0.87386949457E+02  0.21389197764E+03  0.18178129323E+03 0.  0.
         24    2    5    5    0    0  0.19214845327E+02  0.70231901988E+02 -0.35809736371E+02  0.11100028016E+03  0.75742951090E+02 0.  0.
          5    1    5    5  501    0  0.51955351089E+02 -0.72145990833E+02 -0.51577213086E+02  0.10289169748E+03  0.47000000000E+01 0. -1.
        -13    1    6    6    0    0  0.36939831536E+02  0.15040844862E+02 -0.34943000310E+02  0.53026327788E+02  0.00000000000E+00 0.  1.
         14    1    6    6    0    0 -0.17724986208E+02  0.55191057126E+02 -0.86673606146E+00  0.57973952377E+02  0.00000000000E+00 0. -1.
         -5    1    3    3    0  503 -0.66022349257E+02  0.55321267079E+02 -0.16087015496E+03  0.18253955722E+03  0.47000000000E+01 0.  1.
         11    1    4    4    0    0 -0.30823606476E+02 -0.64404116214E+02 -0.16392110199E+03  0.17879628793E+03  0.00000000000E+00 0. -1.
        -12    1    4    4    0    0  0.25675759317E+02  0.10996937979E+02 -0.63446331327E+02  0.69322537607E+02  0.00000000000E+00 0.  1.
</event>
<event>
12    1  0.8453150E-002  0.1829193E+03  0.7818608E-02  0.1165423E+00
         21   -1    0    0  501  502  0.00000000000E+00  0.00000000000E+00  0.29197635565E+03  0.29197635565E+03  0.00000000000E+00 0. -1.
         21   -1    0    0  502  503 -0.00000000000E+00 -0.00000000000E+00 -0.14015185375E+03  0.14015185375E+03  0.00000000000E+00 0. -1.
         -6    2    1    2    0  503  0.54718666382E+02  0.32375379656E+02 -0.18595427353E+02  0.18212334101E+03  0.16964911955E+03 0.  0.
        -24    2    3    3    0    0  0.49412412330E+02  0.13402655827E+02 -0.76117721061E+02  0.12113953287E+03  0.79118021267E+02 0.  0.
          6    2    1    2  501    0 -0.54718666382E+02 -0.32375379656E+02  0.17041992925E+03  0.25000486839E+03  0.17151438503E+03 0.  0.
         24    2    5    5    0    0  0.29179880779E+01  0.18130408148E+02  0.14955174396E+03  0.17044112227E+03  0.79669477751E+02 0.  0.
          5    1    5    5  501    0 -0.57636654460E+02 -0.50505787805E+02  0.20868185293E+02  0.79563746119E+02  0.47000000000E+01 0. -1.
        -11    1    6    6    0    0  0.40392121142E+02  0.16937008306E+02  0.71451987483E+02  0.83807948406E+02  0.00000000000E+00 0.  1.
         12    1    6    6    0    0 -0.37474133064E+02  0.11933998425E+01  0.78099756475E+02  0.86633173863E+02  0.00000000000E+00 0. -1.
         -5    1    3    3    0  503  0.53062540518E+01  0.18972723830E+02  0.57522293708E+02  0.60983808138E+02  0.47000000000E+01 0.  1.
         11    1    4    4    0    0  0.63515113277E+02  0.20580444228E+02 -0.31548832958E+02  0.73844791016E+02  0.00000000000E+00 0. -1.
        -12    1    4    4    0    0 -0.14102700947E+02 -0.71777884017E+01 -0.44568888103E+02  0.47294741855E+02  0.00000000000E+00 0.  1.
</event>
<event>
12    1  0.8453150E-002  0.6074698E+03  0.7818608E-02  0.9890080E-01
         21   -1    0    0  501  502  0.00000000000E+00  0.00000000000E+00  0.14640309339E+04  0.14640309339E+04  0.00000000000E+00 0. -1.
         21   -1    0    0  502  503 -0.00000000000E+00 -0.00000000000E+00 -0.25201647972E+03  0.25201647972E+03  0.00000000000E+00 0. -1.
         -6    2    1    2    0  503 -0.38854571171E+03  0.43417592599E+03  0.60775494440E+03  0.85922240261E+03  0.17152422543E+03 0.  0.
        -24    2    3    3    0    0 -0.14572594036E+03  0.11177003317E+03  0.24615950874E+03  0.31729957584E+03  0.79724068368E+02 0.  0.
          6    2    1    2  501    0  0.38854571171E+03 -0.43417592599E+03  0.60425950983E+03  0.85682501105E+03  0.17188088767E+03 0.  0.
         24    2    5    5    0    0  0.24347843720E+03 -0.19664742809E+03  0.38349342181E+03  0.50154475960E+03  0.80795921687E+02 0.  0.
          5    1    5    5  501    0  0.14506727451E+03 -0.23752849790E+03  0.22076608802E+03  0.35528025145E+03  0.47000000000E+01 0. -1.
        -11    1    6    6    0    0  0.50034492786E+02 -0.40248294355E+01  0.62684756133E+02  0.80305842701E+02  0.00000000000E+00 0.  1.
         12    1    6    6    0    0  0.19344394442E+03 -0.19262259865E+03  0.32080866567E+03  0.42123891690E+03  0.00000000000E+00 0. -1.
         -5    1    3    3    0  503 -0.24281977136E+03  0.32240589282E+03  0.36159543566E+03  0.54192282677E+03  0.47000000000E+01 0.  1.
         11    1    4    4    0    0 -0.99505721154E+02  0.69198255598E+02  0.96309063518E+02  0.15480705034E+03  0.00000000000E+00 0. -1.
        -12    1    4    4    0    0 -0.46220219203E+02  0.42571777569E+02  0.14985044523E+03  0.16249252550E+03  0.00000000000E+00 0.  1.
</event>
<event>
12    1  0.8453150E-002  0.2323504E+03  0.7818608E-02  0.1125093E+00
         21   -1    0    0  501  502  0.00000000000E+00  0.00000000000E+00  0.76523475434E+03  0.76523475434E+03  0.00000000000E+00 0.  1.
         21   -1    0    0  502  503 -0.00000000000E+00 -0.00000000000E+00 -0.46240838109E+03  0.46240838109E+03  0.00000000000E+00 0.  1.
         -6    2    1    2    0  503 -0.15550706237E+03 -0.19724356559E+01 -0.41374036597E+03  0.47451848637E+03  0.17262782662E+03 0.  0.
        -24    2    3    3    0    0 -0.57680328880E+02  0.12000776823E+02 -0.85815167068E+02  0.13199498860E+03  0.81162769367E+02 0.  0.
          6    2    1    2  501    0  0.15550706237E+03  0.19724356559E+01  0.71656673922E+03  0.75312464906E+03  0.17187934232E+03 0.  0.
         24    2    5    5    0    0  0.10592223387E+03 -0.36552789400E+02  0.63581868050E+03  0.65072744612E+03  0.81395261658E+02 0.  0.
          5    1    5    5  501    0  0.49584828499E+02  0.38525225056E+02  0.80748058718E+02  0.10239720294E+03  0.47000000000E+01 0. -1.
        -11    1    6    6    0    0  0.89909230396E+02 -0.50300034662E+01  0.30474373109E+03  0.31776990462E+03  0.00000000000E+00 0.  1.
         12    1    6    6    0    0  0.16013003477E+02 -0.31522785934E+02  0.33107494941E+03  0.33295754150E+03  0.00000000000E+00 0. -1.
         -5    1    3    3    0  503 -0.97826733492E+02 -0.13973212478E+02 -0.32792519890E+03  0.34252349778E+03  0.47000000000E+01 0.  1.
         13    1    4    4    0    0 -0.16255602079E+02 -0.26764254880E+02 -0.63928367654E+02  0.71185715767E+02  0.00000000000E+00 0. -1.
        -14    1    4    4    0    0 -0.41424726800E+02  0.38765031703E+02 -0.21886799414E+02  0.60809272829E+02  0.00000000000E+00 0.  1.
</event>
<event>
12    1  0.8453150E-002  0.1733606E+03  0.7818608E-02  0.1174402E+00
         21   -1    0    0  501  502  0.00000000000E+00  0.00000000000E+00  0.19157490436E+03  0.19157490436E+03  0.00000000000E+00 0.  1.
         21   -1    0    0  502  503 -0.00000000000E+00 -0.00000000000E+00 -0.21928712985E+03  0.21928712985E+03  0.00000000000E+00 0.  1.
         -6    2    1    2    0  503  0.42710712839E+01  0.16220145923E+02 -0.12349250864E+03  0.21280201878E+03  0.17249047603E+03 0.  0.
        -24    2    3    3    0    0  0.30985077111E+02 -0.37264486313E+02 -0.18198240011E+02  0.91627693940E+02  0.75602522534E+02 0.  0.
          6    2    1    2  501    0 -0.42710712839E+01 -0.16220145923E+02  0.95780283159E+02  0.19806001543E+03  0.17254730333E+03 0.  0.
         24    2    5    5    0    0 -0.47240073032E+02 -0.25588227653E+02  0.11506673826E+03  0.14980907329E+03  0.79473406196E+02 0.  0.
          5    1    5    5  501    0  0.42969001748E+02  0.93680817298E+01 -0.19286455104E+02  0.48250942136E+02  0.47000000000E+01 0. -1.
        -13    1    6    6    0    0  0.16001350291E+02  0.21614182721E+01  0.64343635143E+00  0.16159484843E+02  0.00000000000E+00 0.  1.
         14    1    6    6    0    0 -0.63241423323E+02 -0.27749645925E+02  0.11442330191E+03  0.13364958845E+03  0.00000000000E+00 0. -1.
         -5    1    3    3    0  503 -0.26714005827E+02  0.53484632236E+02 -0.10529426863E+03  0.12117432484E+03  0.47000000000E+01 0.  1.
         11    1    4    4    0    0 -0.19762866799E+02 -0.26597250461E+02 -0.21770749999E+02  0.39647827074E+02  0.00000000000E+00 0. -1.
        -12    1    4    4    0    0  0.50747943910E+02 -0.10667235852E+02  0.35725099878E+01  0.51979866866E+02  0.00000000000E+00 0.  1.
</event>
<event>
12    1  0.8453150E-002  0.2171511E+03  0.7818608E-02  0.1136047E+00
         21   -1    0    0  503  502  0.00000000000E+00  0.00000000000E+00  0.11360003592E+03  0.11360003592E+03  0.00000000000E+00 0. -1.
         21   -1    0    0  501  503 -0.00000000000E+00 -0.00000000000E+00 -0.48162391539E+03  0.48162391539E+03  0.00000000000E+00 0. -1.
          6    2    1    2  501    0 -0.29099499909E+02 -0.12914210409E+03 -0.29485454021E+03  0.36618818517E+03  0.17213402665E+03 0.  0.
         24    2    3    3    0    0  0.31921466890E+02 -0.10230934264E+03 -0.25496168879E+03  0.28836090801E+03  0.81611083046E+02 0.  0.
         -6    2    1    2    0  502  0.29099499909E+02  0.12914210409E+03 -0.73169339254E+02  0.22903576614E+03  0.17198594716E+03 0.  0.
        -24    2    5    5    0    0 -0.79927279830E+01  0.13348650547E+03 -0.97221540769E+02  0.18436692252E+03  0.81588009453E+02 0.  0.
          5    1    3    3  501    0 -0.61020966799E+02 -0.26832761450E+02 -0.39892851422E+02  0.77827277163E+02  0.47000000000E+01 0. -1.
        -11    1    4    4    0    0 -0.15667423851E+02  0.46466297356E+01 -0.46361689466E+02  0.49157558810E+02  0.00000000000E+00 0.  1.
         12    1    4    4    0    0  0.47588890741E+02 -0.10695597238E+03 -0.20859999932E+03  0.23920334920E+03  0.00000000000E+00 0. -1.
         -5    1    5    5    0  502  0.37092227892E+02 -0.43444013738E+01  0.24052201515E+02  0.44668843628E+02  0.47000000000E+01 0.  1.
         11    1    6    6    0    0  0.19678802537E+02  0.14493585377E+02  0.51508954434E+01  0.24977009634E+02  0.00000000000E+00 0. -1.
        -12    1    6    6    0    0 -0.27671530520E+02  0.11899292009E+03 -0.10237243621E+03  0.15938991288E+03  0.00000000000E+00 0.  1.
</event>
<event>
12    1  0.8453150E-002  0.2320866E+03  0.7818608E-02  0.1126702E+00
         21   -1    0    0  503  502  0.00000000000E+00  0.00000000000E+00  0.14751581456E+03  0.14751581456E+03  0.00000000000E+00 0. -1.
         21   -1    0    0  501  503 -0.00000000000E+00 -0.00000000000E+00 -0.35818491047E+03  0.35818491047E+03  0.00000000000E+00 0.  1.
          6    2    1    2  501    0  0.15051558375E+03 -0.39280556880E+02 -0.14111361638E+03  0.27161964064E+03  0.17223900068E+03 0.  0.
         24    2    3    3    0    0  0.11577893237E+03  0.28073515606E+02 -0.13210951684E+03  0.19515808274E+03  0.80255027000E+02 0.  0.
         -6    2    1    2    0  502 -0.15051558375E+03  0.39280556880E+02 -0.69555479522E+02  0.23408108439E+03  0.16049325917E+03 0.  0.
        -24    2    5    5    0    0 -0.14119391220E+03 -0.12781138724E+02 -0.77312594967E+02  0.18041939834E+03  0.80466412915E+02 0.  0.
          5    1    3    3  501    0  0.34736651376E+02 -0.67354072486E+02 -0.90040995465E+01  0.76461557909E+02  0.47000000000E+01 0. -1.
        -11    1    4    4    0    0  0.49178346364E+01 -0.21555614628E+02 -0.18156722195E+02  0.28609372247E+02  0.00000000000E+00 0.  1.
         12    1    4    4    0    0  0.11086109773E+03  0.49629130234E+02 -0.11395279464E+03  0.16654871049E+03  0.00000000000E+00 0. -1.
         -5    1    5    5    0  502 -0.93216715438E+01  0.52061695604E+02  0.77571154448E+01  0.53661686048E+02  0.47000000000E+01 0.  1.
         11    1    6    6    0    0 -0.27502279057E+02  0.27186965283E+02 -0.36519460680E+02  0.53190012624E+02  0.00000000000E+00 0. -1.
        -12    1    6    6    0    0 -0.11369163315E+03 -0.39968104007E+02 -0.40793134288E+02  0.12722938572E+03  0.00000000000E+00 0.  1.
</event>
<event>
12    1  0.8453150E-002  0.3536397E+03  0.7818608E-02  0.1061244E+00
         21   -1    0    0  501  502  0.00000000000E+00  0.00000000000E+00  0.28057892792E+04  0.28057892792E+04  0.00000000000E+00 0.  1.
         21   -1    0    0  502  503 -0.00000000000E+00 -0.00000000000E+00 -0.12184055932E+03  0.12184055932E+03  0.00000000000E+00 0. -1.
         -6    2    1    2    0  503 -0.26678638582E+03 -0.15343455743E+03  0.17443601380E+03  0.39332222980E+03  0.17192240829E+03 0.  0.
        -24    2    3    3    0    0 -0.28235259509E+03 -0.15488688510E+03  0.17788641649E+03  0.37663656513E+03  0.80613831873E+02 0.  0.
          6    2    1    2  501    0  0.26678638582E+03  0.15343455743E+03  0.25095127061E+04  0.25343076087E+04  0.17419499013E+03 0.  0.
         24    2    5    5    0    0  0.17658394286E+03  0.78418951666E+02  0.20251631263E+04  0.20359298130E+04  0.79956829209E+02 0.  0.
          5    1    5    5  501    0  0.90202442955E+02  0.75015605762E+02  0.48434957976E+03  0.49837779569E+03  0.47000000000E+01 0. -1.
        -13    1    6    6    0    0  0.17693811835E+03  0.60165456000E+02  0.19302928691E+04  0.19393188341E+04  0.00000000000E+00 0.  1.
         14    1    6    6    0    0 -0.35417548881E+00  0.18253495665E+02  0.94870257186E+02  0.96610978894E+02  0.00000000000E+00 0. -1.
         -5    1    3    3    0  503  0.15566209274E+02  0.14523276724E+01 -0.34504026876E+01  0.16685664672E+02  0.47000000000E+01 0.  1.
         11    1    4    4    0    0 -0.13951231397E+03 -0.31986211678E+02  0.67510975792E+02  0.15825465345E+03  0.00000000000E+00 0. -1.
        -12    1    4    4    0    0 -0.14284028112E+03 -0.12290067342E+03  0.11037544069E+03  0.21838191168E+03  0.00000000000E+00 0.  1.
</event>
<event>
12    1  0.8453150E-002  0.1962603E+03  0.7818608E-02  0.1154231E+00
         21   -1    0    0  501  502  0.00000000000E+00  0.00000000000E+00  0.23840096320E+03  0.23840096320E+03  0.00000000000E+00 0.  1.
         21   -1    0    0  502  503 -0.00000000000E+00 -0.00000000000E+00 -0.28754634495E+03  0.28754634495E+03  0.00000000000E+00 0.  1.
         -6    2    1    2    0  503 -0.73899139571E+02 -0.31849244771E+02 -0.20213041833E+03  0.28173539164E+03  0.17900465822E+03 0.  0.
        -24    2    3    3    0    0 -0.10833704966E+03  0.17322768866E+02 -0.16410591049E+03  0.21051875192E+03  0.73146431239E+02 0.  0.
          6    2    1    2  501    0  0.73899139571E+02  0.31849244771E+02  0.15298503657E+03  0.24421191652E+03  0.17250965635E+03 0.  0.
         24    2    5    5    0    0  0.95191189707E+02 -0.22846483134E+02  0.72596966927E+02  0.14456601449E+03  0.77754025931E+02 0.  0.
          5    1    5    5  501    0 -0.21292050137E+02  0.54695727905E+02  0.80388069643E+02  0.99645902028E+02  0.47000000000E+01 0. -1.
        -11    1    6    6    0    0  0.33639567112E+02 -0.15906762626E+01  0.71953181378E+02  0.79444389587E+02  0.00000000000E+00 0.  1.
         12    1    6    6    0    0  0.61551622595E+02 -0.21255806871E+02  0.64378554844E+00  0.65121624900E+02  0.00000000000E+00 0. -1.
         -5    1    3    3    0  503  0.34437910085E+02 -0.49172013636E+02 -0.38024507831E+02  0.71216639712E+02  0.47000000000E+01 0.  1.
         11    1    4    4    0    0 -0.83014088025E+02  0.42951793109E+02 -0.13501664219E+03  0.16421232904E+03  0.00000000000E+00 0. -1.
        -12    1    4    4    0    0 -0.25322961631E+02 -0.25629024243E+02 -0.29089268305E+02  0.46306422880E+02  0.00000000000E+00 0.  1.
</event>
<event>
12    1  0.8453150E-002  0.1863914E+03  0.7818608E-02  0.1164697E+00
         21   -1    0    0  501  502  0.00000000000E+00  0.00000000000E+00  0.51163769717E+03  0.51163769717E+03  0.00000000000E+00 0. -1.
         21   -1    0    0  502  503 -0.00000000000E+00 -0.00000000000E+00 -0.98232399025E+02  0.98232399025E+02  0.00000000000E+00 0. -1.
         -6    2    1    2    0  503 -0.41187604020E+02 -0.39629678696E+02  0.20929721383E+02  0.17538322535E+03  0.16448189061E+03 0.  0.
        -24    2    3    3    0    0 -0.34762257044E+02 -0.58317691643E+02  0.66777525178E+02  0.12523705876E+03  0.81337047791E+02 0.  0.
          6    2    1    2  501    0  0.41187604020E+02  0.39629678696E+02  0.39247557676E+03  0.43448687084E+03  0.17741147770E+03 0.  0.
         24    2    5    5    0    0 -0.37290721405E+02 -0.17954430578E+02  0.19104579104E+03  0.21072175788E+03  0.78690567988E+02 0.  0.
          5    1    5    5  501    0  0.78478325425E+02  0.57584109275E+02  0.20142978572E+03  0.22376511296E+03  0.47000000000E+01 0. -1.
        -11    1    6    6    0    0 -0.78399480609E+00  0.25923023119E+01  0.15622352277E+03  0.15624699595E+03  0.00000000000E+00 0.  1.
         12    1    6    6    0    0 -0.36506726599E+02 -0.20546732890E+02  0.34822268276E+02  0.54474761930E+02  0.00000000000E+00 0. -1.
         -5    1    3    3    0  503 -0.64253469763E+01  0.18688012947E+02 -0.45847803795E+02  0.50146166598E+02  0.47000000000E+01 0.  1.
         13    1    4    4    0    0  0.86898310224E+01 -0.38020923917E+02 -0.45708527353E+01  0.39268263438E+02  0.00000000000E+00 0. -1.
        -14    1    4    4    0    0 -0.43452088066E+02 -0.20296767726E+02  0.71348377914E+02  0.85968795318E+02  0.00000000000E+00 0.  1.
</event>
<event>
12    1  0.8453150E-002  0.2035609E+03  0.7818608E-02  0.1146906E+00
         21   -1    0    0  501  502  0.00000000000E+00  0.00000000000E+00  0.21554721154E+03  0.21554721154E+03  0.00000000000E+00 0. -1.
         21   -1    0    0  502  503 -0.00000000000E+00 -0.00000000000E+00 -0.21015769593E+03  0.21015769593E+03  0.00000000000E+00 0. -1.
         -6    2    1    2    0  503 -0.68793108118E+02  0.84655501863E+02  0.65927616082E+02  0.21397079739E+03  0.17186624407E+03 0.  0.
        -24    2    3    3    0    0 -0.86050521455E+02  0.34746224186E+02  0.82030388668E+02  0.15856192086E+03  0.98999523952E+02 0.  0.
          6    2    1    2  501    0  0.68793108118E+02 -0.84655501863E+02 -0.60538100470E+02  0.21173411008E+03  0.17107725168E+03 0.  0.
         24    2    5    5    0    0  0.11256769083E+02  0.20526685151E+02 -0.28445959662E+02  0.87533794954E+02  0.79403608133E+02 0.  0.
          5    1    5    5  501    0  0.57536339034E+02 -0.10518218701E+03 -0.32092140808E+02  0.12420031512E+03  0.47000000000E+01 0. -1.
        -13    1    6    6    0    0  0.16939575741E+01 -0.33138368237E+01  0.26563276061E+02  0.26822726220E+02  0.00000000000E+00 0.  1.
         14    1    6    6    0    0  0.95628115091E+01  0.23840521975E+02 -0.55009235723E+02  0.60711068734E+02  0.00000000000E+00 0. -1.
         -5    1    3    3    0  503  0.17257413337E+02  0.49909277677E+02 -0.16102772587E+02  0.55408876530E+02  0.47000000000E+01 0.  1.
         13    1    4    4    0    0 -0.50023684934E+02  0.37060301295E+02 -0.68477535525E+01  0.62631675015E+02  0.00000000000E+00 0. -1.
        -14    1    4    4    0    0 -0.36026836521E+02 -0.23140771088E+01  0.88878142221E+02  0.95930245841E+02  0.00000000000E+00 0.  1.
</event>
<event>
12    1  0.8453150E-002  0.1719489E+03  0.7818608E-02  0.1176041E+00
         21   -1    0    0  501  502  0.00000000000E+00  0.00000000000E+00  0.97297541953E+02  0.97297541953E+02  0.00000000000E+00 0.  1.
         21   -1    0    0  502  503 -0.00000000000E+00 -0.00000000000E+00 -0.87065804999E+03  0.87065804999E+03  0.00000000000E+00 0.  1.
         -6    2    1    2    0  503 -0.10757487644E+02  0.25696989880E+01 -0.77734618933E+03  0.79596054384E+03  0.17077400972E+03 0.  0.
        -24    2    3    3    0    0 -0.10040098977E+02 -0.85936472087E+01 -0.17914198392E+03  0.19763329533E+03  0.82416106796E+02 0.  0.
          6    2    1    2  501    0  0.10757487644E+02 -0.25696989880E+01  0.39856812941E+01  0.17199504810E+03  0.17159278546E+03 0.  0.
         24    2    5    5    0    0 -0.36311895485E+01 -0.63412712953E+02  0.25627565050E+02  0.10566732002E+03  0.80463984046E+02 0.  0.
          5    1    5    5  501    0  0.14388677192E+02  0.60843013965E+02 -0.21641883756E+02  0.66327728079E+02  0.47000000000E+01 0. -1.
        -11    1    6    6    0    0  0.18423355047E+02  0.53252923264E+01  0.27413690871E+02  0.33455779721E+02  0.00000000000E+00 0.  1.
         12    1    6    6    0    0 -0.22054544596E+02 -0.68738005279E+02 -0.17861258211E+01  0.72211540300E+02  0.00000000000E+00 0. -1.
         -5    1    3    3    0  503 -0.71738866656E+00  0.11163346197E+02 -0.59820420541E+03  0.59832724851E+03  0.47000000000E+01 0.  1.
         13    1    4    4    0    0  0.35651053055E+02 -0.98406029006E+01 -0.66922137266E+02  0.76461804227E+02  0.00000000000E+00 0. -1.
        -14    1    4    4    0    0 -0.45691152032E+02  0.12469556919E+01 -0.11221984665E+03  0.12117149110E+03  0.00000000000E+00 0.  1.
</event>
<event>
12    1  0.8453150E-002  0.1877078E+03  0.7818608E-02  0.1160873E+00
         21   -1    0    0  503  502  0.00000000000E+00  0.00000000000E+00  0.68625394723E+02  0.68625394723E+02  0.00000000000E+00 0. -1.
         21   -1    0    0  501  503 -0.00000000000E+00 -0.00000000000E+00 -0.51304364215E+03  0.51304364215E+03  0.00000000000E+00 0. -1.
          6    2    1    2  501    0 -0.67821056192E+02 -0.32625732166E+02 -0.24541869552E+03  0.30810906638E+03  0.17040166259E+03 0.  0.
         24    2    3    3    0    0 -0.41718731909E+02 -0.84291526032E+02 -0.13255422137E+03  0.18117930189E+03  0.80061250780E+02 0.  0.
         -6    2    1    2    0  502  0.67821056192E+02  0.32625732166E+02 -0.19899955191E+03  0.27355997049E+03  0.17195959332E+03 0.  0.
        -24    2    5    5    0    0  0.78067502792E+02  0.64343558571E+02 -0.20083612822E+03  0.23984835243E+03  0.83411349619E+02 0.  0.
          5    1    3    3  501    0 -0.26102324283E+02  0.51665793866E+02 -0.11286447416E+03  0.12692976450E+03  0.47000000000E+01 0. -1.
        -11    1    4    4    0    0 -0.47523507169E+02 -0.22756576441E+02 -0.27863588796E+02  0.59604740462E+02  0.00000000000E+00 0.  1.
         12    1    4    4    0    0  0.58047752599E+01 -0.61534949592E+02 -0.10469063257E+03  0.12157456142E+03  0.00000000000E+00 0. -1.
         -5    1    5    5    0  502 -0.10246446600E+02 -0.31717826405E+02  0.18365763104E+01  0.33711618061E+02  0.47000000000E+01 0.  1.
         13    1    6    6    0    0  0.31534304392E+02  0.49052174827E+02 -0.37511712130E+02  0.69337268158E+02  0.00000000000E+00 0. -1.
        -14    1    6    6    0    0  0.46533198400E+02  0.15291383744E+02 -0.16332441609E+03  0.17051108427E+03  0.00000000000E+00 0.  1.
</event>
<event>
12    1  0.8453150E-002  0.2226131E+03  0.7818608E-02  0.1132129E+00
         21   -1    0    0  501  502  0.00000000000E+00  0.00000000000E+00  0.15377391909E+03  0.15377391909E+03  0.00000000000E+00 0.  1.
         21   -1    0    0  502  503 -0.00000000000E+00 -0.00000000000E+00 -0.32282060548E+03  0.32282060548E+03  0.00000000000E+00 0. -1.
         -6    2    1    2    0  503  0.13594815859E+03  0.37381192377E+02 -0.10290361821E+03  0.24436296196E+03  0.17101124866E+03 0.  0.
        -24    2    3    3    0    0  0.10691477977E+03  0.55113821292E+01  0.89086695623E+00  0.13187293110E+03  0.76996953483E+02 0.  0.
          6    2    1    2  501    0 -0.13594815859E+03 -0.37381192377E+02 -0.66143068181E+02  0.23223156261E+03  0.17227111724E+03 0.  0.
         24    2    5    5    0    0 -0.12271240353E+03 -0.81708310813E+02 -0.76519080124E+02  0.18458882691E+03  0.80518838544E+02 0.  0.
          5    1    5    5  501    0 -0.13235755060E+02  0.44327118436E+02  0.10376011943E+02  0.47642735697E+02  0.47000000000E+01 0. -1.
        -11    1    6    6    0    0 -0.89172701270E+02 -0.17456938519E+02 -0.20923628516E+02  0.93243303162E+02  0.00000000000E+00 0.  1.
         12    1    6    6    0    0 -0.33539702265E+02 -0.64251372294E+02 -0.55595451609E+02  0.91345523750E+02  0.00000000000E+00 0. -1.
         -5    1    3    3    0  503  0.29033378822E+02  0.31869810247E+02 -0.10379448517E+03  0.11249003086E+03  0.47000000000E+01 0.  1.
         11    1    4    4    0    0  0.25147439956E+02  0.91747002468E+01 -0.33679935539E+02  0.43022167761E+02  0.00000000000E+00 0. -1.
        -12    1    4    4    0    0  0.81767339817E+02 -0.36633181175E+01  0.34570802495E+02  0.88850763337E+02  0.00000000000E+00 0.  1.
</event>
<event>
12    1  0.8600302E-002  0.1734508E+03  0.7818608E-02  0.1176719E+00
         21   -1    0    0  503  502  0.00000000000E+00  0.00000000000E+00  0.30359461082E+03  0.30359461082E+03  0.00000000000E+00 0. -1.
         21   -1    0    0  501  503 -0.00000000000E+00 -0.00000000000E+00 -0.93874347524E+02  0.93874347524E+02  0.00000000000E+00 0. -1.
          6    2    1    2  501    0  0.15861469438E+02 -0.97558106276E+01  0.10753770649E+03  0.20408220035E+03  0.17244832307E+03 0.  0.
         24    2    3    3    0    0  0.41055693351E+02 -0.47084355483E+02  0.12071086588E+03  0.15692510854E+03  0.78433857887E+02 0.  0.
         -6    2    1    2    0  502 -0.15861469438E+02  0.97558106276E+01  0.10218255680E+03  0.19338675799E+03  0.16312694811E+03 0.  0.
        -24    2    5    5    0    0  0.43427586069E+02 -0.18818462352E+02  0.82626206698E+02  0.12456654288E+03  0.80309674472E+02 0.  0.
          5    1    3    3  501    0 -0.25194223913E+02  0.37328544855E+02 -0.13173159382E+02  0.47157091807E+02  0.47000000000E+01 0. -1.
        -13    1    4    4    0    0 -0.29889603940E+01  0.19584760576E+02  0.30988113022E+02  0.36779884172E+02  0.00000000000E+00 0.  1.
         14    1    4    4    0    0  0.44044653745E+02 -0.66669116059E+02  0.89722752854E+02  0.12014522437E+03  0.00000000000E+00 0. -1.
         -5    1    5    5    0  502 -0.59289055507E+02  0.28574272980E+02  0.19556350103E+02  0.68820215115E+02  0.47000000000E+01 0.  1.
         13    1    6    6    0    0 -0.21733918625E+02  0.63321966617E+01  0.27283373559E+02  0.35451973233E+02  0.00000000000E+00 0. -1.
        -14    1    6    6    0    0  0.65161504694E+02 -0.25150659014E+02  0.55342833139E+02  0.89114569643E+02  0.00000000000E+00 0.  1.
</event>
<event>
12    1  0.8453150E-002  0.2054592E+03  0.7818608E-02  0.1145215E+00
         21   -1    0    0  503  502  0.00000000000E+00  0.00000000000E+00  0.56804070993E+03  0.56804070993E+03  0.00000000000E+00 0.  1.
         21   -1    0    0  501  503 -0.00000000000E+00 -0.00000000000E+00 -0.12083888293E+03  0.12083888293E+03  0.00000000000E+00 0.  1.
          6    2    1    2  501    0 -0.10056888797E+02  0.11187014845E+03  0.98723813646E+01  0.20569624298E+03  0.17203897621E+03 0.  0.
         24    2    3    3    0    0 -0.51069797693E+02  0.43816379341E+02 -0.38890989766E+02  0.11235102055E+03  0.81131026119E+02 0.  0.
         -6    2    1    2    0  502  0.10056888797E+02 -0.11187014845E+03  0.43732944564E+03  0.48318334988E+03  0.17202626094E+03 0.  0.
        -24    2    5    5    0    0 -0.43788385430E+01 -0.85904355480E+02  0.13358015589E+03  0.17794846712E+03  0.80145282998E+02 0.  0.
          5    1    3    3  501    0  0.41012908896E+02  0.68053769107E+02  0.48763371130E+02  0.93345222426E+02  0.47000000000E+01 0. -1.
        -11    1    4    4    0    0 -0.38420923168E+02  0.50359271481E+02 -0.59761890187E+02  0.87084482429E+02  0.00000000000E+00 0.  1.
         12    1    4    4    0    0 -0.12648874525E+02 -0.65428921399E+01  0.20870900421E+02  0.25266538123E+02  0.00000000000E+00 0. -1.
         -5    1    5    5    0  502  0.14435727340E+02 -0.25965792968E+02  0.30374928975E+03  0.30523488276E+03  0.47000000000E+01 0.  1.
         13    1    6    6    0    0  0.25948763299E+02 -0.67970612219E+01  0.60047517723E+02  0.65766577703E+02  0.00000000000E+00 0. -1.
        -14    1    6    6    0    0 -0.30327601842E+02 -0.79107294258E+02  0.73532638165E+02  0.11218188942E+03  0.00000000000E+00 0.  1.
</event>
<event>
12    1  0.8453150E-002  0.1847509E+03  0.7818608E-02  0.1166093E+00
         21   -1    0    0  501  502  0.00000000000E+00  0.00000000000E+00  0.81949329911E+03  0.81949329911E+03  0.00000000000E+00 0. -1.
         21   -1    0    0  502  503 -0.00000000000E+00 -0.00000000000E+00 -0.52071925428E+02  0.52071925428E+02  0.00000000000E+00 0. -1.
         -6    2    1    2    0  503  0.16716676155E+02 -0.32194790172E+01  0.17542503947E+03  0.25476822075E+03  0.18396491383E+03 0.  0.
        -24    2    3    3    0    0 -0.32156182558E+02 -0.37572954816E+02  0.28555691994E+02  0.96144726752E+02  0.77347488174E+02 0.  0.
          6    2    1    2  501    0 -0.16716676155E+02  0.32194790172E+01  0.59199633421E+03  0.61679700379E+03  0.17230517073E+03 0.  0.
         24    2    5    5    0    0 -0.17738313662E+02 -0.73920992159E+01  0.12513932549E+03  0.14979464199E+03  0.80058060699E+02 0.  0.
          5    1    5    5  501    0  0.10216375066E+01  0.10611578233E+02  0.46685700872E+03  0.46700236180E+03  0.47000000000E+01 0. -1.
        -11    1    6    6    0    0  0.23879290578E+02  0.24833870161E+01  0.93655231315E+02  0.96683452991E+02  0.00000000000E+00 0.  1.
         12    1    6    6    0    0 -0.41617604240E+02 -0.98754862320E+01  0.31484094173E+02  0.53111188999E+02  0.00000000000E+00 0. -1.
         -5    1    3    3    0  503  0.48872858713E+02  0.34353475798E+02  0.14686934748E+03  0.15862349399E+03  0.47000000000E+01 0.  1.
         13    1    4    4    0    0 -0.26597465790E+02 -0.23526532801E+02  0.55130371387E+02  0.65576526146E+02  0.00000000000E+00 0. -1.
        -14    1    4    4    0    0 -0.55587167678E+01 -0.14046422015E+02 -0.26574679393E+02  0.30568200607E+02  0.00000000000E+00 0.  1.
</event>
<event>
12    1  0.8453150E-002  0.1916574E+03  0.7818608E-02  0.1157199E+00
         21   -1    0    0  501  502  0.00000000000E+00  0.00000000000E+00  0.24643591222E+03  0.24643591222E+03  0.00000000000E+00 0. -1.
         21   -1    0    0  502  503 -0.00000000000E+00 -0.00000000000E+00 -0.23438546161E+03  0.23438546161E+03  0.00000000000E+00 0. -1.
         -6    2    1    2    0  503 -0.76757529510E+02  0.25850718856E+02  0.15175112599E+03  0.24446056632E+03  0.17370257985E+03 0.  0.
        -24    2    3    3    0    0 -0.66197623918E+01  0.47544609674E+02  0.22246469702E+02  0.95519379022E+02  0.79528203748E+02 0.  0.
          6    2    1    2  501    0  0.76757529510E+02 -0.25850718856E+02 -0.13970067538E+03  0.23636080750E+03  0.17259830422E+03 0.  0.
         24    2    5    5    0    0 -0.37166791603E+01 -0.30688755718E+02 -0.12952009525E+03  0.15496523592E+03  0.79266360071E+02 0.  0.
          5    1    5    5  501    0  0.80474208670E+02  0.48380368620E+01 -0.10180580133E+02  0.81395571584E+02  0.47000000000E+01 0. -1.
        -13    1    6    6    0    0  0.13413089012E+02 -0.51204580264E+02 -0.57541256081E+02  0.78184500691E+02  0.00000000000E+00 0.  1.
         14    1    6    6    0    0 -0.17129768173E+02  0.20515824546E+02 -0.71978839168E+02  0.76780735229E+02  0.00000000000E+00 0. -1.
         -5    1    3    3    0  503 -0.70137767118E+02 -0.21693890818E+02  0.12950465628E+03  0.14894118730E+03  0.47000000000E+01 0.  1.
         11    1    4    4    0    0 -0.19163258942E+02 -0.15163738409E+02  0.19918516118E+02  0.31526445093E+02  0.00000000000E+00 0. -1.
        -12    1    4    4    0    0  0.12543496550E+02  0.62708348083E+02  0.23279535839E+01  0.63992933929E+02  0.00000000000E+00 0.  1.
</event>
<event>
12    1  0.8453150E-002  0.1971045E+03  0.7818608E-02  0.1152762E+00
         21   -1    0    0  501  502  0.00000000000E+00  0.00000000000E+00  0.89866647983E+03  0.89866647983E+03  0.00000000000E+00 0. -1.
         21   -1    0    0  502  503 -0.00000000000E+00 -0.00000000000E+00 -0.43250256331E+02  0.43250256331E+02  0.00000000000E+00 0. -1.
         -6    2    1    2    0  503 -0.96208492783E+02  0.66410841740E+00  0.37585098495E+03  0.42439855046E+03  0.17202805475E+03 0.  0.
        -24    2    3    3    0    0 -0.86871924432E+02  0.24529153668E+02  0.12996466289E+03  0.17713576460E+03  0.79610645440E+02 0.  0.
          6    2    1    2  501    0  0.96208492783E+02 -0.66410841740E+00  0.47956523855E+03  0.51751818570E+03  0.16907317760E+03 0.  0.
         24    2    5    5    0    0  0.39710287566E+02  0.63483633651E+02  0.26748042049E+03  0.28880648933E+03  0.79096992697E+02 0.  0.
          5    1    5    5  501    0  0.56498205217E+02 -0.64147742069E+02  0.21208481805E+03  0.22871169637E+03  0.47000000000E+01 0. -1.
        -13    1    6    6    0    0  0.52058403409E+02  0.73117371902E+02  0.19517540089E+03  0.21482472985E+03  0.00000000000E+00 0.  1.
         14    1    6    6    0    0 -0.12348115843E+02 -0.96337382506E+01  0.72305019601E+02  0.73981759489E+02  0.00000000000E+00 0. -1.
         -5    1    3    3    0  503 -0.93365683504E+01 -0.23865045251E+02  0.24588632206E+03  0.24726278585E+03  0.47000000000E+01 0.  1.
         11    1    4    4    0    0  0.84015572753E+01  0.22519038059E+02  0.17524686786E+02  0.29745720477E+02  0.00000000000E+00 0. -1.
        -12    1    4    4    0    0 -0.95273481707E+02  0.20101156094E+01  0.11243997610E+03  0.14739004413E+03  0.00000000000E+00 0.  1.
</event>
<event>
12    1  0.8453150E-002  0.2365579E+03  0.7818608E-02  0.1122307E+00
         21   -1    0    0  503  502  0.00000000000E+00  0.00000000000E+00  0.17848641107E+03  0.17848641107E+03  0.00000000000E+00 0.  1.
         21   -1    0    0  501  503 -0.00000000000E+00 -0.00000000000E+00 -0.31742903836E+03  0.31742903836E+03  0.00000000000E+00 0.  1.
          6    2    1    2  501    0 -0.53831808810E+02  0.15373350473E+03 -0.36789671650E+02  0.23824347620E+03  0.16992533624E+03 0.  0.
         24    2    3    3    0    0 -0.61159178218E+02  0.17737704717E+03 -0.44563393898E+02  0.21187629586E+03  0.87764495816E+02 0.  0.
         -6    2    1    2    0  502  0.53831808810E+02 -0.15373350473E+03 -0.10215295563E+03  0.25767197323E+03  0.17154522823E+03 0.  0.
        -24    2    5    5    0    0 -0.28417990527E+01 -0.24260159539E+02 -0.70618326446E+02  0.11278661241E+03  0.84482191883E+02 0.  0.
          5    1    3    3  501    0  0.73273694077E+01 -0.23643542443E+02  0.77737222481E+01  0.26367180344E+02  0.47000000000E+01 0. -1.
        -13    1    4    4    0    0 -0.20240828594E+02  0.68523304414E+01 -0.28718508579E+02  0.35796624277E+02  0.00000000000E+00 0.  1.
         14    1    4    4    0    0 -0.40918349625E+02  0.17052471673E+03 -0.15844885319E+02  0.17607967158E+03  0.00000000000E+00 0. -1.
         -5    1    5    5    0  502  0.56673607863E+02 -0.12947334519E+03 -0.31534629188E+02  0.14488536083E+03  0.47000000000E+01 0.  1.
         13    1    6    6    0    0  0.99797088500E+01  0.27851574489E+02 -0.86789016708E+01  0.30832257856E+02  0.00000000000E+00 0. -1.
        -14    1    6    6    0    0 -0.12821507903E+02 -0.52111734029E+02 -0.61939424775E+02  0.81954354551E+02  0.00000000000E+00 0.  1.
</event>
<event>
12    1  0.8453150E-002  0.2001327E+03  0.7818608E-02  0.1149741E+00
         21   -1    0    0  503  502  0.00000000000E+00  0.00000000000E+00  0.84245333697E+03  0.84245333697E+03  0.00000000000E+00 0.  1.
         21   -1    0    0  501  503 -0.00000000000E+00 -0.00000000000E+00 -0.98705405736E+02  0.98705405736E+02  0.00000000000E+00 0. -1.
          6    2    1    2  501    0 -0.99678996754E+02  0.90930530134E+01  0.32896336272E+02  0.20281826530E+03  0.17330462715E+03 0.  0.
         24    2    3    3    0    0 -0.98732367690E+02  0.61413651143E+02 -0.77658812042E-01  0.14078830925E+03  0.79382775298E+02 0.  0.
         -6    2    1    2    0  502  0.99678996754E+02 -0.90930530134E+01  0.71085159497E+03  0.73834047741E+03  0.17267913747E+03 0.  0.
        -24    2    5    5    0    0 -0.15620901579E+02  0.74053213464E+01  0.33042781847E+03  0.34045782809E+03  0.80188142120E+02 0.  0.
          5    1    3    3  501    0 -0.94662906419E+00 -0.52320598130E+02  0.32973995084E+02  0.62029956046E+02  0.47000000000E+01 0. -1.
        -11    1    4    4    0    0 -0.37424924243E+02  0.53085466413E+02  0.30520753169E+02  0.71764950169E+02  0.00000000000E+00 0.  1.
         12    1    4    4    0    0 -0.61307443447E+02  0.83281847308E+01 -0.30598411981E+02  0.69023359080E+02  0.00000000000E+00 0. -1.
         -5    1    5    5    0  502  0.11529989833E+03 -0.16498374360E+02  0.38042377649E+03  0.39788264933E+03  0.47000000000E+01 0.  1.
         13    1    6    6    0    0  0.46726914172E+01 -0.19823327551E+02  0.21299329628E+02  0.29469642055E+02  0.00000000000E+00 0. -1.
        -14    1    6    6    0    0 -0.20293592996E+02  0.27228648897E+02  0.30912848884E+03  0.31098818603E+03  0.00000000000E+00 0.  1.
</event>
<event>
12    1  0.8453150E-002  0.2523776E+03  0.7818608E-02  0.1111873E+00
         21   -1    0    0  501  502  0.00000000000E+00  0.00000000000E+00  0.32257672088E+03  0.32257672088E+03  0.00000000000E+00 0. -1.
         21   -1    0    0  502  503 -0.00000000000E+00 -0.00000000000E+00 -0.19807120151E+03  0.19807120151E+03  0.00000000000E+00 0. -1.
         -6    2    1    2    0  503  0.39821975043E+02  0.18033162181E+03  0.80095531668E+02  0.26478243903E+03  0.17201500604E+03 0.  0.
        -24    2    3    3    0    0  0.47023806719E+02  0.20475523867E+03  0.80130073235E+02  0.23888899135E+03  0.80691854539E+02 0.  0.
          6    2    1    2  501    0 -0.39821975043E+02 -0.18033162181E+03  0.44409987694E+02  0.25586548336E+03  0.17143399618E+03 0.  0.
         24    2    5    5    0    0 -0.43002282492E+02 -0.17478799605E+03 -0.13078346404E+02  0.19783234886E+03  0.81034284399E+02 0.  0.
          5    1    5    5  501    0  0.31803074485E+01 -0.55436257581E+01  0.57488334098E+02  0.58033134496E+02  0.47000000000E+01 0. -1.
        -13    1    6    6    0    0 -0.62909850087E+02 -0.11868629347E+03 -0.26236201574E+02  0.13686644501E+03  0.00000000000E+00 0.  1.
         14    1    6    6    0    0  0.19907567596E+02 -0.56101702585E+02  0.13157855170E+02  0.60965903857E+02  0.00000000000E+00 0. -1.
         -5    1    3    3    0  503 -0.72018316760E+01 -0.24423616855E+02 -0.34541567359E-01  0.25893447683E+02  0.47000000000E+01 0.  1.
         11    1    4    4    0    0  0.49858965573E+02  0.15932031964E+03  0.27310452651E+02  0.16915892386E+03  0.00000000000E+00 0. -1.
        -12    1    4    4    0    0 -0.28351588537E+01  0.45434919033E+02  0.52819620584E+02  0.69730067488E+02  0.00000000000E+00 0.  1.
</event>
<event>
12    1  0.8453150E-002  0.1916466E+03  0.7818608E-02  0.1157087E+00
         21   -1    0    0  501  502  0.00000000000E+00  0.00000000000E+00  0.30779758455E+03  0.30779758455E+03  0.00000000000E+00 0.  1.
         21   -1    0    0  502  503 -0.00000000000E+00 -0.00000000000E+00 -0.11905480691E+03  0.11905480691E+03  0.00000000000E+00 0.  1.
         -6    2    1    2    0  503 -0.79881693869E+02  0.23788973220E+02  0.91855102727E+02  0.21210685509E+03  0.17206091310E+03 0.  0.
        -24    2    3    3    0    0 -0.71667215470E+02  0.10363199726E+02 -0.10895952450E+02  0.10805110855E+03  0.79452719251E+02 0.  0.
          6    2    1    2  501    0  0.79881693869E+02 -0.23788973220E+02  0.96887674912E+02  0.21474553637E+03  0.17257295146E+03 0.  0.
         24    2    5    5    0    0  0.27227499402E+02 -0.43742284669E+02 -0.63288284117E+01  0.97075083868E+02  0.82029224348E+02 0.  0.
          5    1    5    5  501    0  0.52654194467E+02  0.19953311450E+02  0.10321650332E+03  0.11767045250E+03  0.47000000000E+01 0. -1.
        -11    1    6    6    0    0 -0.51845445248E+01 -0.15931501460E+02 -0.39559968614E+02  0.42961417079E+02  0.00000000000E+00 0.  1.
         12    1    6    6    0    0  0.32412043927E+02 -0.27810783209E+02  0.33231140202E+02  0.54113666789E+02  0.00000000000E+00 0. -1.
         -5    1    3    3    0  503 -0.82144783988E+01  0.13425773494E+02  0.10275105518E+03  0.10405574655E+03  0.47000000000E+01 0.  1.
         11    1    4    4    0    0 -0.19024191412E+00 -0.16048890349E+02 -0.25820718860E+02  0.30402509697E+02  0.00000000000E+00 0. -1.
        -12    1    4    4    0    0 -0.71476973556E+02  0.26412090075E+02  0.14924766410E+02  0.77648598849E+02  0.00000000000E+00 0.  1.
</event>
<event>
12    1  0.8453150E-002  0.1781971E+03  0.7818608E-02  0.1169661E+00
         21   -1    0    0  503  502  0.00000000000E+00  0.00000000000E+00  0.29917422215E+02  0.29917422215E+02  0.00000000000E+00 0. -1.
         21   -1    0    0  501  503 -0.00000000000E+00 -0.00000000000E+00 -0.15672357497E+04  0.15672357497E+04  0.00000000000E+00 0. -1.
          6    2    1    2  501    0 -0.39651837254E+02 -0.25594587004E+02 -0.12240599272E+04  0.12369627711E+04  0.17183375883E+03 0.  0.
         24    2    3    3    0    0  0.31810575287E+02 -0.50396178995E+02 -0.78461953614E+03  0.79103459006E+03  0.80970479884E+02 0.  0.
         -6    2    1    2    0  502  0.39651837254E+02  0.25594587004E+02 -0.31325840032E+03  0.36019040083E+03  0.17140288329E+03 0.  0.
        -24    2    5    5    0    0 -0.20350992588E+02  0.68919390812E+00 -0.26948092858E+03  0.28170998782E+03  0.79535579969E+02 0.  0.
          5    1    3    3  501    0 -0.71462412541E+02  0.24801591992E+02 -0.43944039103E+03  0.44592818103E+03  0.47000000000E+01 0. -1.
        -13    1    4    4    0    0  0.35030910686E+02  0.57532364952E+01 -0.16014686709E+03  0.16403439722E+03  0.00000000000E+00 0.  1.
         14    1    4    4    0    0 -0.32203353983E+01 -0.56149415490E+02 -0.62447266905E+03  0.62700019283E+03  0.00000000000E+00 0. -1.
         -5    1    5    5    0  502  0.60002829842E+02  0.24905393095E+02 -0.43777471734E+02  0.78480413006E+02  0.47000000000E+01 0.  1.
         13    1    6    6    0    0  0.72694557222E-01 -0.36147450113E+02 -0.82970346519E+02  0.90502606789E+02  0.00000000000E+00 0. -1.
        -14    1    6    6    0    0 -0.20423687145E+02  0.36836644022E+02 -0.18651058207E+03  0.19120738103E+03  0.00000000000E+00 0.  1.
</event>
<event>
12    1  0.8453150E-002  0.2188383E+03  0.7818608E-02  0.1135543E+00
         21   -1    0    0  503  502  0.00000000000E+00  0.00000000000E+00  0.77121865774E+03  0.77121865774E+03  0.00000000000E+00 0.  1.
         21   -1    0    0  501  503 -0.00000000000E+00 -0.00000000000E+00 -0.75923362109E+02  0.75923362109E+02  0.00000000000E+00 0. -1.
          6    2    1    2  501    0  0.89449484543E+02  0.93073191074E+02  0.16204053273E+03  0.27230010981E+03  0.17670989326E+03 0.  0.
         24    2    3    3    0    0  0.12617060127E+03  0.43074009711E+02  0.12719730035E+03  0.20099443407E+03  0.80282117383E+02 0.  0.
         -6    2    1    2    0  502 -0.89449484543E+02 -0.93073191074E+02  0.53325476290E+03  0.57484191004E+03  0.17151894995E+03 0.  0.
        -24    2    5    5    0    0 -0.41949134035E+00 -0.34440889398E+02  0.37320566224E+03  0.38248315377E+03  0.76318711690E+02 0.  0.
          5    1    3    3  501    0 -0.36721116730E+02  0.49999181363E+02  0.34843232375E+02  0.71305675744E+02  0.47000000000E+01 0. -1.
        -11    1    4    4    0    0  0.57787338276E+02  0.43034008362E+02  0.10824781895E+03  0.13003419799E+03  0.00000000000E+00 0.  1.
         12    1    4    4    0    0  0.68383262997E+02  0.40001348431E-01  0.18949481402E+02  0.70960236074E+02  0.00000000000E+00 0. -1.
         -5    1    5    5    0  502 -0.89029993203E+02 -0.58632301676E+02  0.16004910067E+03  0.19235875627E+03  0.47000000000E+01 0.  1.
         13    1    6    6    0    0  0.19247657987E+02 -0.28553109648E+02  0.64679828110E+02  0.73275047410E+02  0.00000000000E+00 0. -1.
        -14    1    6    6    0    0 -0.19667149328E+02 -0.58877797501E+01  0.30852583413E+03  0.30920810636E+03  0.00000000000E+00 0.  1.
</event>
<event>
12    1  0.8453150E-002  0.2101699E+03  0.7818608E-02  0.1141504E+00
         21   -1    0    0  503  502  0.00000000000E+00  0.00000000000E+00  0.12323688474E+03  0.12323688474E+03  0.00000000000E+00 0. -1.
         21   -1    0    0  501  503 -0.00000000000E+00 -0.00000000000E+00 -0.53174370624E+03  0.53174370624E+03  0.00000000000E+00 0.  1.
          6    2    1    2  501    0 -0.47684354583E+02 -0.11027586473E+03 -0.17070025059E+02  0.21086193891E+03  0.17244363576E+03 0.  0.
         24    2    3    3    0    0 -0.25333045563E+00 -0.61869812401E+02 -0.75584397672E+02  0.12120219458E+03  0.71756762307E+02 0.  0.
         -6    2    1    2    0  502  0.47684354583E+02  0.11027586473E+03 -0.39143679644E+03  0.44411865207E+03  0.17200013807E+03 0.  0.
        -24    2    5    5    0    0  0.74428719606E+02  0.74265070987E+01 -0.22323186002E+03  0.24510045677E+03  0.68168785157E+02 0.  0.
          5    1    3    3  501    0 -0.47431024127E+02 -0.48406052325E+02  0.58514372613E+02  0.89659744332E+02  0.47000000000E+01 0. -1.
        -11    1    4    4    0    0 -0.24323954420E+02 -0.17583151508E+02 -0.62180301473E+02  0.69044998854E+02  0.00000000000E+00 0.  1.
         12    1    4    4    0    0  0.24070623964E+02 -0.44286660893E+02 -0.13404096199E+02  0.52157195726E+02  0.00000000000E+00 0. -1.
         -5    1    5    5    0  502 -0.26744365024E+02  0.10284935763E+03 -0.16820493642E+03  0.19901819530E+03  0.47000000000E+01 0.  1.
         13    1    6    6    0    0  0.66706129109E+02 -0.10082316615E+02 -0.21294144258E+03  0.22337282452E+03  0.00000000000E+00 0. -1.
        -14    1    6    6    0    0  0.77225904969E+01  0.17508823714E+02 -0.10290417446E+02  0.21727632246E+02  0.00000000000E+00 0.  1.
</event>
<event>
12    1  0.8453150E-002  0.2048807E+03  0.7818608E-02  0.1149111E+00
         21   -1    0    0  501  502  0.00000000000E+00  0.00000000000E+00  0.65348726727E+03  0.65348726727E+03  0.00000000000E+00 0.  1.
         21   -1    0    0  502  503 -0.00000000000E+00 -0.00000000000E+00 -0.13446832198E+03  0.13446832198E+03  0.00000000000E+00 0.  1.
         -6    2    1    2    0  503 -0.37328904581E+02  0.63282335558E+02 -0.30278226790E+02  0.20710594938E+03  0.19125376372E+03 0.  0.
        -24    2    3    3    0    0 -0.69824878327E+02  0.89280436358E+02  0.21535958521E+02  0.14048245987E+03  0.80156185487E+02 0.  0.
          6    2    1    2  501    0  0.37328904581E+02 -0.63282335558E+02  0.54929717208E+03  0.58084963987E+03  0.17395637318E+03 0.  0.
         24    2    5    5    0    0  0.69324183969E+02 -0.30289770866E+02  0.17902627846E+03  0.20770780103E+03  0.73272160661E+02 0.  0.
          5    1    5    5  501    0 -0.31995279387E+02 -0.32992564692E+02  0.37027089362E+03  0.37314183884E+03  0.47000000000E+01 0. -1.
        -11    1    6    6    0    0  0.26641511645E+02 -0.17305336930E+02  0.15256342952E+03  0.15583595496E+03  0.00000000000E+00 0.  1.
         12    1    6    6    0    0  0.42682672323E+02 -0.12984433936E+02  0.26462848933E+02  0.51871846072E+02  0.00000000000E+00 0. -1.
         -5    1    3    3    0  503  0.32495973745E+02 -0.25998100800E+02 -0.51814185311E+02  0.66623489509E+02  0.47000000000E+01 0.  1.
         13    1    4    4    0    0 -0.30162762455E+02  0.89786359041E+02 -0.12745251377E+01  0.94725956966E+02  0.00000000000E+00 0. -1.
        -14    1    4    4    0    0 -0.39662115871E+02 -0.50592268325E+00  0.22810483659E+02  0.45756502903E+02  0.00000000000E+00 0.  1.
</event>
<event>
12    1  0.8453150E-002  0.2623254E+03  0.7818608E-02  0.1105770E+00
         21   -1    0    0  503  502  0.00000000000E+00  0.00000000000E+00  0.18129420989E+03  0.18129420989E+03  0.00000000000E+00 0. -1.
         21   -1    0    0  501  503 -0.00000000000E+00 -0.00000000000E+00 -0.48916087822E+03  0.48916087822E+03  0.00000000000E+00 0.  1.
          6    2    1    2  501    0 -0.53720418192E+02  0.19019941604E+03 -0.31268883733E+03  0.40808535575E+03  0.17233005365E+03 0.  0.
         24    2    3    3    0    0 -0.84152745341E+02  0.70112681879E+02 -0.20314969135E+03  0.24265299870E+03  0.74921345241E+02 0.  0.
         -6    2    1    2    0  502  0.53720418192E+02 -0.19019941604E+03  0.48221690069E+01  0.26236973237E+03  0.17249035322E+03 0.  0.
        -24    2    5    5    0    0 -0.23194933114E+02 -0.15179855037E+03  0.17859621967E+02  0.17529124518E+03  0.82627173037E+02 0.  0.
          5    1    3    3  501    0  0.30432327149E+02  0.12008673416E+03 -0.10953914598E+03  0.16543235705E+03  0.47000000000E+01 0. -1.
        -13    1    4    4    0    0 -0.76009041901E+01  0.98023507307E+01 -0.99926151673E+02  0.10069307629E+03  0.00000000000E+00 0.  1.
         14    1    4    4    0    0 -0.76551841151E+02  0.60310331149E+02 -0.10322353967E+03  0.14195992241E+03  0.00000000000E+00 0. -1.
         -5    1    5    5    0  502  0.76915351306E+02 -0.38400865672E+02 -0.13037452960E+02  0.87078487186E+02  0.47000000000E+01 0.  1.
         13    1    6    6    0    0 -0.13898409446E+02 -0.10102313096E+03  0.50931412679E+02  0.11398617272E+03  0.00000000000E+00 0. -1.
        -14    1    6    6    0    0 -0.92965236684E+01 -0.50775419405E+02 -0.33071790712E+02  0.61305072457E+02  0.00000000000E+00 0.  1.
</event>
<event>
12    1  0.8453150E-002  0.2225347E+03  0.7818608E-02  0.1132587E+00
         21   -1    0    0  503  502  0.00000000000E+00  0.00000000000E+00  0.89912731039E+03  0.89912731039E+03  0.00000000000E+00 0. -1.
         21   -1    0    0  501  503 -0.00000000000E+00 -0.00000000000E+00 -0.11266046116E+03  0.11266046116E+03  0.00000000000E+00 0. -1.
          6    2    1    2  501    0 -0.10588773977E+03  0.85457321560E+02  0.30485540753E+02  0.22461315398E+03  0.17608672154E+03 0.  0.
         24    2    3    3    0    0 -0.25936090519E+02  0.11099005090E+03  0.16866987260E+02  0.13945599641E+03  0.78562125011E+02 0.  0.
         -6    2    1    2    0  502  0.10588773977E+03 -0.85457321560E+02  0.75598130848E+03  0.78717461757E+03  0.17210744473E+03 0.  0.
        -24    2    5    5    0    0  0.11311718057E+03 -0.10145643370E+03  0.74765587442E+03  0.76718363821E+03  0.80576198165E+02 0.  0.
          5    1    3    3  501    0 -0.79951649252E+02 -0.25532729338E+02  0.13618553493E+02  0.85157157567E+02  0.47000000000E+01 0. -1.
        -13    1    4    4    0    0  0.12976742508E+02  0.93577322716E+01 -0.19029689999E+02  0.24861458140E+02  0.00000000000E+00 0.  1.
         14    1    4    4    0    0 -0.38912833027E+02  0.10163231863E+03  0.35896677259E+02  0.11459453827E+03  0.00000000000E+00 0. -1.
         -5    1    5    5    0  502 -0.72294407968E+01  0.15999112136E+02  0.83254340650E+01  0.19990979359E+02  0.47000000000E+01 0.  1.
         13    1    6    6    0    0  0.21903032558E+02 -0.25711551929E+01  0.27131908095E+03  0.27221388165E+03  0.00000000000E+00 0. -1.
        -14    1    6    6    0    0  0.91214148010E+02 -0.98885278503E+02  0.47633679347E+03  0.49496975656E+03  0.00000000000E+00 0.  1.
</event>
<event>
12    1  0.8453150E-002  0.1754867E+03  0.7818608E-02  0.1172845E+00
         21   -1    0    0  501  502  0.00000000000E+00  0.00000000000E+00  0.16883876555E+03  0.16883876555E+03  0.00000000000E+00 0.  1.
         21   -1    0    0  502  503 -0.00000000000E+00 -0.00000000000E+00 -0.28056566906E+03  0.28056566906E+03  0.00000000000E+00 0.  1.
         -6    2    1    2    0  503 -0.22342451758E+02  0.19561349912E+01 -0.19068446478E+03  0.25914500631E+03  0.17404757273E+03 0.  0.
        -24    2    3    3    0    0 -0.59108993093E+02 -0.33350468111E+02 -0.66053155427E+02  0.12441049679E+03  0.80677292856E+02 0.  0.
          6    2    1    2  501    0  0.22342451758E+02 -0.19561349912E+01  0.78957561267E+02  0.19025942830E+03  0.17164306558E+03 0.  0.
         24    2    5    5    0    0 -0.10183925373E+02  0.60158398134E+02  0.63781668041E+02  0.11836660411E+03  0.78865750414E+02 0.  0.
          5    1    5    5  501    0  0.32526377131E+02 -0.62114533126E+02  0.15175893227E+02  0.71892824189E+02  0.47000000000E+01 0. -1.
        -11    1    6    6    0    0  0.32284163814E+02  0.19682782340E+02  0.40057434676E+02  0.55084273860E+02  0.00000000000E+00 0.  1.
         12    1    6    6    0    0 -0.42468089187E+02  0.40475615795E+02  0.23724233364E+02  0.63282330250E+02  0.00000000000E+00 0. -1.
         -5    1    3    3    0  503  0.36766541335E+02  0.35306603102E+02 -0.12463130935E+03  0.13473450952E+03  0.47000000000E+01 0.  1.
         11    1    4    4    0    0 -0.68776535697E+02 -0.13886566966E+02 -0.73331371033E+02  0.10149156902E+03  0.00000000000E+00 0. -1.
        -12    1    4    4    0    0  0.96675426046E+01 -0.19463901145E+02  0.72782156062E+01  0.22918927772E+02  0.00000000000E+00 0.  1.
</event>
<event>
12    1  0.8453150E-002  0.1776838E+03  0.7818608E-02  0.1170500E+00
         21   -1    0    0  501  502  0.00000000000E+00  0.00000000000E+00  0.12841207026E+03  0.12841207026E+03  0.00000000000E+00 0. -1.
         21   -1    0    0  502  503 -0.00000000000E+00 -0.00000000000E+00 -0.51759257123E+03  0.51759257123E+03  0.00000000000E+00 0. -1.
         -6    2    1    2    0  503  0.32493493090E+02 -0.28641404360E+02  0.40032814601E+02  0.18213777390E+03  0.17232349027E+03 0.  0.
        -24    2    3    3    0    0  0.36639637445E+01 -0.82328456014E+02  0.40409850287E+02  0.12101761820E+03  0.78872736820E+02 0.  0.
          6    2    1    2  501    0 -0.32493493090E+02  0.28641404360E+02 -0.42921331557E+03  0.46386686758E+03  0.17050584576E+03 0.  0.
         24    2    5    5    0    0  0.41574908435E+01  0.23256218477E+02 -0.41604564308E+03  0.42427176120E+03  0.79714577069E+02 0.  0.
          5    1    5    5  501    0 -0.36650983934E+02  0.53851858831E+01 -0.13167672488E+02  0.39595106378E+02  0.47000000000E+01 0. -1.
        -11    1    6    6    0    0 -0.18618778561E+02  0.35728018833E+01 -0.21849713053E+02  0.28928079592E+02  0.00000000000E+00 0.  1.
         12    1    6    6    0    0  0.22776269404E+02  0.19683416593E+02 -0.39419593003E+03  0.39534368161E+03  0.00000000000E+00 0. -1.
         -5    1    3    3    0  503  0.28829529346E+02  0.53687051655E+02 -0.37703568588E+00  0.61120155706E+02  0.47000000000E+01 0.  1.
         13    1    4    4    0    0  0.40669887826E+02 -0.35441140738E+02  0.24204936636E+02  0.59126924410E+02  0.00000000000E+00 0. -1.
        -14    1    4    4    0    0 -0.37005924081E+02 -0.46887315276E+02  0.16204913651E+02  0.61890693786E+02  0.00000000000E+00 0.  1.
</event>
<event>
12    1  0.8453150E-002  0.1790506E+03  0.7818608E-02  0.1169085E+00
         21   -1    0    0  501  502  0.00000000000E+00  0.00000000000E+00  0.90933341800E+03  0.90933341800E+03  0.00000000000E+00 0.  1.
         21   -1    0    0  502  503 -0.00000000000E+00 -0.00000000000E+00 -0.40455151789E+02  0.40455151789E+02  0.00000000000E+00 0.  1.
         -6    2    1    2    0  503  0.24605603221E+02  0.44700243858E+02  0.25797312873E+03  0.31318491821E+03  0.17009147637E+03 0.  0.
        -24    2    3    3    0    0 -0.40838519574E+02  0.66565609946E+02  0.19140845671E+03  0.21719547606E+03  0.66617658410E+02 0.  0.
          6    2    1    2  501    0 -0.24605603221E+02 -0.44700243858E+02  0.61090513748E+03  0.63660365158E+03  0.17162626459E+03 0.  0.
         24    2    5    5    0    0  0.13416289682E+02 -0.43086731523E+02  0.58022350718E+03  0.58749438362E+03  0.80335977235E+02 0.  0.
          5    1    5    5  501    0 -0.38021892903E+02 -0.16135123349E+01  0.30681630301E+02  0.49109267964E+02  0.47000000000E+01 0. -1.
        -11    1    6    6    0    0  0.16008329887E+02  0.90275261518E+01  0.38437793916E+03  0.38481705129E+03  0.00000000000E+00 0.  1.
         12    1    6    6    0    0 -0.25920402048E+01 -0.52114257675E+02  0.19584556802E+03  0.20267733233E+03  0.00000000000E+00 0. -1.
         -5    1    3    3    0  503  0.65444122795E+02 -0.21865366089E+02  0.66564672023E+02  0.95989442150E+02  0.47000000000E+01 0.  1.
         13    1    4    4    0    0  0.82122343475E+01  0.10010517172E+02  0.91179835753E+02  0.92094591019E+02  0.00000000000E+00 0. -1.
        -14    1    4    4    0    0 -0.49050753922E+02  0.56555092774E+02  0.10022862096E+03  0.12510088504E+03  0.00000000000E+00 0.  1.
</event>
<event>
12    1  0.8453150E-002  0.2147404E+03  0.7818608E-02  0.1138595E+00
         21   -1    0    0  503  502  0.00000000000E+00  0.00000000000E+00  0.27287940194E+03  0.27287940194E+03  0.00000000000E+00 0.  1.
         21   -1    0    0  501  503 -0.00000000000E+00 -0.00000000000E+00 -0.27112193136E+03  0.27112193136E+03  0.00000000000E+00 0. -1.
          6    2    1    2  501    0  0.95146578589E+02  0.79326737359E+02 -0.16844235017E+03  0.27292171514E+03  0.17540762410E+03 0.  0.
         24    2    3    3    0    0  0.11998853187E+02  0.55032646484E+02 -0.20109053756E+02  0.10108282573E+03  0.81491097415E+02 0.  0.
         -6    2    1    2    0  502 -0.95146578589E+02 -0.79326737359E+02  0.17019982075E+03  0.27107961815E+03  0.17079396276E+03 0.  0.
        -24    2    5    5    0    0 -0.48406752465E+02 -0.10577136247E+03  0.71329532493E+02  0.15846810256E+03  0.80581899463E+02 0.  0.
          5    1    3    3  501    0  0.83147725402E+02  0.24294090874E+02 -0.14833329641E+03  0.17183888941E+03  0.47000000000E+01 0. -1.
        -13    1    4    4    0    0  0.39243104594E+02  0.58777742113E+02 -0.83209800274E+01  0.71162370216E+02  0.00000000000E+00 0.  1.
         14    1    4    4    0    0 -0.27244251407E+02 -0.37450956286E+01 -0.11788073728E+02  0.29920455515E+02  0.00000000000E+00 0. -1.
         -5    1    5    5    0  502 -0.46739826124E+02  0.26444625109E+02  0.98870288254E+02  0.11261151559E+03  0.47000000000E+01 0.  1.
         11    1    6    6    0    0 -0.92761683908E+01 -0.88325461438E+02  0.18971165571E+02  0.90814864209E+02  0.00000000000E+00 0. -1.
        -12    1    6    6    0    0 -0.39130584074E+02 -0.17445901030E+02  0.52358366922E+02  0.67653238352E+02  0.00000000000E+00 0.  1.
</event>
<event>
12    1  0.8453150E-002  0.2715088E+03  0.7818608E-02  0.1100639E+00
         21   -1    0    0  501  502  0.00000000000E+00  0.00000000000E+00  0.28986267599E+03  0.28986267599E+03  0.00000000000E+00 0.  1.
         21   -1    0    0  502  503 -0.00000000000E+00 -0.00000000000E+00 -0.60682655584E+03  0.60682655584E+03  0.00000000000E+00 0. -1.
         -6    2    1    2    0  503 -0.20708748386E+03 -0.18004356320E+02  0.18412067147E+03  0.32677454754E+03  0.17225504474E+03 0.  0.
        -24    2    3    3    0    0 -0.24802145871E+02 -0.10018048190E+01  0.35611223723E+02  0.90990372342E+02  0.79968359688E+02 0.  0.
          6    2    1    2  501    0  0.20708748386E+03  0.18004356320E+02 -0.50108455133E+03  0.56991468429E+03  0.17466435518E+03 0.  0.
         24    2    5    5    0    0  0.25516157270E+02  0.17423305791E+02 -0.11955631338E+03  0.14735774066E+03  0.80411104933E+02 0.  0.
          5    1    5    5  501    0  0.18157132659E+03  0.58105052876E+00 -0.38152823795E+03  0.42255694363E+03  0.47000000000E+01 0. -1.
        -13    1    6    6    0    0  0.27595937361E+02  0.47391055958E+02 -0.64698468907E+02  0.84813559191E+02  0.00000000000E+00 0.  1.
         14    1    6    6    0    0 -0.20797800910E+01 -0.29967750167E+02 -0.54857844474E+02  0.62544181470E+02  0.00000000000E+00 0. -1.
         -5    1    3    3    0  503 -0.18228533798E+03 -0.17002551501E+02  0.14850944775E+03  0.23578417520E+03  0.47000000000E+01 0.  1.
         13    1    4    4    0    0  0.84505138197E+01  0.95098846497E+01 -0.20968527079E+02  0.24526072204E+02  0.00000000000E+00 0. -1.
        -14    1    4    4    0    0 -0.33252659691E+02 -0.10511689469E+02  0.56579750803E+02  0.66464300138E+02  0.00000000000E+00 0.  1.
</event>
<event>
12    1  0.8453150E-002  0.1879189E+03  0.7818608E-02  0.1160736E+00
         21   -1    0    0  501  502  0.00000000000E+00  0.00000000000E+00  0.62977681747E+02  0.62977681747E+02  0.00000000000E+00 0. -1.
         21   -1    0    0  502  503 -0.00000000000E+00 -0.00000000000E+00 -0.60235572487E+03  0.60235572487E+03  0.00000000000E+00 0. -1.
         -6    2    1    2    0  503  0.49192502761E+02  0.54606815269E+02 -0.36333363659E+03  0.40905361903E+03  0.17295006551E+03 0.  0.
        -24    2    3    3    0    0  0.29022952419E+02 -0.34136319540E+02 -0.13512076306E+03  0.16331929016E+03  0.80049671149E+02 0.  0.
          6    2    1    2  501    0 -0.49192502761E+02 -0.54606815269E+02 -0.17604440653E+03  0.25627978759E+03  0.17113120654E+03 0.  0.
         24    2    5    5    0    0 -0.80356578862E+02 -0.31435152045E+02 -0.18156292164E+03  0.21677447624E+03  0.81121701690E+02 0.  0.
          5    1    5    5  501    0  0.31164076101E+02 -0.23171663224E+02  0.55185151050E+01  0.39505311348E+02  0.47000000000E+01 0. -1.
        -13    1    6    6    0    0 -0.82767089148E+01  0.24298765583E+01  0.76217120270E+01  0.11510808172E+02  0.00000000000E+00 0.  1.
         14    1    6    6    0    0 -0.72079869947E+02 -0.33865028604E+02 -0.18918463366E+03  0.20526366807E+03  0.00000000000E+00 0. -1.
         -5    1    3    3    0  503  0.20169550342E+02  0.88743134809E+02 -0.22821287353E+03  0.24573432887E+03  0.47000000000E+01 0.  1.
         13    1    4    4    0    0 -0.55580232161E+01 -0.12472070916E+02  0.70789092589E+01  0.15380348868E+02  0.00000000000E+00 0. -1.
        -14    1    4    4    0    0  0.34580975635E+02 -0.21664248624E+02 -0.14219967232E+03  0.14793894130E+03  0.00000000000E+00 0.  1.
</event>
<event>
12    1  0.8453150E-002  0.1948771E+03  0.7818608E-02  0.1154299E+00
         21   -1    0    0  503  502  0.00000000000E+00  0.00000000000E+00  0.30068457855E+03  0.30068457855E+03  0.00000000000E+00 0.  1.
         21   -1    0    0  501  503 -0.00000000000E+00 -0.00000000000E+00 -0.17244240302E+03  0.17244240302E+03  0.00000000000E+00 0. -1.
          6    2    1    2  501    0  0.65670078644E+02  0.60458858643E+02 -0.58800799803E+02  0.20355490350E+03  0.17323172881E+03 0.  0.
         24    2    3    3    0    0  0.63220521997E+02  0.10570502226E+03 -0.57545389967E+02  0.15798208591E+03  0.80476589338E+02 0.  0.
         -6    2    1    2    0  502 -0.65670078644E+02 -0.60458858643E+02  0.18704297533E+03  0.26957207806E+03  0.17238386766E+03 0.  0.
        -24    2    5    5    0    0 -0.94634692459E+02 -0.21087739534E+02  0.18063108708E+03  0.22005201966E+03  0.79968018346E+02 0.  0.
          5    1    3    3  501    0  0.24495566470E+01 -0.45246163612E+02 -0.12554098361E+01  0.45572817592E+02  0.47000000000E+01 0. -1.
        -11    1    4    4    0    0  0.39806287021E+02  0.58429040981E+02  0.10930774656E+02  0.71540024818E+02  0.00000000000E+00 0.  1.
         12    1    4    4    0    0  0.23414234976E+02  0.47275981275E+02 -0.68476164623E+02  0.86442061095E+02  0.00000000000E+00 0. -1.
         -5    1    5    5    0  502  0.28964613815E+02 -0.39371119109E+02  0.64118882476E+01  0.49520058403E+02  0.47000000000E+01 0.  1.
         13    1    6    6    0    0 -0.34041360139E+02 -0.36236609021E+02  0.32785974328E+02  0.59555236093E+02  0.00000000000E+00 0. -1.
        -14    1    6    6    0    0 -0.60593332320E+02  0.15148869487E+02  0.14784511276E+03  0.16049678356E+03  0.00000000000E+00 0.  1.
</event>
<event>
12    1  0.8453150E-002  0.1991364E+03  0.7818608E-02  0.1150746E+00
         21   -1    0    0  503  502  0.00000000000E+00  0.00000000000E+00  0.51466601473E+03  0.51466601473E+03  0.00000000000E+00 0. -1.
         21   -1    0    0  501  503 -0.00000000000E+00 -0.00000000000E+00 -0.82616174362E+02  0.82616174362E+02  0.00000000000E+00 0. -1.
          6    2    1    2  501    0  0.93223765807E+02 -0.34156201992E+02  0.13444501771E+03  0.23919849113E+03  0.17112316829E+03 0.  0.
         24    2    3    3    0    0  0.27699370559E+02  0.32895760902E+02  0.24430596288E+02  0.94579422467E+02  0.80616542376E+02 0.  0.
         -6    2    1    2    0  502 -0.93223765807E+02  0.34156201992E+02  0.29760482266E+03  0.35808369796E+03  0.17262093624E+03 0.  0.
        -24    2    5    5    0    0 -0.67416967604E+02 -0.44344871907E+02  0.13178715202E+03  0.17275696127E+03  0.77237290500E+02 0.  0.
          5    1    3    3  501    0  0.65524395249E+02 -0.67051962894E+02  0.11001442142E+03  0.14461906866E+03  0.47000000000E+01 0. -1.
        -13    1    4    4    0    0 -0.12664972927E+02  0.59506925109E+01  0.40980343601E+02  0.43303589254E+02  0.00000000000E+00 0.  1.
         14    1    4    4    0    0  0.40364343486E+02  0.26945068391E+02 -0.16549747313E+02  0.51275833214E+02  0.00000000000E+00 0. -1.
         -5    1    5    5    0  502 -0.25806798204E+02  0.78501073899E+02  0.16581767064E+03  0.18532673669E+03  0.47000000000E+01 0.  1.
         13    1    6    6    0    0 -0.38079130202E+02 -0.62306709948E+02  0.11002467576E+03  0.13205141248E+03  0.00000000000E+00 0. -1.
        -14    1    6    6    0    0 -0.29337837402E+02  0.17961838041E+02  0.21762476258E+02  0.40705548788E+02  0.00000000000E+00 0.  1.
</event>
<event>
12    1  0.8453150E-002  0.1872685E+03  0.7818608E-02  0.1160962E+00
         21   -1    0    0  501  502  0.00000000000E+00  0.00000000000E+00  0.17011057390E+03  0.17011057390E+03  0.00000000000E+00 0.  1.
         21   -1    0    0  502  503 -0.00000000000E+00 -0.00000000000E+00 -0.86127867046E+03  0.86127867046E+03  0.00000000000E+00 0.  1.
         -6    2    1    2    0  503 -0.70029876457E+02  0.24191183220E+02 -0.79538036567E+03  0.81712875697E+03  0.17198861133E+03 0.  0.
        -24    2    3    3    0    0 -0.18288786467E+02  0.77200078621E+02 -0.50384136749E+03  0.51628966236E+03  0.80028495018E+02 0.  0.
          6    2    1    2  501    0  0.70029876457E+02 -0.24191183220E+02  0.10421226911E+03  0.21426048739E+03  0.17192429288E+03 0.  0.
         24    2    5    5    0    0  0.19772387152E+02  0.32165019925E+02  0.10651883196E+03  0.13856869724E+03  0.80184078792E+02 0.  0.
          5    1    5    5  501    0  0.50257489305E+02 -0.56356203146E+02 -0.23065628523E+01  0.75691790152E+02  0.47000000000E+01 0. -1.
        -13    1    6    6    0    0 -0.14410290145E+02 -0.20953961922E+02  0.32239887561E+02  0.41062578246E+02  0.00000000000E+00 0.  1.
         14    1    6    6    0    0  0.34182677297E+02  0.53118981848E+02  0.74278944398E+02  0.97506118991E+02  0.00000000000E+00 0. -1.
         -5    1    3    3    0  503 -0.51741089990E+02 -0.53008895401E+02 -0.29153899818E+03  0.30083909461E+03  0.47000000000E+01 0.  1.
         11    1    4    4    0    0 -0.29931531319E+02 -0.21994364363E+01 -0.94322002717E+02  0.98981686611E+02  0.00000000000E+00 0. -1.
        -12    1    4    4    0    0  0.11642744852E+02  0.79399515057E+02 -0.40951936477E+03  0.41730797575E+03  0.00000000000E+00 0.  1.
</event>
<event>
12    1  0.8453150E-002  0.1761684E+03  0.7818608E-02  0.1171624E+00
         21   -1    0    0  503  502  0.00000000000E+00  0.00000000000E+00  0.31424870718E+02  0.31424870718E+02  0.00000000000E+00 0.  1.
         21   -1    0    0  501  503 -0.00000000000E+00 -0.00000000000E+00 -0.13293538543E+04  0.13293538543E+04  0.00000000000E+00 0.  1.
          6    2    1    2  501    0  0.36498210569E+02  0.74332611934E+01 -0.99496012433E+03  0.10104360209E+04  0.17218574426E+03 0.  0.
         24    2    3    3    0    0 -0.13467557377E+02 -0.50497445901E+02 -0.65591379999E+03  0.66283417272E+03  0.79967870839E+02 0.  0.
         -6    2    1    2    0  502 -0.36498210569E+02 -0.74332611934E+01 -0.30296885922E+03  0.35034270411E+03  0.17193751167E+03 0.  0.
        -24    2    5    5    0    0  0.38409524909E+00 -0.62121648998E+02 -0.23554128762E+03  0.25589858489E+03  0.78390948281E+02 0.  0.
          5    1    3    3  501    0  0.49965767946E+02  0.57930707094E+02 -0.33904632435E+03  0.34760184816E+03  0.47000000000E+01 0. -1.
        -13    1    4    4    0    0 -0.88174473573E+00 -0.43088114632E+02 -0.63914747964E+03  0.64059883220E+03  0.00000000000E+00 0.  1.
         14    1    4    4    0    0 -0.12585812641E+02 -0.74093312689E+01 -0.16766320350E+02  0.22235340514E+02  0.00000000000E+00 0. -1.
         -5    1    5    5    0  502 -0.36882305818E+02  0.54688387805E+02 -0.67427571597E+02  0.94444119217E+02  0.47000000000E+01 0.  1.
         13    1    6    6    0    0 -0.59144870095E+01 -0.20216442847E+02 -0.19850333933E+03  0.19961778839E+03  0.00000000000E+00 0. -1.
        -14    1    6    6    0    0  0.62985822586E+01 -0.41905206151E+02 -0.37037948292E+02  0.56280796500E+02  0.00000000000E+00 0.  1.
</event>
<event>
12    1  0.8453150E-002  0.2130135E+03  0.7818608E-02  0.1139305E+00
         21   -1    0    0  503  502  0.00000000000E+00  0.00000000000E+00  0.55619470012E+03  0.55619470012E+03  0.00000000000E+00 0. -1.
         21   -1    0    0  501  503 -0.00000000000E+00 -0.00000000000E+00 -0.99282584563E+02  0.99282584563E+02  0.00000000000E+00 0. -1.
          6    2    1    2  501    0  0.12362184700E+03 -0.21362784434E+02  0.89510361592E+02  0.23105592137E+03  0.17215110906E+03 0.  0.
         24    2    3    3    0    0  0.26394269016E+02  0.18084570104E+02 -0.94087007314E+01  0.86777140555E+02  0.80112666668E+02 0.  0.
         -6    2    1    2    0  502 -0.12362184700E+03  0.21362784434E+02  0.36740175396E+03  0.42442136331E+03  0.17149552533E+03 0.  0.
        -24    2    5    5    0    0 -0.93896079116E+02  0.57676216174E+02  0.34730270422E+03  0.37315394284E+03  0.80508863588E+02 0.  0.
          5    1    3    3  501    0  0.97227577988E+02 -0.39447354538E+02  0.98919062324E+02  0.14427878081E+03  0.47000000000E+01 0. -1.
        -11    1    4    4    0    0 -0.21655551627E+02 -0.13335487450E+02 -0.14267723690E+02  0.29161037037E+02  0.00000000000E+00 0.  1.
         12    1    4    4    0    0  0.48049820642E+02  0.31420057554E+02  0.48590229584E+01  0.57616103518E+02  0.00000000000E+00 0. -1.
         -5    1    5    5    0  502 -0.29725767888E+02 -0.36313431740E+02  0.20099049746E+02  0.51267420473E+02  0.47000000000E+01 0.  1.
         11    1    6    6    0    0 -0.82309806697E+02  0.49274224375E+01  0.21193452454E+03  0.22741026024E+03  0.00000000000E+00 0. -1.
        -12    1    6    6    0    0 -0.11586272420E+02  0.52748793737E+02  0.13536817968E+03  0.14574368260E+03  0.00000000000E+00 0.  1.
</event>
<event>
12    1  0.8453150E-002  0.1963580E+03  0.7818608E-02  0.1153869E+00
         21   -1    0    0  501  502  0.00000000000E+00  0.00000000000E+00  0.12217230036E+03  0.12217230036E+03  0.00000000000E+00 0.  1.
         21   -1    0    0  502  503 -0.00000000000E+00 -0.00000000000E+00 -0.35410028210E+03  0.35410028210E+03  0.00000000000E+00 0.  1.
         -6    2    1    2    0  503 -0.49772205747E+02 -0.68661286082E+02 -0.20053698844E+03  0.27742119556E+03  0.17191797852E+03 0.  0.
        -24    2    3    3    0    0  0.95865014542E+01  0.16220831550E+02 -0.14855389507E+03  0.16143515325E+03  0.60316105452E+02 0.  0.
          6    2    1    2  501    0  0.49772205747E+02  0.68661286082E+02 -0.31390993301E+02  0.19885138691E+03  0.17710119973E+03 0.  0.
         24    2    5    5    0    0 -0.21487349641E+02 -0.11267599910E+02  0.14135228658E+02  0.82398486840E+02  0.77466385884E+02 0.  0.
          5    1    5    5  501    0  0.71259555387E+02  0.79928885992E+02 -0.45526221959E+02  0.11645290007E+03  0.47000000000E+01 0. -1.
        -13    1    6    6    0    0  0.88598118317E+01  0.28782022313E+02 -0.30432993519E+00  0.30116335946E+02  0.00000000000E+00 0.  1.
         14    1    6    6    0    0 -0.30347161472E+02 -0.40049622223E+02  0.14439558593E+02  0.52282150893E+02  0.00000000000E+00 0. -1.
         -5    1    3    3    0  503 -0.59358707201E+02 -0.84882117632E+02 -0.51983093368E+02  0.11598604231E+03  0.47000000000E+01 0.  1.
         11    1    4    4    0    0 -0.21756484778E+02 -0.61579715968E-02 -0.26009024132E+02  0.33908907445E+02  0.00000000000E+00 0. -1.
        -12    1    4    4    0    0  0.31342986233E+02  0.16226989522E+02 -0.12254487094E+03  0.12752624580E+03  0.00000000000E+00 0.  1.
</event>
<event>
12    1  0.8453150E-002  0.1890691E+03  0.7818608E-02  0.1160481E+00
         21   -1    0    0  501  502  0.00000000000E+00  0.00000000000E+00  0.92853597894E+02  0.92853597894E+02  0.00000000000E+00 0. -1.
         21   -1    0    0  502  503 -0.00000000000E+00 -0.00000000000E+00 -0.37670363450E+03  0.37670363450E+03  0.00000000000E+00 0. -1.
         -6    2    1    2    0  503 -0.60987249068E+02  0.21206167854E+02 -0.12650879192E+03  0.22748975535E+03  0.17770190841E+03 0.  0.
        -24    2    3    3    0    0 -0.60649421343E+02 -0.50942469765E+02 -0.10081887616E+03  0.15075904566E+03  0.79311767863E+02 0.  0.
          6    2    1    2  501    0  0.60987249068E+02 -0.21206167854E+02 -0.15734124469E+03  0.24206747705E+03  0.17225344716E+03 0.  0.
         24    2    5    5    0    0  0.18327793051E+02  0.19449480335E+02 -0.16198728528E+03  0.18276834880E+03  0.80313127504E+02 0.  0.
          5    1    5    5  501    0  0.42659456017E+02 -0.40655648189E+02  0.46460405890E+01  0.59299128244E+02  0.47000000000E+01 0. -1.
        -11    1    6    6    0    0 -0.13738876952E+02 -0.23769526677E+02 -0.32505815240E+02  0.42548503649E+02  0.00000000000E+00 0.  1.
         12    1    6    6    0    0  0.32066670003E+02  0.43219007012E+02 -0.12948147004E+03  0.14021984515E+03  0.00000000000E+00 0. -1.
         -5    1    3    3    0  503 -0.33782772488E+00  0.72148637619E+02 -0.25689915753E+02  0.76730709688E+02  0.47000000000E+01 0.  1.
         11    1    4    4    0    0 -0.71194612559E+02 -0.15118153402E+02 -0.79390811219E+02  0.10770391045E+03  0.00000000000E+00 0. -1.
        -12    1    4    4    0    0  0.10545191216E+02 -0.35824316363E+02 -0.21428064945E+02  0.43055135210E+02  0.00000000000E+00 0.  1.
</event>
<event>
12    1  0.8453150E-002  0.1869911E+03  0.7818608E-02  0.1162004E+00
         21   -1    0    0  501  502  0.00000000000E+00  0.00000000000E+00  0.37716366247E+03  0.37716366247E+03  0.00000000000E+00 0. -1.
         21   -1    0    0  502  503 -0.00000000000E+00 -0.00000000000E+00 -0.94493376086E+02  0.94493376086E+02  0.00000000000E+00 0.  1.
         -6    2    1    2    0  503 -0.61542701415E+02 -0.31691039213E+02  0.94779549879E+02  0.20657481223E+03  0.16999459965E+03 0.  0.
        -24    2    3    3    0    0 -0.54559519942E+02  0.43381012988E+02  0.40828855322E+02  0.11374515486E+03  0.80076908796E+02 0.  0.
          6    2    1    2  501    0  0.61542701415E+02  0.31691039213E+02  0.18789073651E+03  0.26508222633E+03  0.17370616508E+03 0.  0.
         24    2    5    5    0    0 -0.19100809947E+02 -0.60675389592E+01  0.37719848583E+02  0.90432657960E+02  0.79709614721E+02 0.  0.
          5    1    5    5  501    0  0.80643511362E+02  0.37758578172E+02  0.15017088793E+03  0.17464956837E+03  0.47000000000E+01 0. -1.
        -11    1    6    6    0    0  0.94481632471E+01 -0.35352422177E+02  0.28791324691E+01  0.36706279385E+02  0.00000000000E+00 0.  1.
         12    1    6    6    0    0 -0.28548973194E+02  0.29284883217E+02  0.34840716114E+02  0.53726378575E+02  0.00000000000E+00 0. -1.
         -5    1    3    3    0  503 -0.69831814723E+01 -0.75072052201E+02  0.53950694557E+02  0.92829657375E+02  0.47000000000E+01 0.  1.
         13    1    4    4    0    0  0.32171300865E+01 -0.13438526687E+02  0.28639664002E+02  0.31798966645E+02  0.00000000000E+00 0. -1.
        -14    1    4    4    0    0 -0.57776650029E+02  0.56819539675E+02  0.12189191320E+02  0.81946188212E+02  0.00000000000E+00 0.  1.
</event>
<event>
12    1  0.8453150E-002  0.1972462E+03  0.7818608E-02  0.1152214E+00
         21   -1    0    0  503  502  0.00000000000E+00  0.00000000000E+00  0.25253989028E+03  0.25253989028E+03  0.00000000000E+00 0. -1.
         21   -1    0    0  501  503 -0.00000000000E+00 -0.00000000000E+00 -0.18086530400E+03  0.18086530400E+03  0.00000000000E+00 0. -1.
          6    2    1    2  501    0 -0.86513888832E+00  0.97061264666E+02 -0.48368871975E+02  0.20250158302E+03  0.17101375905E+03 0.  0.
         24    2    3    3    0    0 -0.63949151677E+02  0.50758915512E+02 -0.82175809137E+01  0.11442368351E+03  0.79745151631E+02 0.  0.
         -6    2    1    2    0  502  0.86513888832E+00 -0.97061264666E+02  0.12004345825E+03  0.23090361127E+03  0.17171024508E+03 0.  0.
        -24    2    5    5    0    0  0.12058586405E+02  0.80546862779E+01  0.15916938366E+02  0.82447966197E+02  0.79586624039E+02 0.  0.
          5    1    3    3  501    0  0.63084012789E+02  0.46302349154E+02 -0.40151291062E+02  0.88077899502E+02  0.47000000000E+01 0. -1.
        -13    1    4    4    0    0 -0.49978040718E+02  0.35741226555E+02  0.32000714609E+02  0.69276876121E+02  0.00000000000E+00 0.  1.
         14    1    4    4    0    0 -0.13971110959E+02  0.15017688957E+02 -0.40218295522E+02  0.45146807393E+02  0.00000000000E+00 0. -1.
         -5    1    5    5    0  502 -0.11193447517E+02 -0.10511595094E+03  0.10412651989E+03  0.14845564507E+03  0.47000000000E+01 0.  1.
         11    1    6    6    0    0  0.25758055879E+02  0.15976992890E+02  0.42086614158E+02  0.51865449345E+02  0.00000000000E+00 0. -1.
        -12    1    6    6    0    0 -0.13699469474E+02 -0.79223066124E+01 -0.26169675792E+02  0.30582516852E+02  0.00000000000E+00 0.  1.
</event>
<event>
12    1  0.8453150E-002  0.1844795E+03  0.7818608E-02  0.1163556E+00
         21   -1    0    0  501  502  0.00000000000E+00  0.00000000000E+00  0.10664882276E+04  0.10664882276E+04  0.00000000000E+00 0.  1.
         21   -1    0    0  502  503 -0.00000000000E+00 -0.00000000000E+00 -0.31953900019E+02  0.31953900019E+02  0.00000000000E+00 0.  1.
         -6    2    1    2    0  503 -0.58818964198E+02  0.31633368929E+02  0.49413694159E+03  0.52745046187E+03  0.17196607834E+03 0.  0.
        -24    2    3    3    0    0 -0.33143339959E+02  0.76928494940E+02  0.21785192252E+03  0.24626300148E+03  0.78546364853E+02 0.  0.
          6    2    1    2  501    0  0.58818964198E+02 -0.31633368929E+02  0.54039738601E+03  0.57099166577E+03  0.17187730215E+03 0.  0.
         24    2    5    5    0    0  0.94907725742E+02 -0.18132437911E+02  0.27447917622E+03  0.30225525561E+03  0.81750594219E+02 0.  0.
          5    1    5    5  501    0 -0.36088761544E+02 -0.13500931018E+02  0.26591820979E+03  0.26873641016E+03  0.47000000000E+01 0. -1.
        -13    1    6    6    0    0  0.45147739291E+02 -0.46448548680E+02  0.10505887381E+03  0.12342266001E+03  0.00000000000E+00 0.  1.
         14    1    6    6    0    0  0.49759986451E+02  0.28316110768E+02  0.16942030241E+03  0.17883259560E+03  0.00000000000E+00 0. -1.
         -5    1    3    3    0  503 -0.25675624238E+02 -0.45295126010E+02  0.27628501906E+03  0.28118746039E+03  0.47000000000E+01 0.  1.
         13    1    4    4    0    0 -0.11026288875E+02  0.60008929110E+01  0.13254632682E+03  0.13313947017E+03  0.00000000000E+00 0. -1.
        -14    1    4    4    0    0 -0.22117051085E+02  0.70927602029E+02  0.85305595703E+02  0.11312353131E+03  0.00000000000E+00 0.  1.
</event>
<event>
12    1  0.8453150E-002  0.1850894E+03  0.7818608E-02  0.1164154E+00
         21   -1    0    0  503  502  0.00000000000E+00  0.00000000000E+00  0.12382022453E+03  0.12382022453E+03  0.00000000000E+00 0. -1.
         21   -1    0    0  501  503 -0.00000000000E+00 -0.00000000000E+00 -0.27465289748E+03  0.27465289748E+03  0.00000000000E+00 0. -1.
          6    2    1    2  501    0  0.69384806923E+02  0.76902728127E+00 -0.10240142608E+03  0.20715225518E+03  0.16616606732E+03 0.  0.
         24    2    3    3    0    0  0.61077548060E+02  0.79386299562E+01 -0.13717371845E+03  0.17038792371E+03  0.80136925252E+02 0.  0.
         -6    2    1    2    0  502 -0.69384806923E+02 -0.76902728127E+00 -0.48431246862E+02  0.19132086683E+03  0.17159034231E+03 0.  0.
        -24    2    5    5    0    0 -0.11385047224E+03 -0.11524651269E+02 -0.44318202197E+02  0.14514851606E+03  0.77519294710E+02 0.  0.
          5    1    3    3  501    0  0.83072588628E+01 -0.71696026750E+01  0.34772292369E+02  0.36764331476E+02  0.47000000000E+01 0. -1.
        -13    1    4    4    0    0 -0.29376555493E+01  0.12839609739E+02  0.52367724778E+01  0.14174243696E+02  0.00000000000E+00 0.  1.
         14    1    4    4    0    0  0.64015203609E+02 -0.49009797825E+01 -0.14241049093E+03  0.15621368001E+03  0.00000000000E+00 0. -1.
         -5    1    5    5    0  502  0.44465665313E+02  0.10755623987E+02 -0.41130446651E+01  0.46172350769E+02  0.47000000000E+01 0.  1.
         13    1    6    6    0    0 -0.41111246027E+02 -0.35287423955E+02 -0.42067543322E+02  0.68593112194E+02  0.00000000000E+00 0. -1.
        -14    1    6    6    0    0 -0.72739226209E+02  0.23762772687E+02 -0.22506588746E+01  0.76555403863E+02  0.00000000000E+00 0.  1.
</event>
<event>
12    1  0.8453150E-002  0.1739488E+03  0.7818608E-02  0.1174054E+00
         21   -1    0    0  503  502  0.00000000000E+00  0.00000000000E+00  0.19310846389E+03  0.19310846389E+03  0.00000000000E+00 0. -1.
         21   -1    0    0  501  503 -0.00000000000E+00 -0.00000000000E+00 -0.15850342855E+03  0.15850342855E+03  0.00000000000E+00 0. -1.
          6    2    1    2  501    0  0.19944811185E+02 -0.69475217308E+01 -0.57756969345E+01  0.17404463750E+03  0.17266184759E+03 0.  0.
         24    2    3    3    0    0  0.62837807480E+01 -0.71590032453E+02 -0.12096862614E+02  0.10750648994E+03  0.79036021194E+02 0.  0.
         -6    2    1    2    0  502 -0.19944811185E+02  0.69475217308E+01  0.40380732275E+02  0.17756725495E+03  0.17162011228E+03 0.  0.
        -24    2    5    5    0    0  0.56508214098E+01 -0.63102853245E+02  0.19097252309E+02  0.99867396768E+02  0.74798997461E+02 0.  0.
          5    1    3    3  501    0  0.13661030437E+02  0.64642510722E+02  0.63211656798E+01  0.66538147559E+02  0.47000000000E+01 0. -1.
        -11    1    4    4    0    0 -0.74910466573E+01 -0.41584462038E+02  0.31582636197E+02  0.52752688767E+02  0.00000000000E+00 0.  1.
         12    1    4    4    0    0  0.13774827405E+02 -0.30005570415E+02 -0.43679498812E+02  0.54753801169E+02  0.00000000000E+00 0. -1.
         -5    1    5    5    0  502 -0.25595632594E+02  0.70050374976E+02  0.21283479966E+02  0.77699858183E+02  0.47000000000E+01 0.  1.
         13    1    6    6    0    0 -0.30671126993E+02 -0.46619950667E+02  0.37666736920E+00  0.55805731869E+02  0.00000000000E+00 0. -1.
        -14    1    6    6    0    0  0.36321948402E+02 -0.16482902578E+02  0.18720584940E+02  0.44061664899E+02  0.00000000000E+00 0.  1.
</event>
<event>
12    1  0.8453150E-002  0.1828452E+03  0.7818608E-02  0.1165181E+00
         21   -1    0    0  503  502  0.00000000000E+00  0.00000000000E+00  0.86374861270E+02  0.86374861270E+02  0.00000000000E+00 0. -1.
         21   -1    0    0  501  503 -0.00000000000E+00 -0.00000000000E+00 -0.53389044539E+03  0.53389044539E+03  0.00000000000E+00 0. -1.
          6    2    1    2  501    0  0.13157776789E+01  0.61693805737E+02 -0.38709854295E+03  0.42810940809E+03  0.17211776898E+03 0.  0.
         24    2    3    3    0    0  0.22450875428E+01 -0.29727674186E+02 -0.12783477094E+03  0.15315751395E+03  0.78909570962E+02 0.  0.
         -6    2    1    2    0  502 -0.13157776789E+01 -0.61693805737E+02 -0.60417041163E+02  0.19215589857E+03  0.17165609093E+03 0.  0.
        -24    2    5    5    0    0 -0.37358225771E+02 -0.92142799192E+02 -0.18196244486E+02  0.12866664799E+03  0.79611999824E+02 0.  0.
          5    1    3    3  501    0 -0.92930986385E+00  0.91421479923E+02 -0.25926377202E+03  0.27495189414E+03  0.47000000000E+01 0. -1.
        -11    1    4    4    0    0  0.26856193752E+02 -0.43919437673E+02 -0.56829256796E+02  0.76679440376E+02  0.00000000000E+00 0.  1.
         12    1    4    4    0    0 -0.24611106210E+02  0.14191763487E+02 -0.71005514139E+02  0.76478073576E+02  0.00000000000E+00 0. -1.
         -5    1    5    5    0  502  0.36042448092E+02  0.30448993455E+02 -0.42220796677E+02  0.63489250578E+02  0.47000000000E+01 0.  1.
         13    1    6    6    0    0 -0.29865505208E+02 -0.10529145006E+03 -0.24695010580E+02  0.11219661940E+03  0.00000000000E+00 0. -1.
        -14    1    6    6    0    0 -0.74927205627E+01  0.13148650868E+02  0.64987660936E+01  0.16470028592E+02  0.00000000000E+00 0.  1.
</event>
<event>
12    1  0.8453150E-002  0.1841995E+03  0.7818608E-02  0.1164023E+00
         21   -1    0    0  501  502  0.00000000000E+00  0.00000000000E+00  0.39006148953E+03  0.39006148953E+03  0.00000000000E+00 0.  1.
         21   -1    0    0  502  503 -0.00000000000E+00 -0.00000000000E+00 -0.56658211153E+03  0.56658211153E+03  0.00000000000E+00 0. -1.
         -6    2    1    2    0  503 -0.57390627221E+02 -0.21663569963E+02 -0.52850631912E+03  0.55937369177E+03  0.17267600685E+03 0.  0.
        -24    2    3    3    0    0  0.26131513999E+01  0.35630596925E+02 -0.35369738710E+03  0.36581923504E+03  0.86287328641E+02 0.  0.
          6    2    1    2  501    0  0.57390627221E+02  0.21663569963E+02  0.35198569711E+03  0.39726990929E+03  0.17368493170E+03 0.  0.
         24    2    5    5    0    0  0.89367357521E+01 -0.24095940634E+02  0.97246416552E+02  0.13391481921E+03  0.88407203735E+02 0.  0.
          5    1    5    5  501    0  0.48453891469E+02  0.45759510597E+02  0.25473928056E+03  0.26335509008E+03  0.47000000000E+01 0. -1.
        -11    1    6    6    0    0  0.10885004821E+02 -0.37320457106E+02  0.10924280969E+03  0.11595383270E+03  0.00000000000E+00 0.  1.
         12    1    6    6    0    0 -0.19482690694E+01  0.13224516472E+02 -0.11996393138E+02  0.17960986516E+02  0.00000000000E+00 0. -1.
         -5    1    3    3    0  503 -0.60003778621E+02 -0.57294166888E+02 -0.17480893202E+03  0.19355445673E+03  0.47000000000E+01 0.  1.
         11    1    4    4    0    0 -0.10902871401E+01  0.17688055239E+01 -0.31186613995E+03  0.31187306175E+03  0.00000000000E+00 0. -1.
        -12    1    4    4    0    0  0.37034385400E+01  0.33861791401E+02 -0.41831247148E+02  0.53946173283E+02  0.00000000000E+00 0.  1.
</event>
<event>
12    1  0.8453150E-002  0.1830411E+03  0.7818608E-02  0.1165662E+00
         21   -1    0    0  501  502  0.00000000000E+00  0.00000000000E+00  0.13917548175E+03  0.13917548175E+03  0.00000000000E+00 0.  1.
         21   -1    0    0  502  503 -0.00000000000E+00 -0.00000000000E+00 -0.26715283301E+03  0.26715283301E+03  0.00000000000E+00 0. -1.
         -6    2    1    2    0  503  0.37353085891E+01  0.62402996578E+02 -0.13329196134E+03  0.22643056391E+03  0.17203478369E+03 0.  0.
        -24    2    3    3    0    0 -0.20446964354E+02 -0.61786150408E+01 -0.12963608801E+03  0.15346704435E+03  0.79311819733E+02 0.  0.
          6    2    1    2  501    0 -0.37353085891E+01 -0.62402996578E+02  0.53146100850E+01  0.17989775085E+03  0.16860269621E+03 0.  0.
         24    2    5    5    0    0 -0.12987248968E+02 -0.13240115670E+02  0.63140106118E+02  0.10329184213E+03  0.79615088710E+02 0.  0.
          5    1    5    5  501    0  0.92519403792E+01 -0.49162880909E+02 -0.57825496033E+02  0.76605908725E+02  0.47000000000E+01 0. -1.
        -13    1    6    6    0    0 -0.92546502024E+01 -0.25893079112E+02 -0.97825181344E+01  0.29185574473E+02  0.00000000000E+00 0.  1.
         14    1    6    6    0    0 -0.37325987659E+01  0.12652963443E+02  0.72922624252E+02  0.74106267652E+02  0.00000000000E+00 0. -1.
         -5    1    3    3    0  503  0.24182272943E+02  0.68581611619E+02 -0.36558733272E+01  0.72963519561E+02  0.47000000000E+01 0.  1.
         11    1    4    4    0    0 -0.49961552153E+02 -0.13396553061E+02 -0.79754573363E+02  0.95060066799E+02  0.00000000000E+00 0. -1.
        -12    1    4    4    0    0  0.29514587799E+02  0.72179380206E+01 -0.49881514651E+02  0.58406977547E+02  0.00000000000E+00 0.  1.
</event>
<event>
12    1  0.8453150E-002  0.1825212E+03  0.7818608E-02  0.1165816E+00
         21   -1    0    0  501  502  0.00000000000E+00  0.00000000000E+00  0.56074807191E+03  0.56074807191E+03  0.00000000000E+00 0. -1.
         21   -1    0    0  502  503 -0.00000000000E+00 -0.00000000000E+00 -0.58836695854E+02  0.58836695854E+02  0.00000000000E+00 0. -1.
         -6    2    1    2    0  503  0.12903553285E+02  0.57781837393E+02  0.25426316332E+03  0.31194272230E+03  0.17074326739E+03 0.  0.
        -24    2    3    3    0    0  0.58499632026E+02  0.51209510517E+02  0.96536193283E+02  0.14755876642E+03  0.80060802010E+02 0.  0.
          6    2    1    2  501    0 -0.12903553285E+02 -0.57781837393E+02  0.24764821274E+03  0.30764204546E+03  0.17265210234E+03 0.  0.
         24    2    5    5    0    0  0.54281569201E+02 -0.19811016925E+02  0.17988616231E+03  0.20483441263E+03  0.79114727190E+02 0.  0.
          5    1    5    5  501    0 -0.67185122486E+02 -0.37970820468E+02  0.67762050429E+02  0.10280763283E+03  0.47000000000E+01 0. -1.
        -13    1    6    6    0    0  0.22376775818E+02 -0.10528116772E+02  0.30658036040E+01  0.24919078846E+02  0.00000000000E+00 0.  1.
         14    1    6    6    0    0  0.31904793383E+02 -0.92829001532E+01  0.17682035871E+03  0.17991533378E+03  0.00000000000E+00 0. -1.
         -5    1    3    3    0  503 -0.45596078741E+02  0.65723268766E+01  0.15772697003E+03  0.16438395589E+03  0.47000000000E+01 0.  1.
         11    1    4    4    0    0  0.54662061282E+00  0.51640840443E+02  0.59473016430E+02  0.78766203914E+02  0.00000000000E+00 0. -1.
        -12    1    4    4    0    0  0.57953011413E+02 -0.43132992620E+00  0.37063176853E+02  0.68792562503E+02  0.00000000000E+00 0.  1.
</event>
<event>
12    1  0.8453150E-002  0.1975430E+03  0.7818608E-02  0.1152086E+00
         21   -1    0    0  503  502  0.00000000000E+00  0.00000000000E+00  0.16577589367E+03  0.16577589367E+03  0.00000000000E+00 0. -1.
         21   -1    0    0  501  503 -0.00000000000E+00 -0.00000000000E+00 -0.29350130481E+03  0.29350130481E+03  0.00000000000E+00 0. -1.
          6    2    1    2  501    0 -0.17736421023E+02  0.93246754756E+02 -0.16712825192E+03  0.25784278811E+03  0.17187644658E+03 0.  0.
         24    2    3    3    0    0  0.52711745854E+02  0.73902822955E+02 -0.10055185776E+03  0.15889008137E+03  0.83037500351E+02 0.  0.
         -6    2    1    2    0  502  0.17736421023E+02 -0.93246754756E+02  0.39402840776E+02  0.20143441038E+03  0.17324462450E+03 0.  0.
        -24    2    5    5    0    0  0.47320690794E+02 -0.36148437229E+02 -0.15033642724E+02  0.11704917696E+03  0.99642070045E+02 0.  0.
          5    1    3    3  501    0 -0.70448166877E+02  0.19343931801E+02 -0.66576394151E+02  0.98952706744E+02  0.47000000000E+01 0. -1.
        -13    1    4    4    0    0  0.66318775141E+02  0.44045749416E+02 -0.97590950644E+02  0.12594523264E+03  0.00000000000E+00 0.  1.
         14    1    4    4    0    0 -0.13607029287E+02  0.29857073539E+02 -0.29609071205E+01  0.32944848722E+02  0.00000000000E+00 0. -1.
         -5    1    5    5    0  502 -0.29584269772E+02 -0.57098317527E+02  0.54436483500E+02  0.84385233413E+02  0.47000000000E+01 0.  1.
         13    1    6    6    0    0  0.52076173074E+02 -0.61454884462E+02  0.99587742895E+01  0.81165311628E+02  0.00000000000E+00 0. -1.
        -14    1    6    6    0    0 -0.47554822795E+01  0.25306447233E+02 -0.24992417013E+02  0.35883865336E+02  0.00000000000E+00 0.  1.
</event>
<event>
12    1  0.8453150E-002  0.2082217E+03  0.7818608E-02  0.1144207E+00
         21   -1    0    0  501  502  0.00000000000E+00  0.00000000000E+00  0.18992660506E+03  0.18992660506E+03  0.00000000000E+00 0. -1.
         21   -1    0    0  502  503 -0.00000000000E+00 -0.00000000000E+00 -0.22862470017E+03  0.22862470017E+03  0.00000000000E+00 0.  1.
         -6    2    1    2    0  503 -0.63236058852E+02  0.87096751913E+02 -0.55982642105E+02  0.21561614884E+03  0.17824596515E+03 0.  0.
        -24    2    3    3    0    0  0.15213003540E+02 -0.15081925366E+01  0.14232737545E+02  0.77930343073E+02  0.75079007932E+02 0.  0.
          6    2    1    2  501    0  0.63236058852E+02 -0.87096751913E+02  0.17284546999E+02  0.20293515639E+03  0.17117032103E+03 0.  0.
         24    2    5    5    0    0  0.52680734167E+02 -0.12354554681E+03 -0.11250275664E+02  0.15522503553E+03  0.77003123727E+02 0.  0.
          5    1    5    5  501    0  0.10555324685E+02  0.36448794893E+02  0.28534822663E+02  0.47710120863E+02  0.47000000000E+01 0. -1.
        -11    1    6    6    0    0  0.17817863680E+02 -0.16802817843E+02 -0.32748965292E+02  0.40893834270E+02  0.00000000000E+00 0.  1.
         12    1    6    6    0    0  0.34862870487E+02 -0.10674272896E+03  0.21498689628E+02  0.11433120126E+03  0.00000000000E+00 0. -1.
         -5    1    3    3    0  503 -0.78449062392E+02  0.88604944450E+02 -0.70215379650E+02  0.13768580577E+03  0.47000000000E+01 0.  1.
         13    1    4    4    0    0  0.99775058612E+01  0.16551102456E+02  0.40937573426E+02  0.45270018044E+02  0.00000000000E+00 0. -1.
        -14    1    4    4    0    0  0.52354976789E+01 -0.18059294992E+02 -0.26704835881E+02  0.32660325029E+02  0.00000000000E+00 0.  1.
</event>
<event>
12    1  0.8453150E-002  0.3518544E+03  0.7818608E-02  0.1062065E+00
         21   -1    0    0  501  502  0.00000000000E+00  0.00000000000E+00  0.19664947993E+04  0.19664947993E+04  0.00000000000E+00 0. -1.
         21   -1    0    0  502  503 -0.00000000000E+00 -0.00000000000E+00 -0.99874452563E+02  0.99874452563E+02  0.00000000000E+00 0.  1.
         -6    2    1    2    0  503 -0.30033730647E+03  0.53013018240E+02  0.30034080902E+03  0.46105522980E+03  0.17133139117E+03 0.  0.
        -24    2    3    3    0    0 -0.25989568234E+03  0.75667375905E+02  0.30354686977E+03  0.41435283468E+03  0.79222799686E+02 0.  0.
          6    2    1    2  501    0  0.30033730647E+03 -0.53013018240E+02  0.15662795377E+04  0.16053140221E+04  0.17546692393E+03 0.  0.
         24    2    5    5    0    0  0.24299429621E+03  0.50581469993E+01  0.96257968711E+03  0.99610463221E+03  0.81197114685E+02 0.  0.
          5    1    5    5  501    0  0.57343010261E+02 -0.58071165240E+02  0.60369985062E+03  0.60920938986E+03  0.47000000000E+01 0. -1.
        -11    1    6    6    0    0  0.26247330473E+02  0.23438949321E+02  0.85613353467E+02  0.92563237811E+02  0.00000000000E+00 0.  1.
         12    1    6    6    0    0  0.21674696574E+03 -0.18380802322E+02  0.87696633364E+03  0.90354139440E+03  0.00000000000E+00 0. -1.
         -5    1    3    3    0  503 -0.40441624138E+02 -0.22654357664E+02 -0.32060607500E+01  0.46702395116E+02  0.47000000000E+01 0.  1.
         11    1    4    4    0    0 -0.23905283505E+03  0.54366837944E+02  0.29454450017E+03  0.38322118103E+03  0.00000000000E+00 0. -1.
        -12    1    4    4    0    0 -0.20842847286E+02  0.21300537960E+02  0.90023695966E+01  0.31131653646E+02  0.00000000000E+00 0.  1.
</event>
<event>
12    1  0.8453150E-002  0.2256009E+03  0.7818608E-02  0.1129791E+00
         21   -1    0    0  503  502  0.00000000000E+00  0.00000000000E+00  0.10346910785E+03  0.10346910785E+03  0.00000000000E+00 0.  1.
         21   -1    0    0  501  503 -0.00000000000E+00 -0.00000000000E+00 -0.49356596398E+03  0.49356596398E+03  0.00000000000E+00 0.  1.
          6    2    1    2  501    0  0.75516851317E+02  0.12390071347E+03 -0.17665481283E+03  0.28646580938E+03  0.17263127011E+03 0.  0.
         24    2    3    3    0    0  0.43522490036E+02  0.12644777895E+03 -0.61725939650E+02  0.16704695582E+03  0.78812092221E+02 0.  0.
         -6    2    1    2    0  502 -0.75516851317E+02 -0.12390071347E+03 -0.21344204329E+03  0.31056926245E+03  0.17274715426E+03 0.  0.
        -24    2    5    5    0    0 -0.43777768896E+02  0.78727569851E+01 -0.60671877611E+02  0.10628409317E+03  0.75078348245E+02 0.  0.
          5    1    3    3  501    0  0.31994361281E+02 -0.25470654881E+01 -0.11492887318E+03  0.11941885357E+03  0.47000000000E+01 0. -1.
        -13    1    4    4    0    0  0.26945672520E+02  0.33979321760E+01 -0.26593105968E+02  0.38010636613E+02  0.00000000000E+00 0.  1.
         14    1    4    4    0    0  0.16576817516E+02  0.12304984678E+03 -0.35132833682E+02  0.12903631920E+03  0.00000000000E+00 0. -1.
         -5    1    5    5    0  502 -0.31739082421E+02 -0.13177347045E+03 -0.15277016568E+03  0.20428516929E+03  0.47000000000E+01 0.  1.
         13    1    6    6    0    0  0.18400403957E+02  0.13408183828E+02 -0.27136426234E+02  0.35422307775E+02  0.00000000000E+00 0. -1.
        -14    1    6    6    0    0 -0.62178172853E+02 -0.55354268429E+01 -0.33535451377E+02  0.70861785390E+02  0.00000000000E+00 0.  1.
</event>
<event>
12    1  0.8453150E-002  0.1925979E+03  0.7818608E-02  0.1156186E+00
         21   -1    0    0  501  502  0.00000000000E+00  0.00000000000E+00  0.10186767545E+03  0.10186767545E+03  0.00000000000E+00 0.  1.
         21   -1    0    0  502  503 -0.00000000000E+00 -0.00000000000E+00 -0.39671414355E+03  0.39671414355E+03  0.00000000000E+00 0.  1.
         -6    2    1    2    0  503  0.75053350001E+02  0.42448350082E+02 -0.21922696525E+03  0.29167060363E+03  0.17197793742E+03 0.  0.
        -24    2    3    3    0    0 -0.25976596263E+02  0.51236669342E+01 -0.10093840497E+03  0.13162543654E+03  0.80222555633E+02 0.  0.
          6    2    1    2  501    0 -0.75053350001E+02 -0.42448350082E+02 -0.75619502850E+02  0.20691121536E+03  0.17221810027E+03 0.  0.
         24    2    5    5    0    0  0.32383840153E+01 -0.24284668807E+02 -0.91377593595E+02  0.12487511138E+03  0.81508874118E+02 0.  0.
          5    1    5    5  501    0 -0.78291734016E+02 -0.18163681274E+02  0.15758090744E+02  0.82036103982E+02  0.47000000000E+01 0. -1.
        -11    1    6    6    0    0 -0.32698379238E+02  0.45715033452E+01 -0.16400333471E+02  0.36865343964E+02  0.00000000000E+00 0.  1.
         12    1    6    6    0    0  0.35936763253E+02 -0.28856172153E+02 -0.74977260123E+02  0.88009767412E+02  0.00000000000E+00 0. -1.
         -5    1    3    3    0  503  0.10102994626E+03  0.37324683148E+02 -0.11828856028E+03  0.16004516709E+03  0.47000000000E+01 0.  1.
         13    1    4    4    0    0 -0.15838760849E+02 -0.21246174891E+02 -0.99899800071E+02  0.10335490480E+03  0.00000000000E+00 0. -1.
        -14    1    4    4    0    0 -0.10137835415E+02  0.26369841825E+02 -0.10386048944E+01  0.28270531741E+02  0.00000000000E+00 0.  1.
</event>
<event>
12    1  0.8453150E-002  0.1747597E+03  0.7818608E-02  0.1173813E+00
         21   -1    0    0  501  502  0.00000000000E+00  0.00000000000E+00  0.15065323440E+03  0.15065323440E+03  0.00000000000E+00 0. -1.
         21   -1    0    0  502  503 -0.00000000000E+00 -0.00000000000E+00 -0.24519694662E+03  0.24519694662E+03  0.00000000000E+00 0. -1.
         -6    2    1    2    0  503  0.27302276737E+02 -0.21658424649E+02 -0.13290026923E+03  0.21693071367E+03  0.16787480841E+03 0.  0.
        -24    2    3    3    0    0 -0.65707443780E+01 -0.62567837956E+02 -0.12458719041E+03  0.16296629080E+03  0.84131652153E+02 0.  0.
          6    2    1    2  501    0 -0.27302276737E+02  0.21658424649E+02  0.38356557010E+02  0.17891946735E+03  0.17124966761E+03 0.  0.
         24    2    5    5    0    0  0.29000905221E+01 -0.51605461120E+02  0.12724407654E+02  0.95499583471E+02  0.79288875327E+02 0.  0.
          5    1    5    5  501    0 -0.30202367259E+02  0.73263885768E+02  0.25632149355E+02  0.83419883880E+02  0.47000000000E+01 0. -1.
        -11    1    6    6    0    0 -0.22096042469E+02  0.49646835159E+01 -0.15575326941E+02  0.27485887007E+02  0.00000000000E+00 0.  1.
         12    1    6    6    0    0  0.24996132991E+02 -0.56570144635E+02  0.28299734596E+02  0.68013696465E+02  0.00000000000E+00 0. -1.
         -5    1    3    3    0  503  0.33873021115E+02  0.40909413307E+02 -0.83130788264E+01  0.53964422875E+02  0.47000000000E+01 0.  1.
         13    1    4    4    0    0  0.45129941646E+00 -0.14473239128E+02 -0.11176472333E+03  0.11269885405E+03  0.00000000000E+00 0. -1.
        -14    1    4    4    0    0 -0.70220437944E+01 -0.48094598828E+02 -0.12822467076E+02  0.50267436750E+02  0.00000000000E+00 0.  1.
</event>
<event>
12    1  0.8453150E-002  0.1917347E+03  0.7818608E-02  0.1157356E+00
         21   -1    0    0  501  502  0.00000000000E+00  0.00000000000E+00  0.33073877799E+03  0.33073877799E+03  0.00000000000E+00 0. -1.
         21   -1    0    0  502  503 -0.00000000000E+00 -0.00000000000E+00 -0.11931167263E+03  0.11931167263E+03  0.00000000000E+00 0.  1.
         -6    2    1    2    0  503 -0.51116305250E+02 -0.59221716959E+02  0.43334211907E+02  0.19657067683E+03  0.17504881790E+03 0.  0.
        -24    2    3    3    0    0 -0.47338704895E+01  0.18889927647E+02 -0.22125523805E+02  0.84500046083E+02  0.79192676985E+02 0.  0.
          6    2    1    2  501    0  0.51116305250E+02  0.59221716959E+02  0.16809289345E+03  0.25347977379E+03  0.17284873870E+03 0.  0.
         24    2    5    5    0    0 -0.34509957043E+02  0.23521500203E+02  0.12830295208E+03  0.15242685842E+03  0.70909107664E+02 0.  0.
          5    1    5    5  501    0  0.85626262292E+02  0.35700216756E+02  0.39789941372E+02  0.10105291537E+03  0.47000000000E+01 0. -1.
        -11    1    6    6    0    0 -0.12841884097E+02 -0.13624665298E+02  0.17940987828E+01  0.18808622546E+02  0.00000000000E+00 0.  1.
         12    1    6    6    0    0 -0.21668072945E+02  0.37146165501E+02  0.12650885329E+03  0.13361823587E+03  0.00000000000E+00 0. -1.
         -5    1    3    3    0  503 -0.46382434760E+02 -0.78111644606E+02  0.65459735712E+02  0.11207063075E+03  0.47000000000E+01 0.  1.
         13    1    4    4    0    0  0.28050314198E+02  0.33311451049E+02 -0.24074214155E+01  0.43615004018E+02  0.00000000000E+00 0. -1.
        -14    1    4    4    0    0 -0.32784184687E+02 -0.14421523402E+02 -0.19718102389E+02  0.40885042065E+02  0.00000000000E+00 0.  1.
</event>
<event>
12    1  0.8453150E-002  0.1780109E+03  0.7818608E-02  0.1170837E+00
         21   -1    0    0  501  502  0.00000000000E+00  0.00000000000E+00  0.25921018397E+03  0.25921018397E+03  0.00000000000E+00 0.  1.
         21   -1    0    0  502  503 -0.00000000000E+00 -0.00000000000E+00 -0.12643578873E+03  0.12643578873E+03  0.00000000000E+00 0.  1.
         -6    2    1    2    0  503 -0.22346644162E+02 -0.14167057769E+02  0.11314971420E+03  0.21092829428E+03  0.17603354645E+03 0.  0.
        -24    2    3    3    0    0  0.12208968487E+00  0.53611505482E+02  0.37200923638E+02  0.10657750883E+03  0.84265344262E+02 0.  0.
          6    2    1    2  501    0  0.22346644162E+02  0.14167057769E+02  0.19624681036E+02  0.17471767842E+03  0.17158397657E+03 0.  0.
         24    2    5    5    0    0  0.72494143542E+02  0.34100959413E+02  0.37561381368E+02  0.11765676932E+03  0.77549865989E+02 0.  0.
          5    1    5    5  501    0 -0.50147499380E+02 -0.19933901643E+02 -0.17936700331E+02  0.57060909102E+02  0.47000000000E+01 0. -1.
        -13    1    6    6    0    0  0.48189965656E+02  0.55881594952E+02  0.90916347594E+01  0.74348391152E+02  0.00000000000E+00 0.  1.
         14    1    6    6    0    0  0.24304177887E+02 -0.21780635540E+02  0.28469746608E+02  0.43308378164E+02  0.00000000000E+00 0. -1.
         -5    1    3    3    0  503 -0.22468733847E+02 -0.67778563251E+02  0.75948790559E+02  0.10435078545E+03  0.47000000000E+01 0.  1.
         11    1    4    4    0    0  0.26134818676E+02 -0.10676395635E+02  0.21461062559E+02  0.35462534837E+02  0.00000000000E+00 0. -1.
        -12    1    4    4    0    0 -0.26012728991E+02  0.64287901117E+02  0.15739861080E+02  0.71114973995E+02  0.00000000000E+00 0.  1.
</event>
<event>
12    1  0.8453150E-002  0.2136871E+03  0.7818608E-02  0.1139458E+00
         21   -1    0    0  501  502  0.00000000000E+00  0.00000000000E+00  0.91284339348E+03  0.91284339348E+03  0.00000000000E+00 0.  1.
         21   -1    0    0  502  503 -0.00000000000E+00 -0.00000000000E+00 -0.33415333312E+03  0.33415333312E+03  0.00000000000E+00 0.  1.
         -6    2    1    2    0  503  0.11505673036E+03  0.53821573375E+02 -0.28692970592E+03  0.35539157985E+03  0.16685234768E+03 0.  0.
        -24    2    3    3    0    0  0.11917223975E+03 -0.10154271822E+02 -0.22309853664E+03  0.26480264919E+03  0.77732580076E+02 0.  0.
          6    2    1    2  501    0 -0.11505673036E+03 -0.53821573375E+02  0.86561976628E+03  0.89160514675E+03  0.17183522627E+03 0.  0.
         24    2    5    5    0    0 -0.10488266584E+03  0.21201659486E+02  0.63305407776E+03  0.64698117709E+03  0.79857962555E+02 0.  0.
          5    1    5    5  501    0 -0.10174064520E+02 -0.75023232861E+02  0.23256568852E+03  0.24462396967E+03  0.47000000000E+01 0. -1.
        -11    1    6    6    0    0 -0.11507190045E+02 -0.22793919648E+02  0.20857602685E+03  0.21013314154E+03  0.00000000000E+00 0.  1.
         12    1    6    6    0    0 -0.93375475798E+02  0.43995579134E+02  0.42447805090E+03  0.43684803555E+03  0.00000000000E+00 0. -1.
         -5    1    3    3    0  503 -0.41155093837E+01  0.63975845197E+02 -0.63831169276E+02  0.90588930656E+02  0.47000000000E+01 0.  1.
         13    1    4    4    0    0  0.53179569594E+02 -0.33467365102E+02 -0.58121741969E+02  0.85593621483E+02  0.00000000000E+00 0. -1.
        -14    1    4    4    0    0  0.65992670153E+02  0.23313093280E+02 -0.16497679467E+03  0.17920902771E+03  0.00000000000E+00 0.  1.
</event>
<event>
12    1  0.8453150E-002  0.2075679E+03  0.7818608E-02  0.1143597E+00
         21   -1    0    0  501  502  0.00000000000E+00  0.00000000000E+00  0.21539230210E+03  0.21539230210E+03  0.00000000000E+00 0.  1.
         21   -1    0    0  502  503 -0.00000000000E+00 -0.00000000000E+00 -0.20884117903E+03  0.20884117903E+03  0.00000000000E+00 0.  1.
         -6    2    1    2    0  503 -0.34977406865E+02  0.11087340663E+03 -0.41360021801E+02  0.21120786691E+03  0.17141114419E+03 0.  0.
        -24    2    3    3    0    0 -0.14030007683E+02  0.87302156702E+02 -0.89659938672E+02  0.15333413085E+03  0.87486818441E+02 0.  0.
          6    2    1    2  501    0  0.34977406865E+02 -0.11087340663E+03  0.47911144873E+02  0.21302561422E+03  0.17195378223E+03 0.  0.
         24    2    5    5    0    0 -0.30520662731E+02 -0.78894237073E+02 -0.13631520280E+02  0.11751512244E+03  0.80424959809E+02 0.  0.
          5    1    5    5  501    0  0.65498069596E+02 -0.31979169556E+02  0.61542665152E+02  0.95510491781E+02  0.47000000000E+01 0. -1.
        -11    1    6    6    0    0  0.48952080875E+01 -0.63193569735E+01 -0.33426694433E+02  0.34369190207E+02  0.00000000000E+00 0.  1.
         12    1    6    6    0    0 -0.35415870819E+02 -0.72574880100E+02  0.19795174153E+02  0.83145932234E+02  0.00000000000E+00 0. -1.
         -5    1    3    3    0  503 -0.20947399181E+02  0.23571249926E+02  0.48299916871E+02  0.57873736058E+02  0.47000000000E+01 0.  1.
         13    1    4    4    0    0 -0.80331303784E+01 -0.17511590273E+02 -0.11364466286E+02  0.22368238007E+02  0.00000000000E+00 0. -1.
        -14    1    4    4    0    0 -0.59968773049E+01  0.10481374698E+03 -0.78295472386E+02  0.13096589284E+03  0.00000000000E+00 0.  1.
</event>
<event>
12    1  0.8453150E-002  0.2768144E+03  0.7818608E-02  0.1097455E+00
         21   -1    0    0  503  502  0.00000000000E+00  0.00000000000E+00  0.51751214670E+03  0.51751214670E+03  0.00000000000E+00 0. -1.
         21   -1    0    0  501  503 -0.00000000000E+00 -0.00000000000E+00 -0.48291946944E+03  0.48291946944E+03  0.00000000000E+00 0.  1.
          6    2    1    2  501    0 -0.44663906532E+01  0.21667474530E+03 -0.39926490592E+03  0.48583811629E+03  0.17221590010E+03 0.  0.
         24    2    3    3    0    0 -0.43398034890E+02  0.21956171904E+03 -0.35467707295E+03  0.42638921058E+03  0.76949301046E+02 0.  0.
         -6    2    1    2    0  502  0.44663906532E+01 -0.21667474530E+03  0.43385758319E+03  0.51459349984E+03  0.17206444635E+03 0.  0.
        -24    2    5    5    0    0  0.13315387260E+01 -0.22223048361E+03  0.30636357893E+03  0.38685351140E+03  0.80055205648E+02 0.  0.
          5    1    3    3  501    0  0.38931644237E+02 -0.28869737396E+01 -0.44587832978E+02  0.59448905710E+02  0.47000000000E+01 0. -1.
        -13    1    4    4    0    0 -0.19839936218E+02  0.11380928505E+03 -0.25155445532E+03  0.27681369262E+03  0.00000000000E+00 0.  1.
         14    1    4    4    0    0 -0.23558098673E+02  0.10575243399E+03 -0.10312261762E+03  0.14957551796E+03  0.00000000000E+00 0. -1.
         -5    1    5    5    0  502  0.31348519272E+01  0.55557383105E+01  0.12749400426E+03  0.12773998844E+03  0.47000000000E+01 0.  1.
         13    1    6    6    0    0 -0.13678426696E+02 -0.26480844836E+02  0.89463916130E+02  0.94298074155E+02  0.00000000000E+00 0. -1.
        -14    1    6    6    0    0  0.15009965422E+02 -0.19574963877E+03  0.21689966280E+03  0.29255543725E+03  0.00000000000E+00 0.  1.
</event>
<event>
12    1  0.8453150E-002  0.2172810E+03  0.7818608E-02  0.1137680E+00
         21   -1    0    0  501  502  0.00000000000E+00  0.00000000000E+00  0.18766913085E+03  0.18766913085E+03  0.00000000000E+00 0. -1.
         21   -1    0    0  502  503 -0.00000000000E+00 -0.00000000000E+00 -0.46618587368E+03  0.46618587368E+03  0.00000000000E+00 0. -1.
         -6    2    1    2    0  503  0.10536455228E+03 -0.54389743293E+02 -0.36788060554E+03  0.42725541131E+03  0.18207447242E+03 0.  0.
        -24    2    3    3    0    0  0.10924973349E+02  0.21060599287E+02 -0.80093229259E+02  0.11507717342E+03  0.79151289211E+02 0.  0.
          6    2    1    2  501    0 -0.10536455228E+03  0.54389743293E+02  0.89363862720E+02  0.22659959322E+03  0.17117693370E+03 0.  0.
         24    2    5    5    0    0 -0.92506304913E+02  0.76800131170E+02  0.11854254696E+02  0.14476201416E+03  0.79748609971E+02 0.  0.
          5    1    5    5  501    0 -0.12858247370E+02 -0.22410387877E+02  0.77509608024E+02  0.81837579059E+02  0.47000000000E+01 0. -1.
        -11    1    6    6    0    0 -0.60795880684E+02  0.87951785863E+01 -0.17991594105E+02  0.64009309736E+02  0.00000000000E+00 0.  1.
         12    1    6    6    0    0 -0.31710424229E+02  0.68004952584E+02  0.29845848801E+02  0.80752704422E+02  0.00000000000E+00 0. -1.
         -5    1    3    3    0  503  0.94439578933E+02 -0.75450342580E+02 -0.28778737628E+03  0.31217823789E+03  0.47000000000E+01 0.  1.
         11    1    4    4    0    0  0.11978966151E+02 -0.26907355833E+02 -0.12059051534E+02  0.31826437939E+02  0.00000000000E+00 0. -1.
        -12    1    4    4    0    0 -0.10539928024E+01  0.47967955119E+02 -0.68034177725E+02  0.83250735480E+02  0.00000000000E+00 0.  1.
</event>
<event>
12    1  0.8453150E-002  0.1822690E+03  0.7818608E-02  0.1165915E+00
         21   -1    0    0  501  502  0.00000000000E+00  0.00000000000E+00  0.42132666595E+03  0.42132666595E+03  0.00000000000E+00 0.  1.
         21   -1    0    0  502  503 -0.00000000000E+00 -0.00000000000E+00 -0.78394168566E+02  0.78394168566E+02  0.00000000000E+00 0.  1.
         -6    2    1    2    0  503  0.38339728423E+02  0.48391918260E+02  0.16469039636E+03  0.24565198743E+03  0.17149419742E+03 0.  0.
        -24    2    3    3    0    0  0.85022125314E+02  0.38725926119E+02  0.76255227012E+02  0.14507591294E+03  0.80645531315E+02 0.  0.
          6    2    1    2  501    0 -0.38339728423E+02 -0.48391918260E+02  0.17824210103E+03  0.25406884709E+03  0.17020287880E+03 0.  0.
         24    2    5    5    0    0 -0.60723759959E+01  0.16563094730E+02  0.15935401286E+03  0.17897433584E+03  0.79541823070E+02 0.  0.
          5    1    5    5  501    0 -0.32267352427E+02 -0.64955012990E+02  0.18888088174E+02  0.75094511251E+02  0.47000000000E+01 0. -1.
        -13    1    6    6    0    0 -0.20518311429E+02  0.99997757063E+01  0.16137310315E+03  0.16297936998E+03  0.00000000000E+00 0.  1.
         14    1    6    6    0    0  0.14445935433E+02  0.65633190240E+01 -0.20190902950E+01  0.15994965857E+02  0.00000000000E+00 0. -1.
         -5    1    3    3    0  503 -0.46682396892E+02  0.96659921405E+01  0.88435169343E+02  0.10057607449E+03  0.47000000000E+01 0.  1.
         13    1    4    4    0    0  0.85996350606E+01  0.65346541466E+01  0.59502630420E+02  0.60474940719E+02  0.00000000000E+00 0. -1.
        -14    1    4    4    0    0  0.76422490254E+02  0.32191271973E+02  0.16752596592E+02  0.84600972219E+02  0.00000000000E+00 0.  1.
</event>
<event>
12    1  0.8453150E-002  0.2179048E+03  0.7818608E-02  0.1135758E+00
         21   -1    0    0  503  502  0.00000000000E+00  0.00000000000E+00  0.20719751794E+03  0.20719751794E+03  0.00000000000E+00 0.  1.
         21   -1    0    0  501  503 -0.00000000000E+00 -0.00000000000E+00 -0.22751273985E+03  0.22751273985E+03  0.00000000000E+00 0. -1.
          6    2    1    2  501    0 -0.88773852707E+02 -0.97636833585E+02 -0.78427101531E+01  0.21804589082E+03  0.17340344346E+03 0.  0.
         24    2    3    3    0    0 -0.10087102464E+02  0.12683937744E+02  0.88711484853E+01  0.81430663552E+02  0.79307148343E+02 0.  0.
         -6    2    1    2    0  502  0.88773852707E+02  0.97636833585E+02 -0.12472511752E+02  0.21666436697E+03  0.17138884494E+03 0.  0.
        -24    2    5    5    0    0  0.79579917620E+02  0.13514712015E+03 -0.21580645300E+01  0.17641479726E+03  0.80745378052E+02 0.  0.
          5    1    3    3  501    0 -0.78686750243E+02 -0.11032077133E+03 -0.16713858638E+02  0.13661522727E+03  0.47000000000E+01 0. -1.
        -11    1    4    4    0    0 -0.16598571988E+02  0.16395982179E+02  0.41685867330E+02  0.47770831673E+02  0.00000000000E+00 0.  1.
         12    1    4    4    0    0  0.65114695242E+01 -0.37120444349E+01 -0.32814718845E+02  0.33659831879E+02  0.00000000000E+00 0. -1.
         -5    1    5    5    0  502  0.91939350870E+01 -0.37510286563E+02 -0.10314447222E+02  0.40249569711E+02  0.47000000000E+01 0.  1.
         13    1    6    6    0    0  0.33448854971E+02  0.14489427333E+02 -0.26368867907E+02  0.44989849944E+02  0.00000000000E+00 0. -1.
        -14    1    6    6    0    0  0.46131062649E+02  0.12065769282E+03  0.24210803377E+02  0.13142494732E+03  0.00000000000E+00 0.  1.
</event>
<event>
12    1  0.8453150E-002  0.1938624E+03  0.7818608E-02  0.1155165E+00
         21   -1    0    0  503  502  0.00000000000E+00  0.00000000000E+00  0.79054465007E+02  0.79054465007E+02  0.00000000000E+00 0.  1.
         21   -1    0    0  501  503 -0.00000000000E+00 -0.00000000000E+00 -0.50529080428E+03  0.50529080428E+03  0.00000000000E+00 0.  1.
          6    2    1    2  501    0 -0.88988207929E+02 -0.13896990999E+02 -0.28636203760E+03  0.34581188305E+03  0.17167007419E+03 0.  0.
         24    2    3    3    0    0 -0.54447812305E+02 -0.44672127114E+02 -0.27871716497E+03  0.29868777022E+03  0.81061475566E+02 0.  0.
         -6    2    1    2    0  502  0.88988207929E+02  0.13896990999E+02 -0.13987430168E+03  0.23853338624E+03  0.17094247153E+03 0.  0.
        -24    2    5    5    0    0  0.78219592078E+01 -0.41449753537E+02 -0.39439300237E+02  0.97961335047E+02  0.79130901971E+02 0.  0.
          5    1    3    3  501    0 -0.34540395624E+02  0.30775136115E+02 -0.76448726252E+01  0.47124112832E+02  0.47000000000E+01 0. -1.
        -13    1    4    4    0    0 -0.97685831311E+01  0.20148555045E+02 -0.27723116168E+02  0.35636507360E+02  0.00000000000E+00 0.  1.
         14    1    4    4    0    0 -0.44679229174E+02 -0.64820682158E+02 -0.25099404881E+03  0.26305126286E+03  0.00000000000E+00 0. -1.
         -5    1    5    5    0  502  0.81166248721E+02  0.55346744536E+02 -0.10043500144E+03  0.14057205119E+03  0.47000000000E+01 0.  1.
         11    1    6    6    0    0  0.71285795055E+01 -0.60671270353E+02 -0.47222126326E+02  0.77212362396E+02  0.00000000000E+00 0. -1.
        -12    1    6    6    0    0  0.69337970231E+00  0.19221516816E+02  0.77828260890E+01  0.20748972650E+02  0.00000000000E+00 0.  1.
</event>
<event>
12    1  0.8453150E-002  0.1912482E+03  0.7818608E-02  0.1157411E+00
         21   -1    0    0  501  502  0.00000000000E+00  0.00000000000E+00  0.83197229337E+03  0.83197229337E+03  0.00000000000E+00 0. -1.
         21   -1    0    0  502  503 -0.00000000000E+00 -0.00000000000E+00 -0.50755499726E+02  0.50755499726E+02  0.00000000000E+00 0. -1.
         -6    2    1    2    0  503  0.21869492064E+02 -0.79789491060E+02  0.22855991362E+03  0.29801929920E+03  0.17242746595E+03 0.  0.
        -24    2    3    3    0    0 -0.44377737636E+02 -0.61292173310E+02  0.84075104941E+02  0.13792933653E+03  0.78928857197E+02 0.  0.
          6    2    1    2  501    0 -0.21869492064E+02  0.79789491060E+02  0.55265688002E+03  0.58470849389E+03  0.17207486230E+03 0.  0.
         24    2    5    5    0    0  0.30826762831E+02  0.24944856979E+01  0.33037400582E+03  0.34349659681E+03  0.88805498323E+02 0.  0.
          5    1    5    5  501    0 -0.52696254895E+02  0.77295005362E+02  0.22228287420E+03  0.24121189709E+03  0.47000000000E+01 0. -1.
        -11    1    6    6    0    0 -0.26327869463E+02  0.37962329542E+01  0.19114898763E+03  0.19299094167E+03  0.00000000000E+00 0.  1.
         12    1    6    6    0    0  0.57154632294E+02 -0.13017472563E+01  0.13922501819E+03  0.15050565514E+03  0.00000000000E+00 0. -1.
         -5    1    3    3    0  503  0.66247229700E+02 -0.18497317750E+02  0.14448480868E+03  0.16008996267E+03  0.47000000000E+01 0.  1.
         13    1    4    4    0    0 -0.22131441324E+02 -0.32923826973E+02  0.92725405366E+02  0.10085524219E+03  0.00000000000E+00 0. -1.
        -14    1    4    4    0    0 -0.22246296312E+02 -0.28368346337E+02 -0.86503004254E+01  0.37074094337E+02  0.00000000000E+00 0.  1.
</event>
<event>
12    1  0.8453150E-002  0.2283397E+03  0.7818608E-02  0.1128144E+00
         21   -1    0    0  501  502  0.00000000000E+00  0.00000000000E+00  0.65625874368E+02  0.65625874368E+02  0.00000000000E+00 0.  1.
         21   -1    0    0  502  503 -0.00000000000E+00 -0.00000000000E+00 -0.19521631935E+04  0.19521631935E+04  0.00000000000E+00 0.  1.
         -6    2    1    2    0  503  0.13160362779E+03 -0.69847027386E+02 -0.17207987357E+04  0.17356396369E+04  0.17058293661E+03 0.  0.
        -24    2    3    3    0    0  0.37994651781E+02  0.18915517209E+02 -0.93010279606E+03  0.93447574062E+03  0.79701369001E+02 0.  0.
          6    2    1    2  501    0 -0.13160362779E+03  0.69847027386E+02 -0.16573858341E+03  0.28214943096E+03  0.17303439334E+03 0.  0.
         24    2    5    5    0    0 -0.75308214296E+02 -0.65620734010E+01 -0.27888564037E+02  0.11472111166E+03  0.81662558789E+02 0.  0.
          5    1    5    5  501    0 -0.56295413492E+02  0.76409100787E+02 -0.13785001937E+03  0.16742831930E+03  0.47000000000E+01 0. -1.
        -11    1    6    6    0    0 -0.75774802109E+02  0.10197579236E+02  0.62241588841E+01  0.76710829814E+02  0.00000000000E+00 0.  1.
         12    1    6    6    0    0  0.46658781302E+00 -0.16759652637E+02 -0.34112722922E+02  0.38010281843E+02  0.00000000000E+00 0. -1.
         -5    1    3    3    0  503  0.93608976007E+02 -0.88762544596E+02 -0.79069593967E+03  0.80116389629E+03  0.47000000000E+01 0.  1.
         13    1    4    4    0    0  0.40668053671E+02 -0.81275140997E-01 -0.19858488957E+03  0.20270632837E+03  0.00000000000E+00 0. -1.
        -14    1    4    4    0    0 -0.26734018905E+01  0.18996792350E+02 -0.73151790649E+03  0.73176941225E+03  0.00000000000E+00 0.  1.
</event>
<event>
12    1  0.8453150E-002  0.1730341E+03  0.7818608E-02  0.1176807E+00
         21   -1    0    0  501  502  0.00000000000E+00  0.00000000000E+00  0.25964667007E+03  0.25964667007E+03  0.00000000000E+00 0. -1.
         21   -1    0    0  502  503 -0.00000000000E+00 -0.00000000000E+00 -0.13649791999E+03  0.13649791999E+03  0.00000000000E+00 0. -1.
         -6    2    1    2    0  503  0.40024825686E+01 -0.34670440839E+02 -0.24417598324E+02  0.17474839903E+03  0.16947779949E+03 0.  0.
        -24    2    3    3    0    0  0.39397476367E+02  0.18404925873E+02  0.26481000006E+02  0.93001488078E+02  0.77827572126E+02 0.  0.
          6    2    1    2  501    0 -0.40024825686E+01  0.34670440839E+02  0.14756634840E+03  0.22139619103E+03  0.16131455883E+03 0.  0.
         24    2    5    5    0    0  0.22981873705E+02  0.29087746716E+02  0.16646334531E+03  0.18765440019E+03  0.78293454699E+02 0.  0.
          5    1    5    5  501    0 -0.26984356273E+02  0.55826941232E+01 -0.18896996913E+02  0.33741790846E+02  0.47000000000E+01 0. -1.
        -11    1    6    6    0    0  0.38072389056E+00  0.34171488940E+02  0.20471762575E+02  0.39836273294E+02  0.00000000000E+00 0.  1.
         12    1    6    6    0    0  0.22601149814E+02 -0.50837422235E+01  0.14599158274E+03  0.14781812689E+03  0.00000000000E+00 0. -1.
         -5    1    3    3    0  503 -0.35394993799E+02 -0.53075366712E+02 -0.50898598330E+02  0.81746910948E+02  0.47000000000E+01 0.  1.
         11    1    4    4    0    0  0.22880529768E+02  0.27456639327E+02 -0.21325021707E+02  0.41619012919E+02  0.00000000000E+00 0. -1.
        -12    1    4    4    0    0  0.16516946600E+02 -0.90517134541E+01  0.47806021713E+02  0.51382475159E+02  0.00000000000E+00 0.  1.
</event>
<event>
12    1  0.8453150E-002  0.2009497E+03  0.7818608E-02  0.1149078E+00
         21   -1    0    0  503  502  0.00000000000E+00  0.00000000000E+00  0.19772344733E+03  0.19772344733E+03  0.00000000000E+00 0. -1.
         21   -1    0    0  501  503 -0.00000000000E+00 -0.00000000000E+00 -0.21818418522E+03  0.21818418522E+03  0.00000000000E+00 0. -1.
          6    2    1    2  501    0  0.42889613092E+02  0.92986484805E+02  0.43619255388E+02  0.20498816371E+03  0.17213803343E+03 0.  0.
         24    2    3    3    0    0  0.12899065297E+02  0.27784695214E+02  0.85881026122E+02  0.12156842032E+03  0.80404943859E+02 0.  0.
         -6    2    1    2    0  502 -0.42889613092E+02 -0.92986484805E+02 -0.64079993284E+02  0.21091946884E+03  0.17290104548E+03 0.  0.
        -24    2    5    5    0    0 -0.67161211610E+02 -0.86865074434E+02 -0.99783675645E+02  0.16706259830E+03  0.76791668322E+02 0.  0.
          5    1    3    3  501    0  0.29990547795E+02  0.65201789592E+02 -0.42261770734E+02  0.83419743398E+02  0.47000000000E+01 0. -1.
        -13    1    4    4    0    0 -0.46344743457E+01 -0.54926466439E+01 -0.13507555785E+02  0.15300378522E+02  0.00000000000E+00 0.  1.
         14    1    4    4    0    0  0.17533539643E+02  0.33277341858E+02  0.99388581907E+02  0.10626804180E+03  0.00000000000E+00 0. -1.
         -5    1    5    5    0  502  0.24271598518E+02 -0.61214103716E+01  0.35703682361E+02  0.43856870541E+02  0.47000000000E+01 0.  1.
         11    1    6    6    0    0 -0.51067781378E+02 -0.11080701807E+02 -0.20280661606E+02  0.56053594734E+02  0.00000000000E+00 0. -1.
        -12    1    6    6    0    0 -0.16093430232E+02 -0.75784372627E+02 -0.79503014039E+02  0.11100900356E+03  0.00000000000E+00 0.  1.
</event>
<event>
12    1  0.8453150E-002  0.2297588E+03  0.7818608E-02  0.1127239E+00
         21   -1    0    0  503  502  0.00000000000E+00  0.00000000000E+00  0.70451296249E+03  0.70451296249E+03  0.00000000000E+00 0. -1.
         21   -1    0    0  501  503 -0.00000000000E+00 -0.00000000000E+00 -0.12242397299E+03  0.12242397299E+03  0.00000000000E+00 0. -1.
          6    2    1    2  501    0  0.15176155688E+03 -0.13575733556E+02  0.32321764259E+02  0.23202109267E+03  0.17196866083E+03 0.  0.
         24    2    3    3    0    0  0.11749663215E+03 -0.52507660507E+02  0.70874223692E+02  0.16722786670E+03  0.79871714885E+02 0.  0.
         -6    2    1    2    0  502 -0.15176155688E+03  0.13575733556E+02  0.54976722524E+03  0.59491584281E+03  0.16871569987E+03 0.  0.
        -24    2    5    5    0    0 -0.17732187653E+03  0.29287689695E+02  0.48908007947E+03  0.52705410714E+03  0.79283611483E+02 0.  0.
          5    1    3    3  501    0  0.34264924730E+02  0.38931926950E+02 -0.38552459433E+02  0.64793225967E+02  0.47000000000E+01 0. -1.
        -13    1    4    4    0    0  0.51793096078E+02 -0.11936723972E+02  0.72614361909E+02  0.89988086634E+02  0.00000000000E+00 0.  1.
         14    1    4    4    0    0  0.65703536073E+02 -0.40570936535E+02 -0.17401382170E+01  0.77239780067E+02  0.00000000000E+00 0. -1.
         -5    1    5    5    0  502  0.25560319648E+02 -0.15711956139E+02  0.60687145770E+02  0.67861735668E+02  0.47000000000E+01 0.  1.
         11    1    6    6    0    0 -0.14315741465E+03  0.14124395951E+02  0.45225855200E+03  0.47458544204E+03  0.00000000000E+00 0. -1.
        -12    1    6    6    0    0 -0.34164461875E+02  0.15163293745E+02  0.36821527468E+02  0.52468665101E+02  0.00000000000E+00 0.  1.
</event>
<event>
12    1  0.8453150E-002  0.2221285E+03  0.7818608E-02  0.1133189E+00
         21   -1    0    0  503  502  0.00000000000E+00  0.00000000000E+00  0.71646798245E+03  0.71646798245E+03  0.00000000000E+00 0.  1.
         21   -1    0    0  501  503 -0.00000000000E+00 -0.00000000000E+00 -0.85793869117E+03  0.85793869117E+03  0.00000000000E+00 0.  1.
          6    2    1    2  501    0  0.10012738700E+03 -0.98639156995E+02 -0.82631871666E+03  0.85443594587E+03  0.16584024595E+03 0.  0.
         24    2    3    3    0    0  0.13354577814E+03 -0.84397504585E+02 -0.73825922227E+03  0.75906206013E+03  0.78683659143E+02 0.  0.
         -6    2    1    2    0  502 -0.10012738700E+03  0.98639156995E+02  0.68484800794E+03  0.71997072775E+03  0.17200545898E+03 0.  0.
        -24    2    5    5    0    0  0.12490529134E+02  0.56173618147E+02  0.37125678468E+03  0.38404266651E+03  0.79659781788E+02 0.  0.
          5    1    3    3  501    0 -0.33418391146E+02 -0.14241652410E+02 -0.88059494387E+02  0.95373885744E+02  0.47000000000E+01 0. -1.
        -11    1    4    4    0    0  0.13049748433E+03 -0.66305017018E+02 -0.71283721025E+03  0.72771068222E+03  0.00000000000E+00 0.  1.
         12    1    4    4    0    0  0.30482938138E+01 -0.18092487567E+02 -0.25422012019E+02  0.31351377906E+02  0.00000000000E+00 0. -1.
         -5    1    5    5    0  502 -0.11261791613E+03  0.42465538848E+02  0.31359122326E+03  0.33592806124E+03  0.47000000000E+01 0.  1.
         13    1    6    6    0    0 -0.14196230195E+02  0.42745496604E+02  0.33025112874E+03  0.33330844344E+03  0.00000000000E+00 0. -1.
        -14    1    6    6    0    0  0.26686759329E+02  0.13428121543E+02  0.41005655936E+02  0.50734223068E+02  0.00000000000E+00 0.  1.
</event>
<event>
12    1  0.8453150E-002  0.3182323E+03  0.7818608E-02  0.1076466E+00
         21   -1    0    0  503  502  0.00000000000E+00  0.00000000000E+00  0.18009887922E+03  0.18009887922E+03  0.00000000000E+00 0. -1.
         21   -1    0    0  501  503 -0.00000000000E+00 -0.00000000000E+00 -0.56798863144E+03  0.56798863144E+03  0.00000000000E+00 0.  1.
          6    2    1    2  501    0 -0.26203260950E+03 -0.58060449261E+02 -0.15653653630E+03  0.35464615088E+03  0.17099152297E+03 0.  0.
         24    2    3    3    0    0 -0.23024650666E+03 -0.90421777941E+02 -0.91642605533E+02  0.27533080446E+03  0.78861479687E+02 0.  0.
         -6    2    1    2    0  502  0.26203260950E+03  0.58060449261E+02 -0.23135321591E+03  0.39344135978E+03  0.17099616623E+03 0.  0.
        -24    2    5    5    0    0  0.14452727841E+03  0.84184321221E+02 -0.19087470454E+03  0.26635650858E+03  0.80854824777E+02 0.  0.
          5    1    3    3  501    0 -0.31786102836E+02  0.32361328680E+02 -0.64893930769E+02  0.79315346422E+02  0.47000000000E+01 0. -1.
        -11    1    4    4    0    0 -0.15729510640E+03 -0.63580898820E+02 -0.10034507281E+03  0.19711269576E+03  0.00000000000E+00 0.  1.
         12    1    4    4    0    0 -0.72951400257E+02 -0.26840879121E+02  0.87024672732E+01  0.78218108697E+02  0.00000000000E+00 0. -1.
         -5    1    5    5    0  502  0.11750533109E+03 -0.26123871959E+02 -0.40478511378E+02  0.12708485120E+03  0.47000000000E+01 0.  1.
         11    1    6    6    0    0  0.13404775520E+02 -0.13748683665E+02 -0.76136330150E+01  0.20656275485E+02  0.00000000000E+00 0. -1.
        -12    1    6    6    0    0  0.13112250289E+03  0.97933004885E+02 -0.18326107152E+03  0.24570023310E+03  0.00000000000E+00 0.  1.
</event>
<event>
12    1  0.8453150E-002  0.1842240E+03  0.7818608E-02  0.1164302E+00
         21   -1    0    0  501  502  0.00000000000E+00  0.00000000000E+00  0.41967660946E+03  0.41967660946E+03  0.00000000000E+00 0.  1.
         21   -1    0    0  502  503 -0.00000000000E+00 -0.00000000000E+00 -0.99478978587E+02  0.99478978587E+02  0.00000000000E+00 0.  1.
         -6    2    1    2    0  503  0.65412920350E+02 -0.12513446083E+02  0.44145993660E+02  0.18727762244E+03  0.16937710184E+03 0.  0.
        -24    2    3    3    0    0  0.30860195551E+01  0.16051296731E+02  0.72591713853E+02  0.11290130839E+03  0.84911606227E+02 0.  0.
          6    2    1    2  501    0 -0.65412920350E+02  0.12513446083E+02  0.27605163722E+03  0.33187796561E+03  0.17176449332E+03 0.  0.
         24    2    5    5    0    0  0.14461999735E+02 -0.32508950252E+02  0.16804655894E+03  0.19012393229E+03  0.81495290497E+02 0.  0.
          5    1    5    5  501    0 -0.79874920085E+02  0.45022396335E+02  0.10800507827E+03  0.14175403332E+03  0.47000000000E+01 0. -1.
        -13    1    6    6    0    0 -0.32959078735E+02 -0.76006152817E+01  0.82840687099E+02  0.89479884124E+02  0.00000000000E+00 0.  1.
         14    1    6    6    0    0  0.47421078470E+02 -0.24908334970E+02  0.85205871842E+02  0.10064404816E+03  0.00000000000E+00 0. -1.
         -5    1    3    3    0  503  0.62326900795E+02 -0.28564742815E+02 -0.28445720192E+02  0.74376314052E+02  0.47000000000E+01 0.  1.
         13    1    4    4    0    0 -0.29248147612E+02 -0.85568756654E+01  0.64687702024E+02  0.71506454624E+02  0.00000000000E+00 0. -1.
        -14    1    4    4    0    0  0.32334167167E+02  0.24608172397E+02  0.79040118292E+01  0.41394853763E+02  0.00000000000E+00 0.  1.
</event>
<event>
12    1  0.8453150E-002  0.1862330E+03  0.7818608E-02  0.1162141E+00
         21   -1    0    0  503  502  0.00000000000E+00  0.00000000000E+00  0.23046578891E+02  0.23046578891E+02  0.00000000000E+00 0. -1.
         21   -1    0    0  501  503 -0.00000000000E+00 -0.00000000000E+00 -0.15565891706E+04  0.15565891706E+04  0.00000000000E+00 0.  1.
          6    2    1    2  501    0  0.18658613308E+02 -0.68380178874E+02 -0.91975006661E+03  0.93821233176E+03  0.17110874241E+03 0.  0.
         24    2    3    3    0    0  0.74317801862E+02 -0.69330866364E+02 -0.61893629132E+03  0.63225503657E+03  0.79588905323E+02 0.  0.
         -6    2    1    2    0  502 -0.18658613308E+02  0.68380178874E+02 -0.61379252510E+03  0.64142341773E+03  0.17221714267E+03 0.  0.
        -24    2    5    5    0    0 -0.68447399800E+02  0.78413404868E+01 -0.33105987005E+03  0.34798906657E+03  0.82153634912E+02 0.  0.
          5    1    3    3  501    0 -0.55659188554E+02  0.95068748912E+00 -0.30081377529E+03  0.30595729519E+03  0.47000000000E+01 0. -1.
        -13    1    4    4    0    0  0.51329646995E+02 -0.59947009018E+01 -0.39603735802E+03  0.39939486482E+03  0.00000000000E+00 0.  1.
         14    1    4    4    0    0  0.22988154867E+02 -0.63336165462E+02 -0.22289893330E+03  0.23286017174E+03  0.00000000000E+00 0. -1.
         -5    1    5    5    0  502  0.49788786492E+02  0.60538838388E+02 -0.28273265504E+03  0.29343435116E+03  0.47000000000E+01 0.  1.
         11    1    6    6    0    0  0.11854893452E+02 -0.17885775025E+02 -0.92779853041E+02  0.95228885204E+02  0.00000000000E+00 0. -1.
        -12    1    6    6    0    0 -0.80302293252E+02  0.25727115512E+02 -0.23828001701E+03  0.25276018136E+03  0.00000000000E+00 0.  1.
</event>
<event>
12    1  0.8453150E-002  0.1985458E+03  0.7818608E-02  0.1154439E+00
         21   -1    0    0  501  502  0.00000000000E+00  0.00000000000E+00  0.41910445078E+03  0.41910445078E+03  0.00000000000E+00 0.  1.
         21   -1    0    0  502  503 -0.00000000000E+00 -0.00000000000E+00 -0.23187198389E+03  0.23187198389E+03  0.00000000000E+00 0. -1.
         -6    2    1    2    0  503 -0.37944552871E+02  0.52320337661E+02  0.34954295124E+03  0.39452931791E+03  0.17116045427E+03 0.  0.
        -24    2    3    3    0    0 -0.12833357677E+02  0.98265498156E+02  0.21111277127E+03  0.24645320700E+03  0.79685493347E+02 0.  0.
          6    2    1    2  501    0  0.37944552871E+02 -0.52320337661E+02 -0.16231048435E+03  0.25644711676E+03  0.18773178617E+03 0.  0.
         24    2    5    5    0    0  0.21142190461E+02 -0.49663554176E+02 -0.19615812127E+03  0.21827473923E+03  0.79072071012E+02 0.  0.
          5    1    5    5  501    0  0.16802362410E+02 -0.26567834850E+01  0.33847636924E+02  0.38172377531E+02  0.47000000000E+01 0. -1.
        -11    1    6    6    0    0  0.42530960885E+01  0.16571242187E+02 -0.92765379308E+02  0.94329796418E+02  0.00000000000E+00 0.  1.
         12    1    6    6    0    0  0.16889094373E+02 -0.66234796363E+02 -0.10339274196E+03  0.12394494281E+03  0.00000000000E+00 0. -1.
         -5    1    3    3    0  503 -0.25111195193E+02 -0.45945160495E+02  0.13843017997E+03  0.14807611092E+03  0.47000000000E+01 0.  1.
         11    1    4    4    0    0 -0.13031378064E+02  0.92677466353E+02  0.21820103771E+03  0.23742498277E+03  0.00000000000E+00 0. -1.
        -12    1    4    4    0    0  0.19802038677E+00  0.55880318030E+01 -0.70882664459E+01  0.90282242281E+01  0.00000000000E+00 0.  1.
</event>
<event>
12    1  0.8453150E-002  0.1861090E+03  0.7818608E-02  0.1162594E+00
         21   -1    0    0  501  502  0.00000000000E+00  0.00000000000E+00  0.16161425836E+03  0.16161425836E+03  0.00000000000E+00 0. -1.
         21   -1    0    0  502  503 -0.00000000000E+00 -0.00000000000E+00 -0.32824419216E+03  0.32824419216E+03  0.00000000000E+00 0. -1.
         -6    2    1    2    0  503  0.20319691532E+02 -0.67131732639E+02 -0.22903340140E+03  0.29356591088E+03  0.16972061067E+03 0.  0.
        -24    2    3    3    0    0 -0.57873692128E+01 -0.10778780711E+03 -0.16843194681E+03  0.21591849425E+03  0.81238971220E+02 0.  0.
          6    2    1    2  501    0 -0.20319691532E+02  0.67131732639E+02  0.62403467600E+02  0.19629253964E+03  0.17238622033E+03 0.  0.
         24    2    5    5    0    0  0.51444694612E+02  0.59926425556E+02  0.26534241591E+02  0.11560341433E+03  0.80139567911E+02 0.  0.
          5    1    5    5  501    0 -0.71764386143E+02  0.72053070826E+01  0.35869226010E+02  0.80689125309E+02  0.47000000000E+01 0. -1.
        -11    1    6    6    0    0 -0.18764216469E+02 -0.14735535792E+01  0.82866651829E+01  0.20565407842E+02  0.00000000000E+00 0.  1.
         12    1    6    6    0    0  0.70208911081E+02  0.61399979135E+02  0.18247576408E+02  0.95038006491E+02  0.00000000000E+00 0. -1.
         -5    1    3    3    0  503  0.26107060744E+02  0.40656074476E+02 -0.60601454587E+02  0.77647416638E+02  0.47000000000E+01 0.  1.
         11    1    4    4    0    0 -0.46381236628E+01 -0.17302188191E+02 -0.10224907486E+03  0.10380631588E+03  0.00000000000E+00 0. -1.
        -12    1    4    4    0    0 -0.11492455501E+01 -0.90485618923E+02 -0.66182871953E+02  0.11211217836E+03  0.00000000000E+00 0.  1.
</event>
<event>
12    1  0.8453150E-002  0.1724994E+03  0.7818608E-02  0.1175293E+00
         21   -1    0    0  503  502  0.00000000000E+00  0.00000000000E+00  0.64189993534E+03  0.64189993534E+03  0.00000000000E+00 0. -1.
         21   -1    0    0  501  503 -0.00000000000E+00 -0.00000000000E+00 -0.53634717301E+02  0.53634717301E+02  0.00000000000E+00 0. -1.
          6    2    1    2  501    0 -0.88689672936E+01  0.69975487101E+01  0.16584867655E+03  0.23929444821E+03  0.17212909446E+03 0.  0.
         24    2    3    3    0    0 -0.80360581341E+01 -0.62900109048E+02  0.10679635556E+03  0.14766670725E+03  0.79868597846E+02 0.  0.
         -6    2    1    2    0  502  0.88689672936E+01 -0.69975487101E+01  0.42241654149E+03  0.45624020443E+03  0.17202257221E+03 0.  0.
        -24    2    5    5    0    0 -0.10132840055E+02 -0.68550888801E+02  0.27489910085E+03  0.29520180016E+03  0.82296344787E+02 0.  0.
          5    1    3    3  501    0 -0.83290915944E+00  0.69897657759E+02  0.59052320992E+02  0.91627740954E+02  0.47000000000E+01 0. -1.
        -13    1    4    4    0    0 -0.21073215289E+02 -0.19764367273E+02 -0.29376795760E+01  0.29040326747E+02  0.00000000000E+00 0.  1.
         14    1    4    4    0    0  0.13037157154E+02 -0.43135741776E+02  0.10973403513E+03  0.11862638051E+03  0.00000000000E+00 0. -1.
         -5    1    5    5    0  502  0.19001807349E+02  0.61553340091E+02  0.14751744064E+03  0.16103840428E+03  0.47000000000E+01 0.  1.
         13    1    6    6    0    0 -0.19554104577E+02 -0.57806600826E+02  0.27418523606E+03  0.28089412557E+03  0.00000000000E+00 0. -1.
        -14    1    6    6    0    0  0.94212645223E+01 -0.10744287975E+02  0.71386479112E+00  0.14307674592E+02  0.00000000000E+00 0.  1.
</event>
<event>
12    1  0.8453150E-002  0.2630790E+03  0.7818608E-02  0.1105382E+00
         21   -1    0    0  501  502  0.00000000000E+00  0.00000000000E+00  0.11182281469E+04  0.11182281469E+04  0.00000000000E+00 0.  1.
         21   -1    0    0  502  503 -0.00000000000E+00 -0.00000000000E+00 -0.73178813178E+02  0.73178813178E+02  0.00000000000E+00 0. -1.
         -6    2    1    2    0  503  0.13368930238E+03  0.14730644314E+03  0.28694100547E+03  0.38894898032E+03  0.17138888793E+03 0.  0.
        -24    2    3    3    0    0  0.85192766645E+02  0.14588799962E+03  0.14713524573E+03  0.24088930850E+03  0.88531138548E+02 0.  0.
          6    2    1    2  501    0 -0.13368930238E+03 -0.14730644314E+03  0.75810832828E+03  0.80245797980E+03  0.17215851464E+03 0.  0.
         24    2    5    5    0    0 -0.16425504093E+02 -0.10914419488E+03  0.47596653606E+03  0.49450792459E+03  0.76234451364E+02 0.  0.
          5    1    5    5  501    0 -0.11726379829E+03 -0.38162248264E+02  0.28214179223E+03  0.30795005521E+03  0.47000000000E+01 0. -1.
        -13    1    6    6    0    0 -0.14600373815E+02 -0.28240634706E+02  0.28947471016E+03  0.29121523343E+03  0.00000000000E+00 0.  1.
         14    1    6    6    0    0 -0.18251302781E+01 -0.80903560173E+02  0.18649182590E+03  0.20329269116E+03  0.00000000000E+00 0. -1.
         -5    1    3    3    0  503  0.48496535736E+02  0.14184435219E+01  0.13980575974E+03  0.14805967181E+03  0.47000000000E+01 0.  1.
         11    1    4    4    0    0 -0.73962692871E+01  0.62161523381E+02  0.28888837547E+02  0.68944359619E+02  0.00000000000E+00 0. -1.
        -12    1    4    4    0    0  0.92589035932E+02  0.83726476239E+02  0.11824640818E+03  0.17194494888E+03  0.00000000000E+00 0.  1.
</event>
<event>
12    1  0.8453150E-002  0.2052298E+03  0.7818608E-02  0.1145458E+00
         21   -1    0    0  503  502  0.00000000000E+00  0.00000000000E+00  0.26846342533E+02  0.26846342533E+02  0.00000000000E+00 0. -1.
         21   -1    0    0  501  503 -0.00000000000E+00 -0.00000000000E+00 -0.31122783605E+04  0.31122783605E+04  0.00000000000E+00 0. -1.
          6    2    1    2  501    0 -0.10989005586E+03  0.22913355546E+02 -0.26493192028E+04  0.26572563858E+04  0.17180924116E+03 0.  0.
         24    2    3    3    0    0  0.71009273207E+01 -0.10426889980E+02 -0.92428410363E+03  0.92793089722E+03  0.81212699648E+02 0.  0.
         -6    2    1    2    0  502  0.10989005586E+03 -0.22913355546E+02 -0.43611281512E+03  0.48186831718E+03  0.17146965139E+03 0.  0.
        -24    2    5    5    0    0  0.12927855062E+03  0.18920938666E+02 -0.28425338170E+03  0.32309363588E+03  0.80737642843E+02 0.  0.
          5    1    3    3  501    0 -0.11699098318E+03  0.33340245526E+02 -0.17250350992E+04  0.17293254886E+04  0.47000000000E+01 0. -1.
        -13    1    4    4    0    0  0.21887705038E+01 -0.39141505186E+02 -0.76506070345E+03  0.76606444122E+03  0.00000000000E+00 0.  1.
         14    1    4    4    0    0  0.49121568169E+01  0.28714615206E+02 -0.15922340019E+03  0.16186645600E+03  0.00000000000E+00 0. -1.
         -5    1    5    5    0  502 -0.19388494755E+02 -0.41834294212E+02 -0.15185943343E+03  0.15877468130E+03  0.47000000000E+01 0.  1.
         11    1    6    6    0    0  0.84961989242E+02  0.36961724697E+02 -0.11764097979E+03  0.14974681578E+03  0.00000000000E+00 0. -1.
        -12    1    6    6    0    0  0.44316561376E+02 -0.18040786031E+02 -0.16661240190E+03  0.17334682010E+03  0.00000000000E+00 0.  1.
</event>
<event>
12    1  0.8453150E-002  0.2276382E+03  0.7818608E-02  0.1128317E+00
         21   -1    0    0  503  502  0.00000000000E+00  0.00000000000E+00  0.14895389095E+03  0.14895389095E+03  0.00000000000E+00 0.  1.
         21   -1    0    0  501  503 -0.00000000000E+00 -0.00000000000E+00 -0.65958256805E+03  0.65958256805E+03  0.00000000000E+00 0. -1.
          6    2    1    2  501    0  0.11203038079E+03 -0.98882283473E+02 -0.53323001696E+03  0.57977902252E+03  0.17170017985E+03 0.  0.
         24    2    3    3    0    0  0.40608735315E+02  0.13624746944E+02 -0.26724952517E+03  0.28224483062E+03  0.80032072294E+02 0.  0.
         -6    2    1    2    0  502 -0.11203038079E+03  0.98882283473E+02  0.22601339856E+02  0.22875743648E+03  0.17172836683E+03 0.  0.
        -24    2    5    5    0    0 -0.46575416695E+02 -0.25067760029E+02  0.44133449202E+00  0.86767572589E+02  0.68780483014E+02 0.  0.
          5    1    3    3  501    0  0.71421645474E+02 -0.11250703042E+03 -0.26598049179E+03  0.29753419190E+03  0.47000000000E+01 0. -1.
        -13    1    4    4    0    0  0.62492674816E+02 -0.24753092067E+01 -0.16525017114E+03  0.17668922045E+03  0.00000000000E+00 0.  1.
         14    1    4    4    0    0 -0.21883939501E+02  0.16100056150E+02 -0.10199935403E+03  0.10555561017E+03  0.00000000000E+00 0. -1.
         -5    1    5    5    0  502 -0.65454964094E+02  0.12395004350E+03  0.22160005364E+02  0.14198986389E+03  0.47000000000E+01 0.  1.
         11    1    6    6    0    0 -0.37635686074E+02 -0.14636528542E+02  0.32534826544E+02  0.51857379150E+02  0.00000000000E+00 0. -1.
        -12    1    6    6    0    0 -0.89397306210E+01 -0.10431231487E+02 -0.32093492052E+02  0.34910193440E+02  0.00000000000E+00 0.  1.
</event>
<event>
12    1  0.8453150E-002  0.1824168E+03  0.7818608E-02  0.1165707E+00
         21   -1    0    0  501  502  0.00000000000E+00  0.00000000000E+00  0.15657172793E+04  0.15657172793E+04  0.00000000000E+00 0.  1.
         21   -1    0    0  502  503 -0.00000000000E+00 -0.00000000000E+00 -0.21390525377E+02  0.21390525377E+02  0.00000000000E+00 0.  1.
         -6    2    1    2    0  503 -0.10930276964E+02  0.59967382046E+02  0.85924005026E+03  0.87839020016E+03  0.17193115454E+03 0.  0.
        -24    2    3    3    0    0 -0.27962334166E+02  0.91937555977E+02  0.44120323024E+03  0.45876053499E+03  0.81034139496E+02 0.  0.
          6    2    1    2  501    0  0.10930276964E+02 -0.59967382046E+02  0.68508670366E+03  0.70871760452E+03  0.17094236910E+03 0.  0.
         24    2    5    5    0    0  0.53585915700E+02  0.11881644415E+02  0.33153363733E+03  0.34539454327E+03  0.79813620425E+02 0.  0.
          5    1    5    5  501    0 -0.42655638737E+02 -0.71849026461E+02  0.35355306634E+03  0.36332306125E+03  0.47000000000E+01 0. -1.
        -13    1    6    6    0    0  0.22275154409E+02  0.29767500765E+01  0.14612822048E+02  0.26806307339E+02  0.00000000000E+00 0.  1.
         14    1    6    6    0    0  0.31310761292E+02  0.89048943384E+01  0.31692081528E+03  0.31858823593E+03  0.00000000000E+00 0. -1.
         -5    1    3    3    0  503  0.17032057202E+02 -0.31970173931E+02  0.41803682003E+03  0.41962966517E+03  0.47000000000E+01 0.  1.
         13    1    4    4    0    0 -0.32858798133E+02  0.10285675051E+01  0.85815696402E+02  0.91897183389E+02  0.00000000000E+00 0. -1.
        -14    1    4    4    0    0  0.48964639673E+01  0.90908988471E+02  0.35538753383E+03  0.36686335160E+03  0.00000000000E+00 0.  1.
</event>
<event>
12    1  0.8453150E-002  0.2024726E+03  0.7818608E-02  0.1148036E+00
         21   -1    0    0  501  502  0.00000000000E+00  0.00000000000E+00  0.20949310638E+03  0.20949310638E+03  0.00000000000E+00 0. -1.
         21   -1    0    0  502  503 -0.00000000000E+00 -0.00000000000E+00 -0.54023627918E+03  0.54023627918E+03  0.00000000000E+00 0. -1.
         -6    2    1    2    0  503  0.42172043759E+02 -0.97119386358E+02 -0.46521647324E+03  0.50666928538E+03  0.17051903500E+03 0.  0.
        -24    2    3    3    0    0  0.56536769868E+02 -0.12028180414E+03 -0.44709408302E+03  0.47360338178E+03  0.82115317766E+02 0.  0.
          6    2    1    2  501    0 -0.42172043759E+02  0.97119386358E+02  0.13447330044E+03  0.24306010017E+03  0.17258182780E+03 0.  0.
         24    2    5    5    0    0  0.22673602574E+02  0.35179942534E+02  0.88283382250E+01  0.88625003520E+02  0.77619141214E+02 0.  0.
          5    1    5    5  501    0 -0.64845646333E+02  0.61939443824E+02  0.12564496221E+03  0.15443509665E+03  0.47000000000E+01 0. -1.
        -13    1    6    6    0    0 -0.26255286955E+02 -0.12492057724E+01 -0.31050232943E+01  0.26467749768E+02  0.00000000000E+00 0.  1.
         14    1    6    6    0    0  0.48928889529E+02  0.36429148306E+02  0.11933361519E+02  0.62157253752E+02  0.00000000000E+00 0. -1.
         -5    1    3    3    0  503 -0.14364726109E+02  0.23162417781E+02 -0.18122390221E+02  0.33065903602E+02  0.47000000000E+01 0.  1.
         13    1    4    4    0    0  0.37879480362E+02 -0.38223922117E+01 -0.11999147832E+03  0.12588653853E+03  0.00000000000E+00 0. -1.
        -14    1    4    4    0    0  0.18657289506E+02 -0.11645941193E+03 -0.32710260470E+03  0.34771684325E+03  0.00000000000E+00 0.  1.
</event>
<event>
12    1  0.8453150E-002  0.1791484E+03  0.7818608E-02  0.1168701E+00
         21   -1    0    0  501  502  0.00000000000E+00  0.00000000000E+00  0.45496028518E+02  0.45496028518E+02  0.00000000000E+00 0.  1.
         21   -1    0    0  502  503 -0.00000000000E+00 -0.00000000000E+00 -0.73417713489E+03  0.73417713489E+03  0.00000000000E+00 0.  1.
         -6    2    1    2    0  503  0.47309751842E+02 -0.76793598164E+01 -0.26540644619E+03  0.32004767517E+03  0.17231583652E+03 0.  0.
        -24    2    3    3    0    0  0.47515378811E+02  0.53796617247E+02 -0.21938220761E+03  0.24310835768E+03  0.76297662545E+02 0.  0.
          6    2    1    2  501    0 -0.47309751842E+02  0.76793598164E+01 -0.42327466019E+03  0.45962548824E+03  0.17261797791E+03 0.  0.
         24    2    5    5    0    0 -0.84169980257E+02  0.16972070034E+02 -0.39538468449E+03  0.41224435649E+03  0.79017238547E+02 0.  0.
          5    1    5    5  501    0  0.36860228415E+02 -0.92927102174E+01 -0.27889975692E+02  0.47381131751E+02  0.47000000000E+01 0. -1.
        -13    1    6    6    0    0  0.42573016863E+01 -0.57189020529E+00 -0.16194489533E+03  0.16200185431E+03  0.00000000000E+00 0.  1.
         14    1    6    6    0    0 -0.88427281943E+02  0.17543960239E+02 -0.23343978916E+03  0.25024250218E+03  0.00000000000E+00 0. -1.
         -5    1    3    3    0  503 -0.20562696825E+00 -0.61475977064E+02 -0.46024238582E+02  0.76939317488E+02  0.47000000000E+01 0.  1.
         11    1    4    4    0    0  0.54272825307E+02  0.46532610460E+01 -0.12851544380E+03  0.13958299216E+03  0.00000000000E+00 0. -1.
        -12    1    4    4    0    0 -0.67574464958E+01  0.49143356201E+02 -0.90866763803E+02  0.10352536552E+03  0.00000000000E+00 0.  1.
</event>
<event>
12    1  0.8453150E-002  0.1950641E+03  0.7818608E-02  0.1154108E+00
         21   -1    0    0  503  502  0.00000000000E+00  0.00000000000E+00  0.69377819107E+02  0.69377819107E+02  0.00000000000E+00 0.  1.
         21   -1    0    0  501  503 -0.00000000000E+00 -0.00000000000E+00 -0.12624586836E+04  0.12624586836E+04  0.00000000000E+00 0. -1.
          6    2    1    2  501    0 -0.46296841078E+02  0.76782133113E+02 -0.10983738499E+04  0.11155604560E+04  0.17323718833E+03 0.  0.
         24    2    3    3    0    0  0.23354185094E+02  0.82388833967E+00 -0.61107137126E+03  0.61745733810E+03  0.85435629780E+02 0.  0.
         -6    2    1    2    0  502  0.46296841078E+02 -0.76782133113E+02 -0.94707014528E+02  0.21627604663E+03  0.17253120380E+03 0.  0.
        -24    2    5    5    0    0  0.64956149230E+02 -0.92525204075E+02 -0.22281459050E+02  0.13970212711E+03  0.78993709813E+02 0.  0.
          5    1    3    3  501    0 -0.69651026171E+02  0.75958244774E+02 -0.48730247866E+03  0.49810311795E+03  0.47000000000E+01 0. -1.
        -13    1    4    4    0    0 -0.15913020339E+02 -0.32682856891E+02 -0.21779773009E+03  0.22081042679E+03  0.00000000000E+00 0.  1.
         14    1    4    4    0    0  0.39267205433E+02  0.33506745231E+02 -0.39327364118E+03  0.39664691130E+03  0.00000000000E+00 0. -1.
         -5    1    5    5    0  502 -0.18659308153E+02  0.15743070962E+02 -0.72425555478E+02  0.76573919518E+02  0.47000000000E+01 0.  1.
         13    1    6    6    0    0  0.16924134700E+02 -0.78378639882E+02 -0.35835156223E+02  0.87828218396E+02  0.00000000000E+00 0. -1.
        -14    1    6    6    0    0  0.48032014531E+02 -0.14146564193E+02  0.13553697172E+02  0.51873908715E+02  0.00000000000E+00 0.  1.
</event>
<event>
12    1  0.8453150E-002  0.3209172E+03  0.7818608E-02  0.1075596E+00
         21   -1    0    0  501  502  0.00000000000E+00  0.00000000000E+00  0.27440317393E+03  0.27440317393E+03  0.00000000000E+00 0. -1.
         21   -1    0    0  502  503 -0.00000000000E+00 -0.00000000000E+00 -0.60732739700E+03  0.60732739700E+03  0.00000000000E+00 0. -1.
         -6    2    1    2    0  503 -0.21658431839E+03  0.15695797551E+03 -0.44163871881E+03  0.54592360670E+03  0.17732245587E+03 0.  0.
        -24    2    3    3    0    0 -0.16609691504E+03  0.13280999597E+03 -0.43350511276E+03  0.48917549343E+03  0.78353687636E+02 0.  0.
          6    2    1    2  501    0  0.21658431839E+03 -0.15695797551E+03  0.10871449573E+03  0.33580696422E+03  0.17147274591E+03 0.  0.
         24    2    5    5    0    0  0.38491262266E+02 -0.35508457550E+02  0.73931366517E+02  0.11740577803E+03  0.74671560390E+02 0.  0.
          5    1    5    5  501    0  0.17809305612E+03 -0.12144951796E+03  0.34783129216E+02  0.21840118619E+03  0.47000000000E+01 0. -1.
        -13    1    6    6    0    0  0.19188443679E+01 -0.47339911477E+02  0.20594512810E+02  0.51661234405E+02  0.00000000000E+00 0.  1.
         14    1    6    6    0    0  0.36572417898E+02  0.11831453927E+02  0.53336853706E+02  0.65744543623E+02  0.00000000000E+00 0. -1.
         -5    1    3    3    0  503 -0.50487403345E+02  0.24147979543E+02 -0.81336060448E+01  0.56748113271E+02  0.47000000000E+01 0.  1.
         13    1    4    4    0    0 -0.99069201639E+02  0.88387956950E+02 -0.34464339043E+03  0.36933210559E+03  0.00000000000E+00 0. -1.
        -14    1    4    4    0    0 -0.67027713405E+02  0.44422039020E+02 -0.88861722329E+02  0.11984338785E+03  0.00000000000E+00 0.  1.
</event>
<event>
12    1  0.8453150E-002  0.2272336E+03  0.7818608E-02  0.1128936E+00
         21   -1    0    0  503  502  0.00000000000E+00  0.00000000000E+00  0.80993953549E+03  0.80993953549E+03  0.00000000000E+00 0.  1.
         21   -1    0    0  501  503 -0.00000000000E+00 -0.00000000000E+00 -0.91082196424E+02  0.91082196424E+02  0.00000000000E+00 0. -1.
          6    2    1    2  501    0  0.61686381993E+02  0.13228137698E+03  0.10928512188E+03  0.25047319145E+03  0.17172655402E+03 0.  0.
         24    2    3    3    0    0 -0.21361966852E+02  0.44398725091E+02  0.15693428721E+02  0.97496448853E+02  0.82654058680E+02 0.  0.
         -6    2    1    2    0  502 -0.61686381993E+02 -0.13228137698E+03  0.60957221718E+03  0.65054854046E+03  0.17415953351E+03 0.  0.
        -24    2    5    5    0    0 -0.29939210711E+02 -0.74389041237E+02  0.55093051279E+03  0.56211582640E+03  0.77586639114E+02 0.  0.
          5    1    3    3  501    0  0.83048348845E+02  0.87882651886E+02  0.93591693157E+02  0.15297674260E+03  0.47000000000E+01 0. -1.
        -11    1    4    4    0    0 -0.19059598339E+02 -0.17697096140E+02  0.23268271761E+02  0.34897965147E+02  0.00000000000E+00 0.  1.
         12    1    4    4    0    0 -0.23023685129E+01  0.62095821232E+02 -0.75748430405E+01  0.62598483706E+02  0.00000000000E+00 0. -1.
         -5    1    5    5    0  502 -0.31747171282E+02 -0.57892335741E+02  0.58641704394E+02  0.88432714061E+02  0.47000000000E+01 0.  1.
         13    1    6    6    0    0  0.54832459774E+01  0.13993471087E+02  0.49749898964E+02  0.51970526902E+02  0.00000000000E+00 0. -1.
        -14    1    6    6    0    0 -0.35422456688E+02 -0.88382512323E+02  0.50118061383E+03  0.51014529949E+03  0.00000000000E+00 0.  1.
</event>
<event>
12    1  0.8453150E-002  0.2090701E+03  0.7818608E-02  0.1142444E+00
         21   -1    0    0  501  502  0.00000000000E+00  0.00000000000E+00  0.90354274751E+03  0.90354274751E+03  0.00000000000E+00 0. -1.
         21   -1    0    0  502  503 -0.00000000000E+00 -0.00000000000E+00 -0.67604924550E+02  0.67604924550E+02  0.00000000000E+00 0. -1.
         -6    2    1    2    0  503  0.63982252177E+02  0.99466338568E+02  0.15841902971E+03  0.26231069255E+03  0.17240368136E+03 0.  0.
        -24    2    3    3    0    0 -0.25874882940E+02  0.49096369889E+02  0.11584922390E+03  0.15075031946E+03  0.78896470364E+02 0.  0.
          6    2    1    2  501    0 -0.63982252177E+02 -0.99466338568E+02  0.67751879325E+03  0.70883697952E+03  0.17155426902E+03 0.  0.
         24    2    5    5    0    0 -0.29313425737E+02 -0.60609851118E+02  0.19352974498E+03  0.22203184089E+03  0.85507573916E+02 0.  0.
          5    1    5    5  501    0 -0.34668826440E+02 -0.38856487450E+02  0.48398904827E+03  0.48680513863E+03  0.47000000000E+01 0. -1.
        -11    1    6    6    0    0 -0.11944841935E+02  0.20381543673E+02  0.64624339703E+02  0.68806917191E+02  0.00000000000E+00 0.  1.
         12    1    6    6    0    0 -0.17368583802E+02 -0.80991394791E+02  0.12890540528E+03  0.15322492370E+03  0.00000000000E+00 0. -1.
         -5    1    3    3    0  503  0.89857135117E+02  0.50369968679E+02  0.42569805810E+02  0.11156037309E+03  0.47000000000E+01 0.  1.
         11    1    4    4    0    0 -0.11391489080E+02  0.65236225044E+02  0.54776483032E+02  0.85941806909E+02  0.00000000000E+00 0. -1.
        -12    1    4    4    0    0 -0.14483393860E+02 -0.16139855155E+02  0.61072740868E+02  0.64808512552E+02  0.00000000000E+00 0.  1.
</event>
<event>
12    1  0.8453150E-002  0.1768755E+03  0.7818608E-02  0.1171088E+00
         21   -1    0    0  501  502  0.00000000000E+00  0.00000000000E+00  0.77221156782E+02  0.77221156782E+02  0.00000000000E+00 0.  1.
         21   -1    0    0  502  503 -0.00000000000E+00 -0.00000000000E+00 -0.40399911391E+03  0.40399911391E+03  0.00000000000E+00 0.  1.
         -6    2    1    2    0  503 -0.28612997551E+02 -0.26047840812E+02 -0.17462048556E+03  0.24790325953E+03  0.17165814419E+03 0.  0.
        -24    2    3    3    0    0 -0.33403714948E+02  0.36984303850E+02 -0.15378586127E+03  0.18117864785E+03  0.81804427801E+02 0.  0.
          6    2    1    2  501    0  0.28612997551E+02  0.26047840812E+02 -0.15215747157E+03  0.23331701116E+03  0.17259124516E+03 0.  0.
         24    2    5    5    0    0  0.50834774273E+01 -0.44981131862E+02 -0.46281830934E+02  0.10358461523E+03  0.80861737988E+02 0.  0.
          5    1    5    5  501    0  0.23529520123E+02  0.71028972674E+02 -0.10587564063E+03  0.12973239594E+03  0.47000000000E+01 0. -1.
        -13    1    6    6    0    0 -0.54656738993E+01 -0.49222218624E+02 -0.64979819726E+02  0.81701146682E+02  0.00000000000E+00 0.  1.
         14    1    6    6    0    0  0.10549151327E+02  0.42410867618E+01  0.18697988792E+02  0.21883468544E+02  0.00000000000E+00 0. -1.
         -5    1    3    3    0  503  0.47907173968E+01 -0.63032144662E+02 -0.20834624290E+02  0.66724611675E+02  0.47000000000E+01 0.  1.
         13    1    4    4    0    0 -0.17994020760E+02 -0.25274239373E+02 -0.40778217059E+02  0.51238998288E+02  0.00000000000E+00 0. -1.
        -14    1    4    4    0    0 -0.15409694188E+02  0.62258543223E+02 -0.11300764421E+03  0.12993964957E+03  0.00000000000E+00 0.  1.
</event>
<event>
12    1  0.8453150E-002  0.2429236E+03  0.7818608E-02  0.1117939E+00
         21   -1    0    0  503  502  0.00000000000E+00  0.00000000000E+00  0.13093973133E+03  0.13093973133E+03  0.00000000000E+00 0. -1.
         21   -1    0    0  501  503 -0.00000000000E+00 -0.00000000000E+00 -0.49801781550E+03  0.49801781550E+03  0.00000000000E+00 0.  1.
          6    2    1    2  501    0 -0.13778043392E+03  0.10159481670E+03 -0.28156394003E+03  0.37187383015E+03  0.17235700877E+03 0.  0.
         24    2    3    3    0    0 -0.40142212264E+02  0.11353624722E+03 -0.18660218958E+03  0.23506869816E+03  0.77039204682E+02 0.  0.
         -6    2    1    2    0  502  0.13778043392E+03 -0.10159481670E+03 -0.85514144137E+02  0.25708371668E+03  0.17168113987E+03 0.  0.
        -24    2    5    5    0    0  0.10708015205E+03 -0.13073123921E+03 -0.33018993036E+02  0.18948734612E+03  0.79109952411E+02 0.  0.
          5    1    3    3  501    0 -0.97638221651E+02 -0.11941430528E+02 -0.94961750446E+02  0.13680513199E+03  0.47000000000E+01 0. -1.
        -13    1    4    4    0    0 -0.62571992683E+02  0.95458079849E+02 -0.15017898539E+03  0.18862986754E+03  0.00000000000E+00 0.  1.
         14    1    4    4    0    0  0.22429780419E+02  0.18078167375E+02 -0.36423204196E+02  0.46438830618E+02  0.00000000000E+00 0. -1.
         -5    1    5    5    0  502  0.30700281867E+02  0.29136422516E+02 -0.52495151101E+02  0.67596370560E+02  0.47000000000E+01 0.  1.
         11    1    6    6    0    0  0.83857162183E+02 -0.40068207673E+02 -0.14044863177E+02  0.93993314109E+02  0.00000000000E+00 0. -1.
        -12    1    6    6    0    0  0.23222989866E+02 -0.90663031539E+02 -0.18974129859E+02  0.95494032013E+02  0.00000000000E+00 0.  1.
</event>
<event>
12    1  0.8453150E-002  0.2240269E+03  0.7818608E-02  0.1131067E+00
         21   -1    0    0  503  502  0.00000000000E+00  0.00000000000E+00  0.21514446365E+03  0.21514446365E+03  0.00000000000E+00 0. -1.
         21   -1    0    0  501  503 -0.00000000000E+00 -0.00000000000E+00 -0.38399482896E+03  0.38399482896E+03  0.00000000000E+00 0.  1.
          6    2    1    2  501    0 -0.61658604290E+02 -0.12623739158E+03 -0.27273538790E+03  0.35294848507E+03  0.17450036901E+03 0.  0.
         24    2    3    3    0    0  0.80662074304E+01 -0.83967297149E+02 -0.79552155882E+02  0.14321016862E+03  0.84053769689E+02 0.  0.
         -6    2    1    2    0  502  0.61658604290E+02  0.12623739158E+03  0.10388502259E+03  0.24619080754E+03  0.17343630901E+03 0.  0.
        -24    2    5    5    0    0  0.37005637891E+01  0.14162742916E+03  0.80418465535E+02  0.18162489536E+03  0.80302242527E+02 0.  0.
          5    1    3    3  501    0 -0.69724811720E+02 -0.42270094429E+02 -0.19318323202E+03  0.20973831645E+03  0.47000000000E+01 0. -1.
        -13    1    4    4    0    0 -0.25925381913E+01 -0.18635648394E+01 -0.57422189204E+02  0.57510885415E+02  0.00000000000E+00 0.  1.
         14    1    4    4    0    0  0.10658745622E+02 -0.82103732310E+02 -0.22129966678E+02  0.85699283209E+02  0.00000000000E+00 0. -1.
         -5    1    5    5    0  502  0.57958040501E+02 -0.15390037578E+02  0.23466557059E+02  0.64565912179E+02  0.47000000000E+01 0.  1.
         11    1    6    6    0    0  0.28634810339E+02  0.26446843574E+02  0.42864396962E+02  0.57937418177E+02  0.00000000000E+00 0. -1.
        -12    1    6    6    0    0 -0.24934246550E+02  0.11518058558E+03  0.37554068573E+02  0.12368747719E+03  0.00000000000E+00 0.  1.
</event>
<event>
12    1  0.8453150E-002  0.2120910E+03  0.7818608E-02  0.1140746E+00
         21   -1    0    0  503  502  0.00000000000E+00  0.00000000000E+00  0.15379442290E+03  0.15379442290E+03  0.00000000000E+00 0. -1.
         21   -1    0    0  501  503 -0.00000000000E+00 -0.00000000000E+00 -0.50582854512E+03  0.50582854512E+03  0.00000000000E+00 0. -1.
          6    2    1    2  501    0 -0.10126418703E+03  0.61763228975E+02 -0.39405436384E+03  0.44750580413E+03  0.17582227117E+03 0.  0.
         24    2    3    3    0    0 -0.13091589256E+03  0.74798941915E+02 -0.30821460419E+03  0.35563792187E+03  0.93532008450E+02 0.  0.
         -6    2    1    2    0  502  0.10126418703E+03 -0.61763228975E+02  0.42020241624E+02  0.21211716389E+03  0.17075965121E+03 0.  0.
        -24    2    5    5    0    0  0.11196004007E+03 -0.60535643411E+02  0.81405432524E+02  0.17101738894E+03  0.80127948797E+02 0.  0.
          5    1    3    3  501    0  0.29651705531E+02 -0.13035712940E+02 -0.85839759654E+02  0.91867882256E+02  0.47000000000E+01 0. -1.
        -13    1    4    4    0    0 -0.26909369767E+02 -0.15110543925E+01 -0.14558689710E+03  0.14806060271E+03  0.00000000000E+00 0.  1.
         14    1    4    4    0    0 -0.10400652280E+03  0.76309996307E+02 -0.16262770708E+03  0.20757731916E+03  0.00000000000E+00 0. -1.
         -5    1    5    5    0  502 -0.10695853041E+02 -0.12275855641E+01 -0.39385190899E+02  0.41099774948E+02  0.47000000000E+01 0.  1.
         11    1    6    6    0    0  0.39567985575E+02 -0.20194449035E+02  0.75920834551E+02  0.87962573707E+02  0.00000000000E+00 0. -1.
        -12    1    6    6    0    0  0.72392054497E+02 -0.40341194376E+02  0.54845979725E+01  0.83054815230E+02  0.00000000000E+00 0.  1.
</event>
<event>
12    1  0.8453150E-002  0.2260734E+03  0.7818608E-02  0.1130055E+00
         21   -1    0    0  501  502  0.00000000000E+00  0.00000000000E+00  0.19949964098E+03  0.19949964098E+03  0.00000000000E+00 0. -1.
         21   -1    0    0  502  503 -0.00000000000E+00 -0.00000000000E+00 -0.46305611844E+03  0.46305611844E+03  0.00000000000E+00 0. -1.
         -6    2    1    2    0  503 -0.50870750197E+02  0.13460589224E+03 -0.35580306510E+03  0.42155072839E+03  0.17436345954E+03 0.  0.
        -24    2    3    3    0    0  0.30414556872E+02  0.36515327762E+02 -0.19231737972E+03  0.21423763351E+03  0.81568220766E+02 0.  0.
          6    2    1    2  501    0  0.50870750197E+02 -0.13460589224E+03  0.92246587640E+02  0.24100503103E+03  0.16990412767E+03 0.  0.
         24    2    5    5    0    0  0.68409583817E+02 -0.74011889526E+02  0.80002526553E+00  0.12981237111E+03  0.81810639306E+02 0.  0.
          5    1    5    5  501    0 -0.17538833619E+02 -0.60594002715E+02  0.91446562375E+02  0.11119265992E+03  0.47000000000E+01 0. -1.
        -11    1    6    6    0    0  0.86234130455E+01 -0.48205905502E+02 -0.30364764903E+02  0.57621103126E+02  0.00000000000E+00 0.  1.
         12    1    6    6    0    0  0.59786170771E+02 -0.25805984023E+02  0.31164790168E+02  0.72191267984E+02  0.00000000000E+00 0. -1.
         -5    1    3    3    0  503 -0.81285307069E+02  0.98090564479E+02 -0.16348568538E+03  0.20731309488E+03  0.47000000000E+01 0.  1.
         11    1    4    4    0    0  0.14776449767E+02 -0.12485435169E+02 -0.13830877103E+03  0.13965509551E+03  0.00000000000E+00 0. -1.
        -12    1    4    4    0    0  0.15638107105E+02  0.49000762931E+02 -0.54008608692E+02  0.74582538000E+02  0.00000000000E+00 0.  1.
</event>
<event>
12    1  0.8453150E-002  0.2241657E+03  0.7818608E-02  0.1131119E+00
         21   -1    0    0  503  502  0.00000000000E+00  0.00000000000E+00  0.76294462557E+03  0.76294462557E+03  0.00000000000E+00 0. -1.
         21   -1    0    0  501  503 -0.00000000000E+00 -0.00000000000E+00 -0.73762199279E+02  0.73762199279E+02  0.00000000000E+00 0.  1.
          6    2    1    2  501    0 -0.14481480658E+03  0.11928255109E+02  0.20466132585E+03  0.30353998043E+03  0.17069461018E+03 0.  0.
         24    2    3    3    0    0 -0.13372371335E+02 -0.87813762738E+01  0.37116491808E+02  0.89532120689E+02  0.79890135727E+02 0.  0.
         -6    2    1    2    0  502  0.14481480658E+03 -0.11928255109E+02  0.48452110044E+03  0.53316684442E+03  0.16850096659E+03 0.  0.
        -24    2    5    5    0    0  0.78774508914E+02  0.23234178663E+01  0.13397915305E+03  0.17614278644E+03  0.82855574568E+02 0.  0.
          5    1    3    3  501    0 -0.13144243525E+03  0.20709631382E+02  0.16754483405E+03  0.21400785974E+03  0.47000000000E+01 0. -1.
        -13    1    4    4    0    0 -0.36712028330E+02 -0.30031442829E+02  0.11308372900E+02  0.48760023382E+02  0.00000000000E+00 0.  1.
         14    1    4    4    0    0  0.23339656995E+02  0.21250066555E+02  0.25808118908E+02  0.40772097307E+02  0.00000000000E+00 0. -1.
         -5    1    5    5    0  502  0.66040297669E+02 -0.14251672975E+02  0.35054194739E+03  0.35702405799E+03  0.47000000000E+01 0.  1.
         11    1    6    6    0    0  0.63602029782E+02 -0.29515920191E+02  0.11835876079E+03  0.13756890635E+03  0.00000000000E+00 0. -1.
        -12    1    6    6    0    0  0.15172479132E+02  0.31839338057E+02  0.15620392254E+02  0.38573880088E+02  0.00000000000E+00 0.  1.
</event>
<event>
12    1  0.8453150E-002  0.1864254E+03  0.7818608E-02  0.1161971E+00
         21   -1    0    0  503  502  0.00000000000E+00  0.00000000000E+00  0.68505690840E+02  0.68505690840E+02  0.00000000000E+00 0.  1.
         21   -1    0    0  501  503 -0.00000000000E+00 -0.00000000000E+00 -0.51748592644E+03  0.51748592644E+03  0.00000000000E+00 0.  1.
          6    2    1    2  501    0 -0.70803132877E+02  0.51284958318E+01 -0.27161842122E+03  0.32944045719E+03  0.17238057603E+03 0.  0.
         24    2    3    3    0    0 -0.22258695248E+02  0.20377506560E+02 -0.43708304298E+02  0.95872038633E+02  0.79814407467E+02 0.  0.
         -6    2    1    2    0  502  0.70803132877E+02 -0.51284958318E+01 -0.17736181438E+03  0.25655116009E+03  0.17123638471E+03 0.  0.
        -24    2    5    5    0    0  0.91859929650E+02  0.19203317094E+02 -0.65779452067E+02  0.14032663862E+03  0.80979103046E+02 0.  0.
          5    1    3    3  501    0 -0.48544437630E+02 -0.15249010728E+02 -0.22791011692E+03  0.23356841856E+03  0.47000000000E+01 0. -1.
        -11    1    4    4    0    0 -0.34090029987E+02  0.15491864646E+02 -0.62663890730E+02  0.72999254902E+02  0.00000000000E+00 0.  1.
         12    1    4    4    0    0  0.11831334739E+02  0.48856419136E+01  0.18955586433E+02  0.22872783731E+02  0.00000000000E+00 0. -1.
         -5    1    5    5    0  502 -0.21056796772E+02 -0.24331812926E+02 -0.11158236232E+03  0.11622452147E+03  0.47000000000E+01 0.  1.
         13    1    6    6    0    0 -0.70091221596E+01  0.10499234667E+02 -0.33752211435E+02  0.36035725312E+02  0.00000000000E+00 0. -1.
        -14    1    6    6    0    0  0.98869051809E+02  0.87040824273E+01 -0.32027240632E+02  0.10429091331E+03  0.00000000000E+00 0.  1.
</event>
<event>
12    1  0.8453150E-002  0.2214633E+03  0.7818608E-02  0.1133434E+00
         21   -1    0    0  503  502  0.00000000000E+00  0.00000000000E+00  0.19972191391E+03  0.19972191391E+03  0.00000000000E+00 0. -1.
         21   -1    0    0  501  503 -0.00000000000E+00 -0.00000000000E+00 -0.46410556530E+03  0.46410556530E+03  0.00000000000E+00 0. -1.
          6    2    1    2  501    0 -0.90432374937E+02  0.10636913713E+03 -0.36244253764E+03  0.42474769442E+03  0.17191161408E+03 0.  0.
         24    2    3    3    0    0 -0.12586490295E+01  0.80060067816E+02 -0.11919430639E+03  0.16429441162E+03  0.79838414034E+02 0.  0.
         -6    2    1    2    0  502  0.90432374937E+02 -0.10636913713E+03  0.98058886249E+02  0.23907978479E+03  0.16748489649E+03 0.  0.
        -24    2    5    5    0    0  0.52336541800E+00 -0.80200706754E+02  0.91207590713E+02  0.14507208834E+03  0.79338886667E+02 0.  0.
          5    1    3    3  501    0 -0.89173725908E+02  0.26309069310E+02 -0.24324823125E+03  0.26045328281E+03  0.47000000000E+01 0. -1.
        -11    1    4    4    0    0 -0.15808733449E+02  0.91149316677E+02 -0.85578304235E+02  0.12602285562E+03  0.00000000000E+00 0.  1.
         12    1    4    4    0    0  0.14550084419E+02 -0.11089248860E+02 -0.33616002159E+02  0.38271555992E+02  0.00000000000E+00 0. -1.
         -5    1    5    5    0  502  0.89909009519E+02 -0.26168430372E+02  0.68512955359E+01  0.94007696448E+02  0.47000000000E+01 0.  1.
         11    1    6    6    0    0  0.29049189133E+02 -0.55896470436E+01  0.41591173004E+02  0.51038467995E+02  0.00000000000E+00 0. -1.
        -12    1    6    6    0    0 -0.28525823715E+02 -0.74611059711E+02  0.49616417709E+02  0.94033620349E+02  0.00000000000E+00 0.  1.
</event>
<event>
12    1  0.8453150E-002  0.1749055E+03  0.7818608E-02  0.1172940E+00
         21   -1    0    0  501  502  0.00000000000E+00  0.00000000000E+00  0.77983131586E+02  0.77983131586E+02  0.00000000000E+00 0. -1.
         21   -1    0    0  502  503 -0.00000000000E+00 -0.00000000000E+00 -0.39130153437E+03  0.39130153437E+03  0.00000000000E+00 0. -1.
         -6    2    1    2    0  503  0.12122629440E+02 -0.30537270487E+02 -0.15503847269E+03  0.23372815969E+03  0.17179185541E+03 0.  0.
        -24    2    3    3    0    0  0.37108331737E+02  0.30295092991E+02 -0.42157398119E+02  0.10300291821E+03  0.80855018391E+02 0.  0.
          6    2    1    2  501    0 -0.12122629440E+02  0.30537270487E+02 -0.15827993010E+03  0.23555650627E+03  0.17133256649E+03 0.  0.
         24    2    5    5    0    0  0.12699585009E+02  0.56830002624E+02 -0.30147056441E+02  0.10233648748E+03  0.78568333319E+02 0.  0.
          5    1    5    5  501    0 -0.24822214450E+02 -0.26292732137E+02 -0.12813287366E+03  0.13322001878E+03  0.47000000000E+01 0. -1.
        -11    1    6    6    0    0  0.24308020002E+02 -0.11793119508E+02 -0.14570865528E+01  0.27056988106E+02  0.00000000000E+00 0.  1.
         12    1    6    6    0    0 -0.11608434993E+02  0.68623122132E+02 -0.28689969888E+02  0.75279499376E+02  0.00000000000E+00 0. -1.
         -5    1    3    3    0  503 -0.24985702297E+02 -0.60832363478E+02 -0.11288107457E+03  0.13072524148E+03  0.47000000000E+01 0.  1.
         11    1    4    4    0    0  0.51732810810E+02  0.27462611092E+02 -0.57175163088E+02  0.81850339012E+02  0.00000000000E+00 0. -1.
        -12    1    4    4    0    0 -0.14624479073E+02  0.28324818990E+01  0.15017764969E+02  0.21152579193E+02  0.00000000000E+00 0.  1.
</event>
<event>
12    1  0.8453150E-002  0.1853946E+03  0.7818608E-02  0.1163185E+00
         21   -1    0    0  503  502  0.00000000000E+00  0.00000000000E+00  0.60175218027E+03  0.60175218027E+03  0.00000000000E+00 0. -1.
         21   -1    0    0  501  503 -0.00000000000E+00 -0.00000000000E+00 -0.77533567626E+02  0.77533567626E+02  0.00000000000E+00 0. -1.
          6    2    1    2  501    0 -0.49798722116E+02 -0.45243211500E+02  0.83923647012E+02  0.20155065073E+03  0.17044830703E+03 0.  0.
         24    2    3    3    0    0 -0.76710645089E+02 -0.66607954244E+02  0.10061244537E+03  0.16306286278E+03  0.78393178379E+02 0.  0.
         -6    2    1    2    0  502  0.49798722116E+02  0.45243211500E+02  0.44029496563E+03  0.47773509717E+03  0.17275504448E+03 0.  0.
        -24    2    5    5    0    0 -0.59900924542E+01 -0.24522142947E+02  0.12864103640E+03  0.15349774874E+03  0.79848769050E+02 0.  0.
          5    1    3    3  501    0  0.26911922974E+02  0.21364742745E+02 -0.16688798354E+02  0.38487787949E+02  0.47000000000E+01 0. -1.
        -11    1    4    4    0    0 -0.29001810563E+02 -0.25879792561E+02  0.91835686841E+02  0.99722926434E+02  0.00000000000E+00 0.  1.
         12    1    4    4    0    0 -0.47708834526E+02 -0.40728161683E+02  0.87767585248E+01  0.63339936344E+02  0.00000000000E+00 0. -1.
         -5    1    5    5    0  502  0.55788814570E+02  0.69765354446E+02  0.31165392923E+03  0.32423734843E+03  0.47000000000E+01 0.  1.
         13    1    6    6    0    0  0.14415320059E+02 -0.29310634429E+02  0.12844912351E+03  0.13253713470E+03  0.00000000000E+00 0. -1.
        -14    1    6    6    0    0 -0.20405412513E+02  0.47884914821E+01  0.19191289351E+00  0.20960614043E+02  0.00000000000E+00 0.  1.
</event>
<event>
12    1  0.8453150E-002  0.2325891E+03  0.7818608E-02  0.1124916E+00
         21   -1    0    0  503  502  0.00000000000E+00  0.00000000000E+00  0.33831304219E+02  0.33831304219E+02  0.00000000000E+00 0. -1.
         21   -1    0    0  501  503 -0.00000000000E+00 -0.00000000000E+00 -0.15996906640E+04  0.15996906640E+04  0.00000000000E+00 0.  1.
          6    2    1    2  501    0 -0.14392048088E+03  0.60078939373E+02 -0.74117689251E+03  0.77666792740E+03  0.17189327994E+03 0.  0.
         24    2    3    3    0    0 -0.12970125114E+03 -0.17049295541E+02 -0.51243843908E+03  0.53481193472E+03  0.79483071479E+02 0.  0.
         -6    2    1    2    0  502  0.14392048088E+03 -0.60078939373E+02 -0.82468246729E+03  0.85685404084E+03  0.17255460489E+03 0.  0.
        -24    2    5    5    0    0  0.10185491430E+03  0.37773407517E+01 -0.66119589252E+03  0.67630740827E+03  0.99111100875E+02 0.  0.
          5    1    3    3  501    0 -0.14219229739E+02  0.77128234914E+02 -0.22873845343E+03  0.24185599268E+03  0.47000000000E+01 0. -1.
        -11    1    4    4    0    0 -0.12831961376E+03 -0.10663317747E+02 -0.51234512532E+03  0.52827753791E+03  0.00000000000E+00 0.  1.
         12    1    4    4    0    0 -0.13816373819E+01 -0.63859777942E+01 -0.93313756536E-01  0.65343968123E+01  0.00000000000E+00 0. -1.
         -5    1    5    5    0  502  0.42065566586E+02 -0.63856280125E+02 -0.16348657477E+03  0.18054663257E+03  0.47000000000E+01 0.  1.
         11    1    6    6    0    0  0.85384679410E+02 -0.32705713247E+02 -0.32111224428E+03  0.33387614557E+03  0.00000000000E+00 0. -1.
        -12    1    6    6    0    0  0.16470234885E+02  0.36483053999E+02 -0.34008364825E+03  0.34243126269E+03  0.00000000000E+00 0.  1.
</event>
<event>
12    1  0.8453150E-002  0.2117352E+03  0.7818608E-02  0.1140575E+00
         21   -1    0    0  503  502  0.00000000000E+00  0.00000000000E+00  0.49136365757E+03  0.49136365757E+03  0.00000000000E+00 0.  1.
         21   -1    0    0  501  503 -0.00000000000E+00 -0.00000000000E+00 -0.19737871945E+03  0.19737871945E+03  0.00000000000E+00 0. -1.
          6    2    1    2  501    0  0.13290455014E+02 -0.11918395280E+03 -0.10620702420E+03  0.23687911691E+03  0.17450023850E+03 0.  0.
         24    2    3    3    0    0  0.63489677818E+02 -0.36949845113E+02 -0.26812687518E+02  0.11194729096E+03  0.80106463523E+02 0.  0.
         -6    2    1    2    0  502 -0.13290455014E+02  0.11918395280E+03  0.40019196232E+03  0.45186326011E+03  0.17217824581E+03 0.  0.
        -24    2    5    5    0    0  0.23323373681E+02 -0.25487054038E+01  0.11146807272E+03  0.13635892266E+03  0.74954312039E+02 0.  0.
          5    1    3    3  501    0 -0.50199222804E+02 -0.82234107691E+02 -0.79394336681E+02  0.12493182595E+03  0.47000000000E+01 0. -1.
        -13    1    4    4    0    0  0.36079724679E+02  0.13274575818E+02  0.14803874893E+02  0.41196063015E+02  0.00000000000E+00 0.  1.
         14    1    4    4    0    0  0.27409953138E+02 -0.50224420931E+02 -0.41616562411E+02  0.70751227945E+02  0.00000000000E+00 0. -1.
         -5    1    5    5    0  502 -0.36613828695E+02  0.12173265821E+03  0.28872388959E+03  0.31550433745E+03  0.47000000000E+01 0.  1.
         11    1    6    6    0    0 -0.19056370044E+02 -0.15072265358E+02  0.75708178945E+02  0.79511299709E+02  0.00000000000E+00 0. -1.
        -12    1    6    6    0    0  0.42379743725E+02  0.12523559954E+02  0.35759893778E+02  0.56847622951E+02  0.00000000000E+00 0.  1.
</event>
<event>
12    1  0.8453150E-002  0.1972861E+03  0.7818608E-02  0.1152245E+00
         21   -1    0    0  503  502  0.00000000000E+00  0.00000000000E+00  0.16076268927E+03  0.16076268927E+03  0.00000000000E+00 0. -1.
         21   -1    0    0  501  503 -0.00000000000E+00 -0.00000000000E+00 -0.25532207705E+03  0.25532207705E+03  0.00000000000E+00 0. -1.
          6    2    1    2  501    0 -0.14738669173E+01  0.94509178751E+02 -0.96671673567E+02  0.21969798334E+03  0.17316938026E+03 0.  0.
         24    2    3    3    0    0 -0.55159075415E+02  0.11167246601E+03 -0.92567549485E+02  0.16299160031E+03  0.49842223965E+02 0.  0.
         -6    2    1    2    0  502  0.14738669173E+01 -0.94509178751E+02  0.21122857848E+01  0.19638678299E+03  0.17213119888E+03 0.  0.
        -24    2    5    5    0    0  0.29207078146E+02  0.12821796756E+02  0.44796831866E+00  0.85418637732E+02  0.79238192247E+02 0.  0.
          5    1    3    3  501    0  0.53685208498E+02 -0.17163287259E+02 -0.41041240812E+01  0.56706383022E+02  0.47000000000E+01 0. -1.
        -13    1    4    4    0    0 -0.45829950911E+02  0.52330853982E+02 -0.70376553347E+02  0.98953332132E+02  0.00000000000E+00 0.  1.
         14    1    4    4    0    0 -0.93291245042E+01  0.59341612029E+02 -0.22190996138E+02  0.64038268182E+02  0.00000000000E+00 0. -1.
         -5    1    5    5    0  502 -0.27733211229E+02 -0.10733097551E+03  0.16643174662E+01  0.11096814525E+03  0.47000000000E+01 0.  1.
         13    1    6    6    0    0 -0.17535179330E+02 -0.20654774422E+02 -0.54038486294E+01  0.27627953246E+02  0.00000000000E+00 0. -1.
        -14    1    6    6    0    0  0.46742257476E+02  0.33476571177E+02  0.58518169481E+01  0.57790684486E+02  0.00000000000E+00 0.  1.
</event>
<event>
12    1  0.8453150E-002  0.1876595E+03  0.7818608E-02  0.1160736E+00
         21   -1    0    0  501  502  0.00000000000E+00  0.00000000000E+00  0.73891520548E+02  0.73891520548E+02  0.00000000000E+00 0. -1.
         21   -1    0    0  502  503 -0.00000000000E+00 -0.00000000000E+00 -0.70470662945E+03  0.70470662945E+03  0.00000000000E+00 0. -1.
         -6    2    1    2    0  503 -0.72900408804E+02 -0.16116137910E+02 -0.53732195773E+03  0.56893879534E+03  0.17147089281E+03 0.  0.
        -24    2    3    3    0    0 -0.62950290511E+02 -0.50639369100E+01 -0.54279339659E+03  0.55241055755E+03  0.80897281645E+02 0.  0.
          6    2    1    2  501    0  0.72900408804E+02  0.16116137910E+02 -0.93493151171E+02  0.20965935465E+03  0.17216816248E+03 0.  0.
         24    2    5    5    0    0  0.97667901464E+02  0.17690548735E+02 -0.11853447229E+03  0.17409159923E+03  0.80034300842E+02 0.  0.
          5    1    5    5  501    0 -0.24767492661E+02 -0.15744108250E+01  0.25041321121E+02  0.35567755420E+02  0.47000000000E+01 0. -1.
        -13    1    6    6    0    0  0.13254026451E+02 -0.84213814176E+00 -0.77122813666E+02  0.78257950405E+02  0.00000000000E+00 0.  1.
         14    1    6    6    0    0  0.84413875014E+02  0.18532686877E+02 -0.41411658626E+02  0.95833648829E+02  0.00000000000E+00 0. -1.
         -5    1    3    3    0  503 -0.99501182926E+01 -0.11052201000E+02  0.54714388682E+01  0.16528237785E+02  0.47000000000E+01 0.  1.
         11    1    4    4    0    0 -0.62841166517E+02 -0.26407699215E+02 -0.25913368150E+03  0.26794895722E+03  0.00000000000E+00 0. -1.
        -12    1    4    4    0    0 -0.10912399434E+00  0.21343762305E+02 -0.28365971510E+03  0.28446160034E+03  0.00000000000E+00 0.  1.
</event>
<event>
12    1  0.8453150E-002  0.1979026E+03  0.7818608E-02  0.1151758E+00
         21   -1    0    0  501  502  0.00000000000E+00  0.00000000000E+00  0.20782995156E+04  0.20782995156E+04  0.00000000000E+00 0. -1.
         21   -1    0    0  502  503 -0.00000000000E+00 -0.00000000000E+00 -0.19705096287E+02  0.19705096287E+02  0.00000000000E+00 0.  1.
         -6    2    1    2    0  503  0.86431304846E+02  0.43529650534E+02  0.12587490623E+04  0.12740397863E+04  0.17135627887E+03 0.  0.
        -24    2    3    3    0    0  0.62435882966E+02  0.28574999238E+02  0.12268800427E+04  0.12311778419E+04  0.76481822727E+02 0.  0.
          6    2    1    2  501    0 -0.86431304846E+02 -0.43529650534E+02  0.79984535702E+03  0.82396482560E+03  0.17262745359E+03 0.  0.
         24    2    5    5    0    0 -0.10274171325E+03 -0.49018903428E+02  0.39561898279E+03  0.41934498804E+03  0.79856915240E+02 0.  0.
          5    1    5    5  501    0  0.16310408408E+02  0.54892528933E+01  0.40422637423E+03  0.40461983756E+03  0.47000000000E+01 0. -1.
        -13    1    6    6    0    0 -0.10326909653E+03 -0.52136679111E+02  0.39857048302E+03  0.41501948091E+03  0.00000000000E+00 0.  1.
         14    1    6    6    0    0  0.52738327344E+00  0.31177756836E+01 -0.29515002225E+01  0.43255071256E+01  0.00000000000E+00 0. -1.
         -5    1    3    3    0  503  0.23995421881E+02  0.14954651297E+02  0.31869019649E+02  0.42861944426E+02  0.47000000000E+01 0.  1.
         11    1    4    4    0    0  0.33743108424E+02  0.54450877510E+02  0.78953041679E+03  0.79212484778E+03  0.00000000000E+00 0. -1.
        -12    1    4    4    0    0  0.28692774542E+02 -0.25875878272E+02  0.43734962587E+03  0.43905299411E+03  0.00000000000E+00 0.  1.
</event>
<event>
12    1  0.8453150E-002  0.3274298E+03  0.7818608E-02  0.1072282E+00
         21   -1    0    0  503  502  0.00000000000E+00  0.00000000000E+00  0.71745540820E+02  0.71745540820E+02  0.00000000000E+00 0.  1.
         21   -1    0    0  501  503 -0.00000000000E+00 -0.00000000000E+00 -0.14942589363E+04  0.14942589363E+04  0.00000000000E+00 0. -1.
          6    2    1    2  501    0 -0.27338649635E+03 -0.53211451405E+02 -0.71405822500E+03  0.78554369729E+03  0.17212819851E+03 0.  0.
         24    2    3    3    0    0 -0.21759444431E+03 -0.18905713242E+02 -0.43662170981E+03  0.50044240529E+03  0.10999688790E+03 0.  0.
         -6    2    1    2    0  502  0.27338649635E+03  0.53211451405E+02 -0.70845517049E+03  0.78046077983E+03  0.17215883746E+03 0.  0.
        -24    2    5    5    0    0  0.49981919487E+02 -0.79490535307E+00 -0.17749052209E+03  0.20186606902E+03  0.82147429895E+02 0.  0.
          5    1    3    3  501    0 -0.55792052043E+02 -0.34305738163E+02 -0.27743651519E+03  0.28510129200E+03  0.47000000000E+01 0. -1.
        -11    1    4    4    0    0 -0.31878900913E+02 -0.14807089303E+02 -0.12298784657E+02  0.37239418914E+02  0.00000000000E+00 0.  1.
         12    1    4    4    0    0 -0.18571554340E+03 -0.40986239394E+01 -0.42432292515E+03  0.46320298638E+03  0.00000000000E+00 0. -1.
         -5    1    5    5    0  502  0.22340457687E+03  0.54006356758E+02 -0.53096464840E+03  0.57859471081E+03  0.47000000000E+01 0.  1.
         13    1    6    6    0    0  0.35385324284E+02  0.26015814630E+02 -0.16157861164E+03  0.16744130770E+03  0.00000000000E+00 0. -1.
        -14    1    6    6    0    0  0.14596595203E+02 -0.26810719983E+02 -0.15911910455E+02  0.34424761319E+02  0.00000000000E+00 0.  1.
</event>
<event>
12    1  0.8453150E-002  0.3002781E+03  0.7818608E-02  0.1085128E+00
         21   -1    0    0  501  502  0.00000000000E+00  0.00000000000E+00  0.12122181219E+04  0.12122181219E+04  0.00000000000E+00 0.  1.
         21   -1    0    0  502  503 -0.00000000000E+00 -0.00000000000E+00 -0.38789980069E+03  0.38789980069E+03  0.00000000000E+00 0.  1.
         -6    2    1    2    0  503 -0.23689854277E+02  0.24460400342E+03 -0.30719990980E+03  0.42943418232E+03  0.17219060568E+03 0.  0.
        -24    2    3    3    0    0 -0.46712925202E+02  0.11624839692E+03 -0.24180905751E+03  0.28347776048E+03  0.78690744230E+02 0.  0.
          6    2    1    2  501    0  0.23689854277E+02 -0.24460400342E+03  0.11315182311E+04  0.11706837403E+04  0.17255313660E+03 0.  0.
         24    2    5    5    0    0  0.72518220463E+01 -0.22455957489E+03  0.11134648734E+04  0.11387462742E+04  0.80370773145E+02 0.  0.
          5    1    5    5  501    0  0.16438032231E+02 -0.20044428530E+02  0.18053357698E+02  0.31937466131E+02  0.47000000000E+01 0. -1.
        -13    1    6    6    0    0 -0.24486216941E+02 -0.46529961623E+02  0.16429855391E+03  0.17250688962E+03  0.00000000000E+00 0.  1.
         14    1    6    6    0    0  0.31738038987E+02 -0.17802961326E+03  0.94916631944E+03  0.96623938457E+03  0.00000000000E+00 0. -1.
         -5    1    3    3    0  503  0.23023070925E+02  0.12835560649E+03 -0.65390852293E+02  0.14595642184E+03  0.47000000000E+01 0.  1.
         11    1    4    4    0    0 -0.19158816036E+02  0.71757767958E+02 -0.63721814682E+02  0.97860651748E+02  0.00000000000E+00 0. -1.
        -12    1    4    4    0    0 -0.27554109166E+02  0.44490628963E+02 -0.17808724283E+03  0.18561710873E+03  0.00000000000E+00 0.  1.
</event>
<event>
12    1  0.8453150E-002  0.1690756E+03  0.7818608E-02  0.1178817E+00
         21   -1    0    0  503  502  0.00000000000E+00  0.00000000000E+00  0.17289587993E+03  0.17289587993E+03  0.00000000000E+00 0.  1.
         21   -1    0    0  501  503 -0.00000000000E+00 -0.00000000000E+00 -0.21253834635E+03  0.21253834635E+03  0.00000000000E+00 0.  1.
          6    2    1    2  501    0  0.19912879130E+02 -0.17310339545E+02 -0.11064287801E+03  0.20206035913E+03  0.16700410673E+03 0.  0.
         24    2    3    3    0    0  0.66284729392E+02  0.10995099499E+01 -0.11046831117E+03  0.15194657331E+03  0.80558296255E+02 0.  0.
         -6    2    1    2    0  502 -0.19912879130E+02  0.17310339545E+02  0.71000411591E+02  0.18337386715E+03  0.16699923981E+03 0.  0.
        -24    2    5    5    0    0 -0.15122783872E+02 -0.35278455978E+02 -0.18010240504E+02  0.79771200129E+02  0.67570759643E+02 0.  0.
          5    1    3    3  501    0 -0.46371850262E+02 -0.18409849495E+02 -0.17456684133E+00  0.50113785815E+02  0.47000000000E+01 0. -1.
        -13    1    4    4    0    0  0.22926447016E+02 -0.33092439430E+02 -0.17676405052E+02  0.43968020376E+02  0.00000000000E+00 0.  1.
         14    1    4    4    0    0  0.43358282376E+02  0.34191949380E+02 -0.92791906116E+02  0.10797855293E+03  0.00000000000E+00 0. -1.
         -5    1    5    5    0  502 -0.47900952574E+01  0.52588795523E+02  0.89010652095E+02  0.10360266702E+03  0.47000000000E+01 0.  1.
         13    1    6    6    0    0 -0.35853640629E+02 -0.99765459948E+01 -0.26846611645E+02  0.45888512431E+02  0.00000000000E+00 0. -1.
        -14    1    6    6    0    0  0.20730856757E+02 -0.25301909983E+02  0.88363711409E+01  0.33882687697E+02  0.00000000000E+00 0.  1.
</event>
<event>
12    1  0.8453150E-002  0.1794185E+03  0.7818608E-02  0.1169124E+00
         21   -1    0    0  501  502  0.00000000000E+00  0.00000000000E+00  0.11207445751E+03  0.11207445751E+03  0.00000000000E+00 0.  1.
         21   -1    0    0  502  503 -0.00000000000E+00 -0.00000000000E+00 -0.43915349995E+03  0.43915349995E+03  0.00000000000E+00 0.  1.
         -6    2    1    2    0  503 -0.36893974450E+02  0.12786191192E+02 -0.32733585726E+03  0.37180927988E+03  0.17195559055E+03 0.  0.
        -24    2    3    3    0    0  0.41722597502E+02  0.28678139465E+02 -0.18723567604E+03  0.21030612145E+03  0.81291177330E+02 0.  0.
          6    2    1    2  501    0  0.36893974450E+02 -0.12786191192E+02  0.25681482230E+00  0.17941867757E+03  0.17511808551E+03 0.  0.
         24    2    5    5    0    0  0.84292442752E+01  0.59447940518E+02  0.21366420182E+02  0.98822672171E+02  0.75526729260E+02 0.  0.
          5    1    5    5  501    0  0.28464730175E+02 -0.72234131711E+02 -0.21109605360E+02  0.80596005400E+02  0.47000000000E+01 0. -1.
        -13    1    6    6    0    0  0.15512440036E+02  0.90194186159E+01  0.40599512578E+02  0.44388130504E+02  0.00000000000E+00 0.  1.
         14    1    6    6    0    0 -0.70831957611E+01  0.50428521903E+02 -0.19233092396E+02  0.54434541668E+02  0.00000000000E+00 0. -1.
         -5    1    3    3    0  503 -0.78616571953E+02 -0.15891948273E+02 -0.14010018122E+03  0.16150315843E+03  0.47000000000E+01 0.  1.
         11    1    4    4    0    0 -0.16118338626E+02  0.22510952109E+02 -0.22738595636E+02  0.35827189904E+02  0.00000000000E+00 0. -1.
        -12    1    4    4    0    0  0.57840936128E+02  0.61671873557E+01 -0.16449708041E+03  0.17447893155E+03  0.00000000000E+00 0.  1.
</event>
<event>
12    1  0.8453150E-002  0.2374022E+03  0.7818608E-02  0.1121610E+00
         21   -1    0    0  501  502  0.00000000000E+00  0.00000000000E+00  0.38437444370E+03  0.38437444370E+03  0.00000000000E+00 0.  1.
         21   -1    0    0  502  503 -0.00000000000E+00 -0.00000000000E+00 -0.16709708971E+03  0.16709708971E+03  0.00000000000E+00 0.  1.
         -6    2    1    2    0  503  0.15517617722E+03 -0.51048573193E+02  0.11405492170E+02  0.23723748748E+03  0.17165645170E+03 0.  0.
        -24    2    3    3    0    0  0.16614361881E+03 -0.15495001305E+01 -0.36954983008E+01  0.18412842119E+03  0.79268630356E+02 0.  0.
          6    2    1    2  501    0 -0.15517617722E+03  0.51048573193E+02  0.20587186182E+03  0.31423404594E+03  0.17226203684E+03 0.  0.
         24    2    5    5    0    0 -0.73796081664E+02  0.95688176201E+02  0.13327914602E+03  0.19630522632E+03  0.78551399623E+02 0.  0.
          5    1    5    5  501    0 -0.81380095556E+02 -0.44639603008E+02  0.72592715794E+02  0.11792881962E+03  0.47000000000E+01 0. -1.
        -11    1    6    6    0    0 -0.39498968488E+02  0.12071444899E+02  0.83425475731E+02  0.93089732487E+02  0.00000000000E+00 0.  1.
         12    1    6    6    0    0 -0.34297113176E+02  0.83616731302E+02  0.49853670291E+02  0.10321549383E+03  0.00000000000E+00 0. -1.
         -5    1    3    3    0  503 -0.10967441591E+02 -0.49499073063E+02  0.15100990471E+02  0.53109066291E+02  0.47000000000E+01 0.  1.
         11    1    4    4    0    0  0.36650884511E+02 -0.13441990791E+02  0.30648755354E+02  0.49631851231E+02  0.00000000000E+00 0. -1.
        -12    1    4    4    0    0  0.12949273430E+03  0.11892490661E+02 -0.34344253654E+02  0.13449656996E+03  0.00000000000E+00 0.  1.
</event>
<event>
12    1  0.8453150E-002  0.2310511E+03  0.7818608E-02  0.1125917E+00
         21   -1    0    0  503  502  0.00000000000E+00  0.00000000000E+00  0.23804120984E+03  0.23804120984E+03  0.00000000000E+00 0.  1.
         21   -1    0    0  501  503 -0.00000000000E+00 -0.00000000000E+00 -0.30869180019E+03  0.30869180019E+03  0.00000000000E+00 0. -1.
          6    2    1    2  501    0  0.13053840946E+03  0.81068473016E+02 -0.17834992808E+03  0.29181388825E+03  0.17243629220E+03 0.  0.
         24    2    3    3    0    0  0.57208756631E+02  0.44746115033E+02 -0.18051612192E+03  0.20981794890E+03  0.78501240524E+02 0.  0.
         -6    2    1    2    0  502 -0.13053840946E+03 -0.81068473016E+02  0.10769933773E+03  0.25491912178E+03  0.17254633476E+03 0.  0.
        -24    2    5    5    0    0 -0.47313005898E+02 -0.10839483188E+03  0.58138888469E+02  0.15416434116E+03  0.79990959653E+02 0.  0.
          5    1    3    3  501    0  0.73329652829E+02  0.36322357983E+02  0.21661938363E+01  0.81995939346E+02  0.47000000000E+01 0. -1.
        -13    1    4    4    0    0 -0.19052009632E+02  0.16162878469E+01 -0.37660130239E+02  0.42235966510E+02  0.00000000000E+00 0.  1.
         14    1    4    4    0    0  0.76260766263E+02  0.43129827186E+02 -0.14285599168E+03  0.16758198239E+03  0.00000000000E+00 0. -1.
         -5    1    5    5    0  502 -0.83225403562E+02  0.27326358863E+02  0.49560449262E+02  0.10075478062E+03  0.47000000000E+01 0.  1.
         11    1    6    6    0    0 -0.27026415162E+02 -0.98205600461E+02  0.11767373924E+02  0.10253408295E+03  0.00000000000E+00 0. -1.
        -12    1    6    6    0    0 -0.20286590737E+02 -0.10189231418E+02  0.46371514545E+02  0.51630258200E+02  0.00000000000E+00 0.  1.
</event>
<event>
12    1  0.8453150E-002  0.1808430E+03  0.7818608E-02  0.1167191E+00
         21   -1    0    0  501  502  0.00000000000E+00  0.00000000000E+00  0.52036937843E+02  0.52036937843E+02  0.00000000000E+00 0. -1.
         21   -1    0    0  502  503 -0.00000000000E+00 -0.00000000000E+00 -0.12299970151E+04  0.12299970151E+04  0.00000000000E+00 0. -1.
         -6    2    1    2    0  503  0.36131598010E+02 -0.35742580416E+02 -0.10390215727E+04  0.10546421274E+04  0.17355449803E+03 0.  0.
        -24    2    3    3    0    0  0.40194030103E+02 -0.87447046968E+02 -0.83506392420E+03  0.84414113542E+03  0.77330155368E+02 0.  0.
          6    2    1    2  501    0 -0.36131598010E+02  0.35742580416E+02 -0.13893850453E+03  0.22739182558E+03  0.17268500187E+03 0.  0.
         24    2    5    5    0    0  0.38722467431E+02  0.20707058405E+02 -0.11781234257E+03  0.14803438892E+03  0.78142309203E+02 0.  0.
          5    1    5    5  501    0 -0.74854065440E+02  0.15035522011E+02 -0.21126161959E+02  0.79357436666E+02  0.47000000000E+01 0. -1.
        -11    1    6    6    0    0 -0.15189557301E+02  0.11613348562E+02 -0.78239736726E+02  0.80542218238E+02  0.00000000000E+00 0.  1.
         12    1    6    6    0    0  0.53912024731E+02  0.90937098436E+01 -0.39572605847E+02  0.67492170678E+02  0.00000000000E+00 0. -1.
         -5    1    3    3    0  503 -0.40624320931E+01  0.51704466552E+02 -0.20395764854E+03  0.21050099195E+03  0.47000000000E+01 0.  1.
         13    1    4    4    0    0  0.19063375438E+02 -0.14662728592E+02 -0.50146094054E+03  0.50203733206E+03  0.00000000000E+00 0. -1.
        -14    1    4    4    0    0  0.21130654665E+02 -0.72784318376E+02 -0.33360298366E+03  0.34210380336E+03  0.00000000000E+00 0.  1.
</event>
<event>
12    1  0.8453150E-002  0.2257421E+03  0.7818608E-02  0.1129834E+00
         21   -1    0    0  503  502  0.00000000000E+00  0.00000000000E+00  0.36091015784E+03  0.36091015784E+03  0.00000000000E+00 0. -1.
         21   -1    0    0  501  503 -0.00000000000E+00 -0.00000000000E+00 -0.22614249706E+03  0.22614249706E+03  0.00000000000E+00 0. -1.
          6    2    1    2  501    0 -0.14432098151E+03 -0.18250686593E+02 -0.11301809249E+03  0.25245316218E+03  0.17262061465E+03 0.  0.
         24    2    3    3    0    0 -0.20779382759E+02  0.29380440413E+02 -0.20139424661E+02  0.90651469303E+02  0.80728554021E+02 0.  0.
         -6    2    1    2    0  502  0.14432098151E+03  0.18250686593E+02  0.24778575327E+03  0.33459949271E+03  0.17145672262E+03 0.  0.
        -24    2    5    5    0    0  0.27971489265E+02  0.14286588000E+02  0.18041381417E+03  0.20001128148E+03  0.80429208432E+02 0.  0.
          5    1    3    3  501    0 -0.12354159875E+03 -0.47631127006E+02 -0.92878667825E+02  0.16180169288E+03  0.47000000000E+01 0. -1.
        -11    1    4    4    0    0  0.29799009428E+01  0.14948608284E+02  0.29813654618E+02  0.33484245563E+02  0.00000000000E+00 0.  1.
         12    1    4    4    0    0 -0.23759283702E+02  0.14431832129E+02 -0.49953079279E+02  0.57167223740E+02  0.00000000000E+00 0. -1.
         -5    1    5    5    0  502  0.11634949225E+03  0.39640985926E+01  0.67371939107E+02  0.13458821123E+03  0.47000000000E+01 0.  1.
         13    1    6    6    0    0  0.39993975376E+02  0.25540814995E+02  0.51419867557E+02  0.69970379994E+02  0.00000000000E+00 0. -1.
        -14    1    6    6    0    0 -0.12022486111E+02 -0.11254226995E+02  0.12899394661E+03  0.13004090149E+03  0.00000000000E+00 0.  1.
</event>
<event>
12    1  0.8453150E-002  0.3309796E+03  0.7818608E-02  0.1070761E+00
         21   -1    0    0  501  502  0.00000000000E+00  0.00000000000E+00  0.10495143128E+04  0.10495143128E+04  0.00000000000E+00 0.  1.
         21   -1    0    0  502  503 -0.00000000000E+00 -0.00000000000E+00 -0.11511486105E+03  0.11511486105E+03  0.00000000000E+00 0. -1.
         -6    2    1    2    0  503 -0.25671159956E+03  0.11751695797E+03  0.28836247258E+03  0.43897657955E+03  0.17273228140E+03 0.  0.
        -24    2    3    3    0    0 -0.21897298227E+03  0.14117534071E+03  0.28458187214E+03  0.39402877372E+03  0.79951164946E+02 0.  0.
          6    2    1    2  501    0  0.25671159956E+03 -0.11751695797E+03  0.64603697917E+03  0.72565259430E+03  0.17174640725E+03 0.  0.
         24    2    5    5    0    0  0.62857029146E+02 -0.75621597555E+02  0.19775729989E+03  0.23543674740E+03  0.81565190112E+02 0.  0.
          5    1    5    5  501    0  0.19385457041E+03 -0.41895360410E+02  0.44827967928E+03  0.49021584690E+03  0.47000000000E+01 0. -1.
        -11    1    6    6    0    0  0.60465402585E+02 -0.74198373557E+02  0.20577664131E+03  0.22694820920E+03  0.00000000000E+00 0.  1.
         12    1    6    6    0    0  0.23916265615E+01 -0.14232239984E+01 -0.80193414176E+01  0.84885382094E+01  0.00000000000E+00 0. -1.
         -5    1    3    3    0  503 -0.37738617292E+02 -0.23658382744E+02  0.37806004401E+01  0.44947805829E+02  0.47000000000E+01 0.  1.
         13    1    4    4    0    0 -0.89861650137E+02  0.13356059470E+02  0.95052482815E+02  0.13148564553E+03  0.00000000000E+00 0. -1.
        -14    1    4    4    0    0 -0.12911133213E+03  0.12781928124E+03  0.18952938933E+03  0.26254312819E+03  0.00000000000E+00 0.  1.
</event>
<event>
12    1  0.8453150E-002  0.1768671E+03  0.7818608E-02  0.1171146E+00
         21   -1    0    0  503  502  0.00000000000E+00  0.00000000000E+00  0.60283130168E+03  0.60283130168E+03  0.00000000000E+00 0.  1.
         21   -1    0    0  501  503 -0.00000000000E+00 -0.00000000000E+00 -0.51623749752E+02  0.51623749752E+02  0.00000000000E+00 0.  1.
          6    2    1    2  501    0  0.29614356674E+02 -0.24246934691E+02  0.26559906047E+03  0.31910001580E+03  0.17267609909E+03 0.  0.
         24    2    3    3    0    0 -0.22411013865E+02 -0.15804452603E+02  0.25027484716E+03  0.26401066840E+03  0.79448723365E+02 0.  0.
         -6    2    1    2    0  502 -0.29614356674E+02  0.24246934691E+02  0.28560849145E+03  0.33535503563E+03  0.17153969094E+03 0.  0.
        -24    2    5    5    0    0  0.10205602649E+02  0.73561064512E+02  0.16831224470E+03  0.20194584531E+03  0.83293026012E+02 0.  0.
          5    1    3    3  501    0  0.52025370539E+02 -0.84424820880E+01  0.15324213318E+02  0.55089347404E+02  0.47000000000E+01 0. -1.
        -13    1    4    4    0    0 -0.22386068953E+02 -0.46437509035E+02  0.18236613206E+03  0.18951249154E+03  0.00000000000E+00 0.  1.
         14    1    4    4    0    0 -0.24944912163E-01  0.30633056432E+02  0.67908715097E+02  0.74498176855E+02  0.00000000000E+00 0. -1.
         -5    1    5    5    0  502 -0.39819959323E+02 -0.49314129821E+02  0.11729624675E+03  0.13340919032E+03  0.47000000000E+01 0.  1.
         13    1    6    6    0    0  0.13813465964E+02 -0.15711064030E+02  0.20898076932E+02  0.29569900141E+02  0.00000000000E+00 0. -1.
        -14    1    6    6    0    0 -0.36078633155E+01  0.89272128542E+02  0.14741416777E+03  0.17237594516E+03  0.00000000000E+00 0.  1.
</event>
<event>
12    1  0.8453150E-002  0.1767997E+03  0.7818608E-02  0.1173076E+00
         21   -1    0    0  501  502  0.00000000000E+00  0.00000000000E+00  0.74325449101E+03  0.74325449101E+03  0.00000000000E+00 0. -1.
         21   -1    0    0  502  503 -0.00000000000E+00 -0.00000000000E+00 -0.44527720660E+02  0.44527720660E+02  0.00000000000E+00 0. -1.
         -6    2    1    2    0  503  0.17377923487E+02 -0.37141458125E+02  0.48151585704E+03  0.51294799645E+03  0.17197862179E+03 0.  0.
        -24    2    3    3    0    0  0.58884200143E+02 -0.72413619334E+02  0.31764927869E+03  0.34020181891E+03  0.78263222801E+02 0.  0.
          6    2    1    2  501    0 -0.17377923487E+02  0.37141458125E+02  0.21721091331E+03  0.27483421522E+03  0.16331498662E+03 0.  0.
         24    2    5    5    0    0 -0.66572447943E+02 -0.24227420189E+01  0.14033239239E+03  0.17524594207E+03  0.81118427952E+02 0.  0.
          5    1    5    5  501    0  0.49194524456E+02  0.39564200144E+02  0.76878520922E+02  0.99588273148E+02  0.47000000000E+01 0. -1.
        -11    1    6    6    0    0 -0.38442956182E+02  0.35637363631E+02  0.46147356579E+02  0.69838822196E+02  0.00000000000E+00 0.  1.
         12    1    6    6    0    0 -0.28129491761E+02 -0.38060105650E+02  0.94185035811E+02  0.10540711987E+03  0.00000000000E+00 0. -1.
         -5    1    3    3    0  503 -0.41506276656E+02  0.35272161209E+02  0.16386657834E+03  0.17274617754E+03  0.47000000000E+01 0.  1.
         13    1    4    4    0    0  0.51609686201E+02 -0.29907642990E+01  0.12338165823E+03  0.13377420517E+03  0.00000000000E+00 0. -1.
        -14    1    4    4    0    0  0.72745139425E+01 -0.69422855035E+02  0.19426762047E+03  0.20642761374E+03  0.00000000000E+00 0.  1.
</event>
<event>
12    1  0.8453150E-002  0.1891483E+03  0.7818608E-02  0.1159235E+00
         21   -1    0    0  501  502  0.00000000000E+00  0.00000000000E+00  0.10287438731E+04  0.10287438731E+04  0.00000000000E+00 0. -1.
         21   -1    0    0  502  503 -0.00000000000E+00 -0.00000000000E+00 -0.58761637736E+02  0.58761637736E+02  0.00000000000E+00 0.  1.
         -6    2    1    2    0  503 -0.77741903737E+02 -0.10935265271E+02  0.13756990975E+03  0.23387363711E+03  0.17206979526E+03 0.  0.
        -24    2    3    3    0    0 -0.96799770262E+02  0.36038847766E+02  0.12233272383E+03  0.18073202058E+03  0.83843746772E+02 0.  0.
          6    2    1    2  501    0  0.77741903737E+02  0.10935265271E+02  0.83241232558E+03  0.85363187369E+03  0.17208635154E+03 0.  0.
         24    2    5    5    0    0 -0.27219627749E+02  0.12072686091E+02  0.35664092008E+03  0.36639606107E+03  0.78528146570E+02 0.  0.
          5    1    5    5  501    0  0.10496153149E+03 -0.11374208199E+01  0.47577140549E+03  0.48723581262E+03  0.47000000000E+01 0. -1.
        -11    1    6    6    0    0 -0.11494278177E+02 -0.23249245469E+01  0.29889244022E+01  0.12101957447E+02  0.00000000000E+00 0.  1.
         12    1    6    6    0    0 -0.15725349572E+02  0.14397610638E+02  0.35365199568E+03  0.35429410362E+03  0.00000000000E+00 0. -1.
         -5    1    3    3    0  503  0.19057866525E+02 -0.46974113037E+02  0.15237185919E+02  0.53141616525E+02  0.47000000000E+01 0.  1.
         11    1    4    4    0    0 -0.19999720895E+02  0.34445362491E+02  0.87995533386E+02  0.96590298317E+02  0.00000000000E+00 0. -1.
        -12    1    4    4    0    0 -0.76800049367E+02  0.15934852752E+01  0.34337190443E+02  0.84141722264E+02  0.00000000000E+00 0.  1.
</event>
<event>
12    1  0.8453150E-002  0.1785352E+03  0.7818608E-02  0.1169904E+00
         21   -1    0    0  501  502  0.00000000000E+00  0.00000000000E+00  0.76559258067E+03  0.76559258067E+03  0.00000000000E+00 0.  1.
         21   -1    0    0  502  503 -0.00000000000E+00 -0.00000000000E+00 -0.72371875897E+02  0.72371875897E+02  0.00000000000E+00 0.  1.
         -6    2    1    2    0  503  0.34112313435E+02 -0.31706071621E+02  0.69229838953E+02  0.18893485662E+03  0.16951308073E+03 0.  0.
        -24    2    3    3    0    0  0.53393278508E+02 -0.75821667465E+02  0.68358060827E+02  0.14055313065E+03  0.80514536632E+02 0.  0.
          6    2    1    2  501    0 -0.34112313435E+02  0.31706071621E+02  0.62399086582E+03  0.64902959994E+03  0.17235398479E+03 0.  0.
         24    2    5    5    0    0 -0.31179416863E+02 -0.39523284643E+02  0.23866483220E+03  0.25713616384E+03  0.81387090874E+02 0.  0.
          5    1    5    5  501    0 -0.29328965723E+01  0.71229356263E+02  0.38532603362E+03  0.39189343611E+03  0.47000000000E+01 0. -1.
        -13    1    6    6    0    0  0.95924207151E+00  0.23798776184E+02  0.45981587557E+02  0.51784247484E+02  0.00000000000E+00 0.  1.
         14    1    6    6    0    0 -0.32138658935E+02 -0.63322060826E+02  0.19268324464E+03  0.20535191635E+03  0.00000000000E+00 0. -1.
         -5    1    3    3    0  503 -0.19280965072E+02  0.44115595844E+02  0.87177812584E+00  0.48381725971E+02  0.47000000000E+01 0.  1.
         13    1    4    4    0    0  0.36326806172E+02  0.57812089479E+01  0.80399406072E+01  0.37652355418E+02  0.00000000000E+00 0. -1.
        -14    1    4    4    0    0  0.17066472336E+02 -0.81602876412E+02  0.60318120220E+02  0.10290077523E+03  0.00000000000E+00 0.  1.
</event>
<event>
12    1  0.8453150E-002  0.1746435E+03  0.7818608E-02  0.1173488E+00
         21   -1    0    0  501  502  0.00000000000E+00  0.00000000000E+00  0.79778908156E+03  0.79778908156E+03  0.00000000000E+00 0. -1.
         21   -1    0    0  502  503 -0.00000000000E+00 -0.00000000000E+00 -0.37990960890E+02  0.37990960890E+02  0.00000000000E+00 0. -1.
         -6    2    1    2    0  503 -0.19041376016E+02  0.20862308333E+02  0.39995068664E+03  0.43579188433E+03  0.17075188079E+03 0.  0.
        -24    2    3    3    0    0 -0.37863532795E+02 -0.41700876723E+02  0.16599481819E+03  0.19283949374E+03  0.80375247714E+02 0.  0.
          6    2    1    2  501    0  0.19041376016E+02 -0.20862308333E+02  0.35984743402E+03  0.39998815811E+03  0.17234425128E+03 0.  0.
         24    2    5    5    0    0  0.34674123905E+02  0.24920362534E+01  0.74853339194E+02  0.11357319289E+03  0.78021424245E+02 0.  0.
          5    1    5    5  501    0 -0.15632747889E+02 -0.23354344587E+02  0.28499409483E+03  0.28641496523E+03  0.47000000000E+01 0. -1.
        -13    1    6    6    0    0  0.22016846599E+02 -0.36210420264E+02  0.24997715061E+02  0.49201847812E+02  0.00000000000E+00 0.  1.
         14    1    6    6    0    0  0.12657277306E+02  0.38702456517E+02  0.49855624133E+02  0.64371345077E+02  0.00000000000E+00 0. -1.
         -5    1    3    3    0  503  0.18822156780E+02  0.62563185056E+02  0.23395586845E+03  0.24295239059E+03  0.47000000000E+01 0.  1.
         11    1    4    4    0    0  0.20865546053E+02 -0.14653345359E+02  0.17632603199E+02  0.31000003837E+02  0.00000000000E+00 0. -1.
        -12    1    4    4    0    0 -0.58729078849E+02 -0.27047531364E+02  0.14836221499E+03  0.16183948990E+03  0.00000000000E+00 0.  1.
</event>
<event>
12    1  0.8453150E-002  0.2351699E+03  0.7818608E-02  0.1123180E+00
         21   -1    0    0  503  502  0.00000000000E+00  0.00000000000E+00  0.39760875262E+03  0.39760875262E+03  0.00000000000E+00 0.  1.
         21   -1    0    0  501  503 -0.00000000000E+00 -0.00000000000E+00 -0.14326490292E+03  0.14326490292E+03  0.00000000000E+00 0. -1.
          6    2    1    2  501    0 -0.51877229147E+02  0.15127603800E+03  0.17587514442E+03  0.29366130753E+03  0.17242160695E+03 0.  0.
         24    2    3    3    0    0 -0.55803199116E+02  0.12669318370E+03  0.20169489654E+03  0.25748839550E+03  0.80338550502E+02 0.  0.
         -6    2    1    2    0  502  0.51877229147E+02 -0.15127603800E+03  0.78468705279E+02  0.24721234801E+03  0.17140863667E+03 0.  0.
        -24    2    5    5    0    0 -0.34475544798E+02 -0.52025450246E+02  0.13069672249E+01  0.94623014972E+02  0.71109747128E+02 0.  0.
          5    1    3    3  501    0  0.39259699694E+01  0.24582854297E+02 -0.25819752123E+02  0.36172912038E+02  0.47000000000E+01 0. -1.
        -13    1    4    4    0    0 -0.55074905055E+02  0.86372836228E+02  0.82101777584E+02  0.13127914491E+03  0.00000000000E+00 0.  1.
         14    1    4    4    0    0 -0.72829406114E+00  0.40320347472E+02  0.11959311896E+03  0.12620925059E+03  0.00000000000E+00 0. -1.
         -5    1    5    5    0  502  0.86352773945E+02 -0.99250587752E+02  0.77161738054E+02  0.15258933304E+03  0.47000000000E+01 0.  1.
         13    1    6    6    0    0  0.19052800543E+02 -0.22765851362E+02  0.13170181460E+02  0.32476866790E+02  0.00000000000E+00 0. -1.
        -14    1    6    6    0    0 -0.53528345342E+02 -0.29259598884E+02 -0.11863214236E+02  0.62146148182E+02  0.00000000000E+00 0.  1.
</event>
<event>
12    1  0.8453150E-002  0.1893167E+03  0.7818608E-02  0.1159398E+00
         21   -1    0    0  501  502  0.00000000000E+00  0.00000000000E+00  0.21137173390E+03  0.21137173390E+03  0.00000000000E+00 0.  1.
         21   -1    0    0  502  503 -0.00000000000E+00 -0.00000000000E+00 -0.18496553623E+03  0.18496553623E+03  0.00000000000E+00 0. -1.
         -6    2    1    2    0  503 -0.35090649809E+02  0.71990253245E+02  0.72625671176E+02  0.20146027845E+03  0.16999354521E+03 0.  0.
        -24    2    3    3    0    0 -0.14104610670E+02  0.58766126102E+02 -0.23241054245E+02  0.10232496476E+03  0.79232911036E+02 0.  0.
          6    2    1    2  501    0  0.35090649809E+02 -0.71990253245E+02 -0.46219473503E+02  0.19487699168E+03  0.17154256583E+03 0.  0.
         24    2    5    5    0    0 -0.44950308983E+01  0.56789952030E+01 -0.69106078655E+02  0.10462498358E+03  0.78219439989E+02 0.  0.
          5    1    5    5  501    0  0.39585680707E+02 -0.77669248448E+02  0.22886605153E+02  0.90252008104E+02  0.47000000000E+01 0. -1.
        -11    1    6    6    0    0 -0.33985823496E+01 -0.33502839093E+02 -0.12813977043E+02  0.36030384357E+02  0.00000000000E+00 0.  1.
         12    1    6    6    0    0 -0.10964485487E+01  0.39181834296E+02 -0.56292101613E+02  0.68594599221E+02  0.00000000000E+00 0. -1.
         -5    1    3    3    0  503 -0.20986039139E+02  0.13224127143E+02  0.95866725421E+02  0.99135313690E+02  0.47000000000E+01 0.  1.
         11    1    4    4    0    0 -0.93675902407E+01 -0.10275833572E+02 -0.29726144453E+02  0.32817497871E+02  0.00000000000E+00 0. -1.
        -12    1    4    4    0    0 -0.47370204288E+01  0.69041959674E+02  0.64850902073E+01  0.69507466888E+02  0.00000000000E+00 0.  1.
</event>
<event>
12    1  0.8453150E-002  0.2266007E+03  0.7818608E-02  0.1129632E+00
         21   -1    0    0  501  502  0.00000000000E+00  0.00000000000E+00  0.64729088962E+03  0.64729088962E+03  0.00000000000E+00 0. -1.
         21   -1    0    0  502  503 -0.00000000000E+00 -0.00000000000E+00 -0.10267535407E+03  0.10267535407E+03  0.00000000000E+00 0. -1.
         -6    2    1    2    0  503 -0.51931301637E+02 -0.13749237059E+03  0.90755697886E+02  0.24409927970E+03  0.17247275029E+03 0.  0.
        -24    2    3    3    0    0 -0.83570851126E+02 -0.13612427266E+03  0.10776133111E+03  0.20784718535E+03  0.77936148292E+02 0.  0.
          6    2    1    2  501    0  0.51931301637E+02  0.13749237059E+03  0.45385983767E+03  0.50586696398E+03  0.16826057454E+03 0.  0.
         24    2    5    5    0    0  0.13914285668E+02  0.23623898513E+02  0.92596261491E+02  0.12515081788E+03  0.79605047869E+02 0.  0.
          5    1    5    5  501    0  0.38017015969E+02  0.11386847207E+03  0.36126357618E+03  0.38071614611E+03  0.47000000000E+01 0. -1.
        -11    1    6    6    0    0  0.27998598754E+02 -0.13007372773E+02  0.76930600368E+02  0.82894092381E+02  0.00000000000E+00 0.  1.
         12    1    6    6    0    0 -0.14084313086E+02  0.36631271286E+02  0.15665661122E+02  0.42256725495E+02  0.00000000000E+00 0. -1.
         -5    1    3    3    0  503  0.31639549488E+02 -0.13680979285E+01 -0.17005633222E+02  0.36252094354E+02  0.47000000000E+01 0.  1.
         13    1    4    4    0    0 -0.21558384338E+01 -0.57137689143E+01 -0.11669221635E+02  0.13170631273E+02  0.00000000000E+00 0. -1.
        -14    1    4    4    0    0 -0.81415012692E+02 -0.13041050374E+03  0.11943055274E+03  0.19467655407E+03  0.00000000000E+00 0.  1.
</event>
<event>
12    1  0.8453150E-002  0.1872202E+03  0.7818608E-02  0.1163706E+00
         21   -1    0    0  501  502  0.00000000000E+00  0.00000000000E+00  0.12692866716E+03  0.12692866716E+03  0.00000000000E+00 0. -1.
         21   -1    0    0  502  503 -0.00000000000E+00 -0.00000000000E+00 -0.28832675508E+03  0.28832675508E+03  0.00000000000E+00 0. -1.
         -6    2    1    2    0  503  0.49634302594E+02 -0.51960385207E+02 -0.17443662908E+02  0.18803110052E+03  0.17288136904E+03 0.  0.
        -24    2    3    3    0    0  0.39103941584E+02  0.37434298153E+02 -0.18366672453E+02  0.97890988121E+02  0.79466130978E+02 0.  0.
          6    2    1    2  501    0 -0.49634302594E+02  0.51960385207E+02 -0.14395442500E+03  0.22722432172E+03  0.16045114609E+03 0.  0.
         24    2    5    5    0    0  0.29548995675E+02  0.11604988454E+02 -0.55811280855E+02  0.10196516385E+03  0.79209700576E+02 0.  0.
          5    1    5    5  501    0 -0.79183298268E+02  0.40355396753E+02 -0.88143144148E+02  0.12525915788E+03  0.47000000000E+01 0. -1.
        -11    1    6    6    0    0  0.70456915595E+01 -0.32516482348E+02 -0.34854793086E+02  0.48185267405E+02  0.00000000000E+00 0.  1.
         12    1    6    6    0    0  0.22503304115E+02  0.44121470801E+02 -0.20956487769E+02  0.53779896443E+02  0.00000000000E+00 0. -1.
         -5    1    3    3    0  503  0.10530361010E+02 -0.89394683360E+02  0.92300954469E+00  0.90140112396E+02  0.47000000000E+01 0.  1.
         11    1    4    4    0    0  0.19377289830E+02 -0.22602909645E+02  0.56182837350E+01  0.30297458601E+02  0.00000000000E+00 0. -1.
        -12    1    4    4    0    0  0.19726651754E+02  0.60037207798E+02 -0.23984956188E+02  0.67593529519E+02  0.00000000000E+00 0.  1.
</event>
<event>
12    1  0.8453150E-002  0.2050536E+03  0.7818608E-02  0.1147440E+00
         21   -1    0    0  503  502  0.00000000000E+00  0.00000000000E+00  0.87658527439E+03  0.87658527439E+03  0.00000000000E+00 0. -1.
         21   -1    0    0  501  503 -0.00000000000E+00 -0.00000000000E+00 -0.37935590621E+03  0.37935590621E+03  0.00000000000E+00 0. -1.
          6    2    1    2  501    0 -0.59545300057E+02  0.90591929350E+02 -0.34082843691E+03  0.39316202773E+03  0.16327833970E+03 0.  0.
         24    2    3    3    0    0  0.23124702303E+02  0.72585411873E+02 -0.16939716152E+03  0.20193092109E+03  0.79229443316E+02 0.  0.
         -6    2    1    2    0  502  0.59545300057E+02 -0.90591929350E+02  0.83805780509E+03  0.86277915288E+03  0.17405298489E+03 0.  0.
        -24    2    5    5    0    0  0.98192176443E+02 -0.51003568965E+02  0.43154884546E+03  0.45249578301E+03  0.79214645500E+02 0.  0.
          5    1    3    3  501    0 -0.82670002361E+02  0.18006517478E+02 -0.17143127540E+03  0.19123110664E+03  0.47000000000E+01 0. -1.
        -13    1    4    4    0    0  0.27000848127E+02 -0.41578588940E+01 -0.77310972884E+02  0.81995854275E+02  0.00000000000E+00 0.  1.
         14    1    4    4    0    0 -0.38761458234E+01  0.76743270767E+02 -0.92086188634E+02  0.11993506681E+03  0.00000000000E+00 0. -1.
         -5    1    5    5    0  502 -0.38646876385E+02 -0.39588360386E+02  0.40650895963E+03  0.41028336987E+03  0.47000000000E+01 0.  1.
         11    1    6    6    0    0  0.74729316105E+02 -0.19745885865E+02  0.38013170063E+03  0.38791040270E+03  0.00000000000E+00 0. -1.
        -12    1    6    6    0    0  0.23462860337E+02 -0.31257683100E+02  0.51417144827E+02  0.64585380312E+02  0.00000000000E+00 0.  1.
</event>
<event>
12    1  0.8453150E-002  0.1930652E+03  0.7818608E-02  0.1155739E+00
         21   -1    0    0  503  502  0.00000000000E+00  0.00000000000E+00  0.10631135416E+03  0.10631135416E+03  0.00000000000E+00 0.  1.
         21   -1    0    0  501  503 -0.00000000000E+00 -0.00000000000E+00 -0.35487536771E+03  0.35487536771E+03  0.00000000000E+00 0.  1.
          6    2    1    2  501    0  0.86877172232E+02 -0.56698873601E+00 -0.14989998546E+03  0.24442623064E+03  0.17241291151E+03 0.  0.
         24    2    3    3    0    0  0.32408331916E+01  0.71924422425E+01 -0.14090792318E+03  0.15982012471E+03  0.75001301464E+02 0.  0.
         -6    2    1    2    0  502 -0.86877172232E+02  0.56698873601E+00 -0.98664028094E+02  0.21676049123E+03  0.17234429375E+03 0.  0.
        -24    2    5    5    0    0  0.88562568063E+01  0.35107475243E+02 -0.64832709470E+02  0.10940788175E+03  0.80348218829E+02 0.  0.
          5    1    3    3  501    0  0.83636339040E+02 -0.77594309785E+01 -0.89920622739E+01  0.84606105933E+02  0.47000000000E+01 0. -1.
        -11    1    4    4    0    0  0.11167908650E+02  0.38248296686E+02 -0.10138832037E+03  0.10893688949E+03  0.00000000000E+00 0.  1.
         12    1    4    4    0    0 -0.79270754582E+01 -0.31055854443E+02 -0.39519602811E+02  0.50883235224E+02  0.00000000000E+00 0. -1.
         -5    1    5    5    0  502 -0.95733429038E+02 -0.34540486507E+02 -0.33831318624E+02  0.10735260949E+03  0.47000000000E+01 0.  1.
         11    1    6    6    0    0  0.15619361853E+02  0.16802151782E+02  0.14878189576E+02  0.27342956941E+02  0.00000000000E+00 0. -1.
        -12    1    6    6    0    0 -0.67631050470E+01  0.18305323461E+02 -0.79710899046E+02  0.82064924807E+02  0.00000000000E+00 0.  1.
</event>
<event>
12    1  0.8453150E-002  0.2892956E+03  0.7818608E-02  0.1090838E+00
         21   -1    0    0  503  502  0.00000000000E+00  0.00000000000E+00  0.36714579339E+03  0.36714579339E+03  0.00000000000E+00 0. -1.
         21   -1    0    0  501  503 -0.00000000000E+00 -0.00000000000E+00 -0.22986714737E+03  0.22986714737E+03  0.00000000000E+00 0. -1.
          6    2    1    2  501    0 -0.17172426259E+02 -0.23143612336E+03  0.36552265950E+02  0.29068347533E+03  0.17118190111E+03 0.  0.
         24    2    3    3    0    0 -0.26130591303E+02 -0.80693205518E+02  0.70986406384E+02  0.13572710719E+03  0.78667506103E+02 0.  0.
         -6    2    1    2    0  502  0.17172426259E+02  0.23143612336E+03  0.10072638007E+03  0.30632946542E+03  0.17272627572E+03 0.  0.
        -24    2    5    5    0    0  0.16839056117E+02  0.25699135288E+02  0.33507039859E+02  0.89838474630E+02  0.77486969474E+02 0.  0.
          5    1    3    3  501    0  0.89581650445E+01 -0.15074291784E+03 -0.34434140434E+02  0.15495636814E+03  0.47000000000E+01 0. -1.
        -11    1    4    4    0    0 -0.12485235639E+02 -0.74109700696E+02  0.86128025043E+02  0.11430732935E+03  0.00000000000E+00 0.  1.
         12    1    4    4    0    0 -0.13645355664E+02 -0.65835048216E+01 -0.15141618659E+02  0.21419777836E+02  0.00000000000E+00 0. -1.
         -5    1    5    5    0  502  0.33337014119E+00  0.20573698807E+03  0.67219340215E+02  0.21649099079E+03  0.47000000000E+01 0.  1.
         13    1    6    6    0    0 -0.30369565381E+02  0.57343577523E+01  0.53779992707E+01  0.31370626968E+02  0.00000000000E+00 0. -1.
        -14    1    6    6    0    0  0.47208621498E+02  0.19964777536E+02  0.28129040588E+02  0.58467847662E+02  0.00000000000E+00 0.  1.
</event>
<event>
12    1  0.8453150E-002  0.2182400E+03  0.7818608E-02  0.1135414E+00
         21   -1    0    0  503  502  0.00000000000E+00  0.00000000000E+00  0.91198243681E+02  0.91198243681E+02  0.00000000000E+00 0. -1.
         21   -1    0    0  501  503 -0.00000000000E+00 -0.00000000000E+00 -0.54497772348E+03  0.54497772348E+03  0.00000000000E+00 0. -1.
          6    2    1    2  501    0  0.43726802756E+02  0.12604352387E+03 -0.29501308360E+03  0.36629552791E+03  0.17129124638E+03 0.  0.
         24    2    3    3    0    0  0.82898619527E+02  0.91958667824E+02 -0.27250346594E+03  0.30950660709E+03  0.78788471101E+02 0.  0.
         -6    2    1    2    0  502 -0.43726802756E+02 -0.12604352387E+03 -0.15876639620E+03  0.26988043925E+03  0.17271270868E+03 0.  0.
        -24    2    5    5    0    0 -0.20259786882E+02 -0.15820437009E+03 -0.13058256245E+03  0.22087595630E+03  0.79342931482E+02 0.  0.
          5    1    3    3  501    0 -0.39171816771E+02  0.34084856042E+02 -0.22509617664E+02  0.56788920820E+02  0.47000000000E+01 0. -1.
        -13    1    4    4    0    0  0.65909904158E+02  0.72591209580E+02 -0.12057305214E+03  0.15540740033E+03  0.00000000000E+00 0.  1.
         14    1    4    4    0    0  0.16988715369E+02  0.19367458245E+02 -0.15193041380E+03  0.15409920676E+03  0.00000000000E+00 0. -1.
         -5    1    5    5    0  502 -0.23467015874E+02  0.32160846225E+02 -0.28183833747E+02  0.49004482944E+02  0.47000000000E+01 0.  1.
         13    1    6    6    0    0 -0.11119867759E+02 -0.14064211693E+03 -0.14017254933E+03  0.19887734939E+03  0.00000000000E+00 0. -1.
        -14    1    6    6    0    0 -0.91399191227E+01 -0.17562253158E+02  0.95899868844E+01  0.21998606910E+02  0.00000000000E+00 0.  1.
</event>
<event>
12    1  0.8453150E-002  0.2374723E+03  0.7818608E-02  0.1121519E+00
         21   -1    0    0  503  502  0.00000000000E+00  0.00000000000E+00  0.31937762034E+03  0.31937762034E+03  0.00000000000E+00 0.  1.
         21   -1    0    0  501  503 -0.00000000000E+00 -0.00000000000E+00 -0.33247632110E+03  0.33247632110E+03  0.00000000000E+00 0.  1.
          6    2    1    2  501    0 -0.17519046666E+02  0.16290380248E+03 -0.22983632785E+03  0.33048123593E+03  0.17189689887E+03 0.  0.
         24    2    3    3    0    0 -0.38093900912E+02  0.15938720835E+03 -0.11914629464E+03  0.21774231401E+03  0.79752418863E+02 0.  0.
         -6    2    1    2    0  502  0.17519046666E+02 -0.16290380248E+03  0.21673762709E+03  0.32137270551E+03  0.17164105276E+03 0.  0.
        -24    2    5    5    0    0 -0.38568489489E+02 -0.14663624028E+03  0.12807158914E+03  0.21509852437E+03  0.82917597017E+02 0.  0.
          5    1    3    3  501    0  0.20574854246E+02  0.35165941294E+01 -0.11069003321E+03  0.11273892191E+03  0.47000000000E+01 0. -1.
        -13    1    4    4    0    0 -0.38732838935E+02  0.52927390046E+02 -0.81963637559E+02  0.10497418402E+03  0.00000000000E+00 0.  1.
         14    1    4    4    0    0  0.63893802301E+00  0.10645981830E+03 -0.37182657081E+02  0.11276812999E+03  0.00000000000E+00 0. -1.
         -5    1    5    5    0  502  0.56087536154E+02 -0.16267562191E+02  0.88666037951E+02  0.10627418114E+03  0.47000000000E+01 0.  1.
         11    1    6    6    0    0 -0.37467875236E+02 -0.57113069882E+02  0.13387046852E+02  0.69605728568E+02  0.00000000000E+00 0. -1.
        -12    1    6    6    0    0 -0.11006142529E+01 -0.89523170403E+02  0.11468454229E+03  0.14549279580E+03  0.00000000000E+00 0.  1.
</event>
<event>
12    1  0.8453150E-002  0.1839501E+03  0.7818608E-02  0.1164090E+00
         21   -1    0    0  501  502  0.00000000000E+00  0.00000000000E+00  0.73748157586E+03  0.73748157586E+03  0.00000000000E+00 0.  1.
         21   -1    0    0  502  503 -0.00000000000E+00 -0.00000000000E+00 -0.73221096108E+02  0.73221096108E+02  0.00000000000E+00 0. -1.
         -6    2    1    2    0  503 -0.66499553781E+02 -0.24454086792E+00  0.84041631312E+02  0.20202248710E+03  0.17125372711E+03 0.  0.
        -24    2    3    3    0    0 -0.97380285249E+02  0.41166489556E+02  0.71747429788E+02  0.14871460393E+03  0.76096911399E+02 0.  0.
          6    2    1    2  501    0  0.66499553781E+02  0.24454086792E+00  0.58021884844E+03  0.60868018486E+03  0.17150919774E+03 0.  0.
         24    2    5    5    0    0  0.27342125849E+02 -0.51634261228E+02  0.45584608847E+03  0.46826869071E+03  0.89812145870E+02 0.  0.
          5    1    5    5  501    0  0.39157427932E+02  0.51878802096E+02  0.12437275997E+03  0.14041149416E+03  0.47000000000E+01 0. -1.
        -11    1    6    6    0    0  0.42048888489E+02 -0.15795307919E+02  0.38422853699E+03  0.38684514914E+03  0.00000000000E+00 0.  1.
         12    1    6    6    0    0 -0.14706762640E+02 -0.35838953309E+02  0.71617551483E+02  0.81423541571E+02  0.00000000000E+00 0. -1.
         -5    1    3    3    0  503  0.30880731467E+02 -0.41411030423E+02  0.12294201524E+02  0.53307883168E+02  0.47000000000E+01 0.  1.
         11    1    4    4    0    0 -0.68738844444E+02  0.54676667181E+00  0.10024572180E+02  0.69468120290E+02  0.00000000000E+00 0. -1.
        -12    1    4    4    0    0 -0.28641440805E+02  0.40619722884E+02  0.61722857607E+02  0.79246483643E+02  0.00000000000E+00 0.  1.
</event>
<event>
12    1  0.8453150E-002  0.1918760E+03  0.7818608E-02  0.1157533E+00
         21   -1    0    0  503  502  0.00000000000E+00  0.00000000000E+00  0.31139140729E+03  0.31139140729E+03  0.00000000000E+00 0. -1.
         21   -1    0    0  501  503 -0.00000000000E+00 -0.00000000000E+00 -0.14840849222E+03  0.14840849222E+03  0.00000000000E+00 0. -1.
          6    2    1    2  501    0  0.59604422584E+02 -0.55648338538E+02 -0.25085430049E+02  0.19350889889E+03  0.17368647148E+03 0.  0.
         24    2    3    3    0    0 -0.36924297877E+02 -0.36704080472E+02 -0.94747210058E+01  0.93796998773E+02  0.77443613964E+02 0.  0.
         -6    2    1    2    0  502 -0.59604422584E+02  0.55648338538E+02  0.18806834512E+03  0.26629100063E+03  0.16997579182E+03 0.  0.
        -24    2    5    5    0    0 -0.58240179521E+02  0.16744119697E+02  0.20158161519E+03  0.22481693800E+03  0.78963434399E+02 0.  0.
          5    1    3    3  501    0  0.96528720460E+02 -0.18944258067E+02 -0.15610709044E+02  0.99711900114E+02  0.47000000000E+01 0. -1.
        -11    1    4    4    0    0  0.28262539501E+01 -0.36136423174E+02  0.22601127357E+02  0.42715802100E+02  0.00000000000E+00 0.  1.
         12    1    4    4    0    0 -0.39750551827E+02 -0.56765729749E+00 -0.32075848363E+02  0.51081196673E+02  0.00000000000E+00 0. -1.
         -5    1    5    5    0  502 -0.13642430621E+01  0.38904218842E+02 -0.13513270073E+02  0.41474062628E+02  0.47000000000E+01 0.  1.
         13    1    6    6    0    0 -0.74670653658E+02  0.87417511110E+01  0.12315309346E+03  0.14428724531E+03  0.00000000000E+00 0. -1.
        -14    1    6    6    0    0  0.16430474137E+02  0.80023685859E+01  0.78428521734E+02  0.80529692690E+02  0.00000000000E+00 0.  1.
</event>
<event>
12    1  0.8453150E-002  0.2841890E+03  0.7818608E-02  0.1093534E+00
         21   -1    0    0  501  502  0.00000000000E+00  0.00000000000E+00  0.11858174801E+04  0.11858174801E+04  0.00000000000E+00 0.  1.
         21   -1    0    0  502  503 -0.00000000000E+00 -0.00000000000E+00 -0.16944932648E+03  0.16944932648E+03  0.00000000000E+00 0. -1.
         -6    2    1    2    0  503 -0.19267495227E+03  0.11657192940E+03 -0.16671318548E+02  0.28385000818E+03  0.17198907617E+03 0.  0.
        -24    2    3    3    0    0 -0.14437875955E+03  0.10914450925E+03 -0.71376924765E+02  0.21034842892E+03  0.79962779171E+02 0.  0.
          6    2    1    2  501    0  0.19267495227E+03 -0.11657192940E+03  0.10330394722E+04  0.10714167984E+04  0.17335152976E+03 0.  0.
         24    2    5    5    0    0  0.32353257394E+02 -0.67047925438E+02  0.27745284514E+03  0.29740845621E+03  0.77003577735E+02 0.  0.
          5    1    5    5  501    0  0.16032169488E+03 -0.49524003965E+02  0.75558662705E+03  0.77400834220E+03  0.47000000000E+01 0. -1.
        -13    1    6    6    0    0  0.35574221996E+02 -0.83208355647E+02  0.22910236304E+03  0.24632711680E+03  0.00000000000E+00 0.  1.
         14    1    6    6    0    0 -0.32209646017E+01  0.16160430209E+02  0.48350482092E+02  0.51081339411E+02  0.00000000000E+00 0. -1.
         -5    1    3    3    0  503 -0.48296192722E+02  0.74274201561E+01  0.54705606218E+02  0.73501579257E+02  0.47000000000E+01 0.  1.
         13    1    4    4    0    0 -0.33709104642E+02  0.48485872524E+02 -0.59105167161E+02  0.83550011103E+02  0.00000000000E+00 0. -1.
        -14    1    4    4    0    0 -0.11066965491E+03  0.60658636723E+02 -0.12271757605E+02  0.12679841782E+03  0.00000000000E+00 0.  1.
</event>
<event>
12    1  0.8453150E-002  0.1850724E+03  0.7818608E-02  0.1163263E+00
         21   -1    0    0  503  502  0.00000000000E+00  0.00000000000E+00  0.10356302202E+03  0.10356302202E+03  0.00000000000E+00 0.  1.
         21   -1    0    0  501  503 -0.00000000000E+00 -0.00000000000E+00 -0.32911293750E+03  0.32911293750E+03  0.00000000000E+00 0.  1.
          6    2    1    2  501    0 -0.49969091439E+02  0.44978107577E+02 -0.12096528878E+03  0.22009719359E+03  0.17114389641E+03 0.  0.
         24    2    3    3    0    0 -0.84599114502E+02  0.20012203242E+01 -0.12567332688E+03  0.16450486536E+03  0.64086274509E+02 0.  0.
         -6    2    1    2    0  502  0.49969091439E+02 -0.44978107577E+02 -0.10458462671E+03  0.21257876593E+03  0.17242925309E+03 0.  0.
        -24    2    5    5    0    0  0.22525632208E+02 -0.46710794313E+02 -0.13895160592E+03  0.16831450363E+03  0.79579651497E+02 0.  0.
          5    1    3    3  501    0  0.34630023063E+02  0.42976887253E+02  0.47080381030E+01  0.55592328230E+02  0.47000000000E+01 0. -1.
        -11    1    4    4    0    0 -0.42496815291E+02 -0.29281595770E+02 -0.78591869707E+02  0.94021663168E+02  0.00000000000E+00 0.  1.
         12    1    4    4    0    0 -0.42102299212E+02  0.31282816094E+02 -0.47081457172E+02  0.70483202192E+02  0.00000000000E+00 0. -1.
         -5    1    5    5    0  502  0.27443459231E+02  0.17326867360E+01  0.34366979208E+02  0.44264262309E+02  0.47000000000E+01 0.  1.
         11    1    6    6    0    0 -0.14196240724E+02  0.15321421363E+02 -0.47330012824E+02  0.51734024754E+02  0.00000000000E+00 0. -1.
        -12    1    6    6    0    0  0.36721872932E+02 -0.62032215676E+02 -0.91621593092E+02  0.11658047887E+03  0.00000000000E+00 0.  1.
</event>
<event>
12    1  0.8453150E-002  0.1947989E+03  0.7818608E-02  0.1154290E+00
         21   -1    0    0  501  502  0.00000000000E+00  0.00000000000E+00  0.46514095467E+03  0.46514095467E+03  0.00000000000E+00 0. -1.
         21   -1    0    0  502  503 -0.00000000000E+00 -0.00000000000E+00 -0.81434069703E+02  0.81434069703E+02  0.00000000000E+00 0. -1.
         -6    2    1    2    0  503 -0.58545888279E+02  0.71469066237E+02  0.19629081816E+03  0.27654417374E+03  0.17149678210E+03 0.  0.
        -24    2    3    3    0    0 -0.53738139124E+02 -0.17670838373E+02  0.92292677192E+02  0.13940650433E+03  0.87841841176E+02 0.  0.
          6    2    1    2  501    0  0.58545888279E+02 -0.71469066237E+02  0.18741606681E+03  0.27003085063E+03  0.17104511023E+03 0.  0.
         24    2    5    5    0    0 -0.28301608438E+01 -0.94916843829E+02  0.15039762175E+03  0.19447111960E+03  0.78627950990E+02 0.  0.
          5    1    5    5  501    0  0.61376049122E+02  0.23447777592E+02  0.37018445058E+02  0.75559731037E+02  0.47000000000E+01 0. -1.
        -11    1    6    6    0    0 -0.28280894610E+02 -0.54451527915E+02  0.37600154871E+02  0.71962139620E+02  0.00000000000E+00 0.  1.
         12    1    6    6    0    0  0.25450733767E+02 -0.40465315914E+02  0.11279746688E+03  0.12250897998E+03  0.00000000000E+00 0. -1.
         -5    1    3    3    0  503 -0.48077491548E+01  0.89139904610E+02  0.10399814097E+03  0.13713766941E+03  0.47000000000E+01 0.  1.
         13    1    4    4    0    0 -0.61746914196E+02  0.19468318516E+02  0.45502148306E+02  0.79133699136E+02  0.00000000000E+00 0. -1.
        -14    1    4    4    0    0  0.80087750719E+01 -0.37139156890E+02  0.46790528886E+02  0.60272805195E+02  0.00000000000E+00 0.  1.
</event>
<event>
12    1  0.8453150E-002  0.1883256E+03  0.7818608E-02  0.1160125E+00
         21   -1    0    0  501  502  0.00000000000E+00  0.00000000000E+00  0.73422492615E+02  0.73422492615E+02  0.00000000000E+00 0.  1.
         21   -1    0    0  502  503 -0.00000000000E+00 -0.00000000000E+00 -0.82177101186E+03  0.82177101186E+03  0.00000000000E+00 0.  1.
         -6    2    1    2    0  503 -0.69457980894E+02 -0.30976883356E+02 -0.66259427674E+03  0.68883792727E+03  0.17228620394E+03 0.  0.
        -24    2    3    3    0    0  0.12287623283E+02 -0.37962978476E+02 -0.48746174007E+03  0.49538342428E+03  0.78699527312E+02 0.  0.
          6    2    1    2  501    0  0.69457980894E+02  0.30976883356E+02 -0.85754242509E+02  0.20635557721E+03  0.17159503409E+03 0.  0.
         24    2    5    5    0    0  0.68595369396E+02  0.79738980428E+02 -0.40091904557E+02  0.13938076614E+03  0.82194935717E+02 0.  0.
          5    1    5    5  501    0  0.86261149838E+00 -0.48762097073E+02 -0.45662337953E+02  0.66974811062E+02  0.47000000000E+01 0. -1.
        -11    1    6    6    0    0  0.67922249386E+01 -0.21814735203E+01  0.19465362687E+02  0.20731461378E+02  0.00000000000E+00 0.  1.
         12    1    6    6    0    0  0.61803144457E+02  0.81920453949E+02 -0.59557267243E+02  0.11864930477E+03  0.00000000000E+00 0. -1.
         -5    1    3    3    0  503 -0.81745604178E+02  0.69860951203E+01 -0.17513253666E+03  0.19345450299E+03  0.47000000000E+01 0.  1.
         11    1    4    4    0    0  0.20376377103E+02 -0.43344646190E+02 -0.14344852663E+03  0.15123304827E+03  0.00000000000E+00 0. -1.
        -12    1    4    4    0    0 -0.80887538200E+01  0.53816677135E+01 -0.34401321345E+03  0.34415037602E+03  0.00000000000E+00 0.  1.
</event>
<event>
12    1  0.8453150E-002  0.1952685E+03  0.7818608E-02  0.1156197E+00
         21   -1    0    0  501  502  0.00000000000E+00  0.00000000000E+00  0.17148877751E+03  0.17148877751E+03  0.00000000000E+00 0. -1.
         21   -1    0    0  502  503 -0.00000000000E+00 -0.00000000000E+00 -0.41519361100E+03  0.41519361100E+03  0.00000000000E+00 0. -1.
         -6    2    1    2    0  503  0.19519053373E+02  0.62550901765E+02 -0.32613353929E+03  0.37472886830E+03  0.17252544893E+03 0.  0.
        -24    2    3    3    0    0  0.69563929411E+02  0.43356770082E+02 -0.28570971399E+03  0.30743042878E+03  0.78514190357E+02 0.  0.
          6    2    1    2  501    0 -0.19519053373E+02 -0.62550901765E+02  0.82428705800E+02  0.21195352022E+03  0.18394617266E+03 0.  0.
         24    2    5    5    0    0 -0.67633431640E+02 -0.67311765398E+01  0.86484679783E+02  0.13799829021E+03  0.83332697375E+02 0.  0.
          5    1    5    5  501    0  0.48114378268E+02 -0.55819725225E+02 -0.40559739828E+01  0.73955230006E+02  0.47000000000E+01 0. -1.
        -11    1    6    6    0    0 -0.31454828782E+02  0.37919567255E+02  0.31593054067E+02  0.58527095433E+02  0.00000000000E+00 0.  1.
         12    1    6    6    0    0 -0.36178602858E+02 -0.44650743795E+02  0.54891625715E+02  0.79471194781E+02  0.00000000000E+00 0. -1.
         -5    1    3    3    0  503 -0.50044876038E+02  0.19194131683E+02 -0.40423825304E+02  0.67298439513E+02  0.47000000000E+01 0.  1.
         11    1    4    4    0    0  0.21869489200E+02 -0.20507955723E+02 -0.46846057848E+02  0.55618377733E+02  0.00000000000E+00 0. -1.
        -12    1    4    4    0    0  0.47694440211E+02  0.63864725805E+02 -0.23886365614E+03  0.25181205105E+03  0.00000000000E+00 0.  1.
</event>
<event>
12    1  0.8453150E-002  0.2287152E+03  0.7818608E-02  0.1127585E+00
         21   -1    0    0  503  502  0.00000000000E+00  0.00000000000E+00  0.13956513072E+03  0.13956513072E+03  0.00000000000E+00 0.  1.
         21   -1    0    0  501  503 -0.00000000000E+00 -0.00000000000E+00 -0.46064513574E+03  0.46064513574E+03  0.00000000000E+00 0.  1.
          6    2    1    2  501    0  0.80519886203E+02 -0.12770545487E+03 -0.29028338766E+03  0.36943098512E+03  0.17153038313E+03 0.  0.
         24    2    3    3    0    0  0.78331269797E+02 -0.92660304752E+02 -0.10235201410E+03  0.17818966177E+03  0.80956166327E+02 0.  0.
         -6    2    1    2    0  502 -0.80519886203E+02  0.12770545487E+03 -0.30796617357E+02  0.23077928135E+03  0.17180951598E+03 0.  0.
        -24    2    5    5    0    0  0.13108144253E+02  0.38592478667E+02 -0.52294702361E+02  0.99662584188E+02  0.74408950648E+02 0.  0.
          5    1    3    3  501    0  0.21886164060E+01 -0.35045150117E+02 -0.18793137356E+03  0.19124132335E+03  0.47000000000E+01 0. -1.
        -11    1    4    4    0    0  0.43375448049E+02 -0.15034994215E+01 -0.11670394121E+02  0.44943165252E+02  0.00000000000E+00 0.  1.
         12    1    4    4    0    0  0.34955821748E+02 -0.91156805331E+02 -0.90681619978E+02  0.13324649652E+03  0.00000000000E+00 0. -1.
         -5    1    5    5    0  502 -0.93628030456E+02  0.89112976202E+02  0.21498085004E+02  0.13111669716E+03  0.47000000000E+01 0.  1.
         11    1    6    6    0    0 -0.29705492599E+02  0.72545310000E+01 -0.27386349011E+02  0.41049441199E+02  0.00000000000E+00 0. -1.
        -12    1    6    6    0    0  0.42813636852E+02  0.31337947667E+02 -0.24908353351E+02  0.58613142990E+02  0.00000000000E+00 0.  1.
</event>
<event>
12    1  0.8453150E-002  0.1829549E+03  0.7818608E-02  0.1166089E+00
         21   -1    0    0  503  502  0.00000000000E+00  0.00000000000E+00  0.79884994651E+03  0.79884994651E+03  0.00000000000E+00 0. -1.
         21   -1    0    0  501  503 -0.00000000000E+00 -0.00000000000E+00 -0.43143755639E+02  0.43143755639E+02  0.00000000000E+00 0.  1.
          6    2    1    2  501    0  0.24737390601E+02 -0.59082920843E+02  0.47965415203E+03  0.51336205946E+03  0.17137610250E+03 0.  0.
         24    2    3    3    0    0 -0.33443177361E+02 -0.82052059107E+02  0.31204663329E+03  0.33440136507E+03  0.81241523225E+02 0.  0.
         -6    2    1    2    0  502 -0.24737390601E+02  0.59082920843E+02  0.27605203884E+03  0.32863164268E+03  0.16640702628E+03 0.  0.
        -24    2    5    5    0    0 -0.73861256296E+02  0.17257968183E+02  0.20444086287E+03  0.23212914857E+03  0.79589902361E+02 0.  0.
          5    1    3    3  501    0  0.58180567962E+02  0.22969138264E+02  0.16760751874E+03  0.17896069440E+03  0.47000000000E+01 0. -1.
        -13    1    4    4    0    0  0.17736583226E+01 -0.89328484646E+01 -0.25882720490E+01  0.94678824315E+01  0.00000000000E+00 0.  1.
         14    1    4    4    0    0 -0.35216835684E+02 -0.73119210642E+02  0.31463490534E+03  0.32493348264E+03  0.00000000000E+00 0. -1.
         -5    1    5    5    0  502  0.49123865695E+02  0.41824952660E+02  0.71611175970E+02  0.96502494111E+02  0.47000000000E+01 0.  1.
         13    1    6    6    0    0 -0.11581734001E+02  0.23477321782E+02  0.13950490105E+03  0.14193991200E+03  0.00000000000E+00 0. -1.
        -14    1    6    6    0    0 -0.62279522295E+02 -0.62193535992E+01  0.64935961819E+02  0.90189236574E+02  0.00000000000E+00 0.  1.
</event>
<event>
12    1  0.8453150E-002  0.2758083E+03  0.7818608E-02  0.1098389E+00
         21   -1    0    0  501  502  0.00000000000E+00  0.00000000000E+00  0.19156010886E+03  0.19156010886E+03  0.00000000000E+00 0. -1.
         21   -1    0    0  502  503 -0.00000000000E+00 -0.00000000000E+00 -0.46627439497E+03  0.46627439497E+03  0.00000000000E+00 0.  1.
         -6    2    1    2    0  503 -0.11682183759E+03  0.17826508776E+03 -0.26821691803E+03  0.38472138433E+03  0.17505554888E+03 0.  0.
        -24    2    3    3    0    0 -0.34133621108E+00  0.94548075685E+02 -0.16838584653E+03  0.20989410343E+03  0.82233121157E+02 0.  0.
          6    2    1    2  501    0  0.11682183759E+03 -0.17826508776E+03 -0.64973680833E+01  0.27311311949E+03  0.17065396858E+03 0.  0.
         24    2    5    5    0    0  0.12078198165E+03 -0.16903659547E+03 -0.50256075178E+02  0.22797153935E+03  0.79269741775E+02 0.  0.
          5    1    5    5  501    0 -0.39601440562E+01 -0.92284922911E+01  0.43758707095E+02  0.45141580140E+02  0.47000000000E+01 0. -1.
        -11    1    6    6    0    0 -0.45636525907E+01 -0.70819472706E+01 -0.19027931348E+02  0.20809687011E+02  0.00000000000E+00 0.  1.
         12    1    6    6    0    0  0.12534563424E+03 -0.16195464820E+03 -0.31228143830E+02  0.20716185234E+03  0.00000000000E+00 0. -1.
         -5    1    3    3    0  503 -0.11648050138E+03  0.83717012077E+02 -0.99831071495E+02  0.17482728091E+03  0.47000000000E+01 0.  1.
         13    1    4    4    0    0 -0.16019519286E+02  0.42003893314E+02 -0.15629631005E+02  0.47594510367E+02  0.00000000000E+00 0. -1.
        -14    1    4    4    0    0  0.15678183075E+02  0.52544182371E+02 -0.15275621553E+03  0.16229959306E+03  0.00000000000E+00 0.  1.
</event>
<event>
12    1  0.8453150E-002  0.1921517E+03  0.7818608E-02  0.1156719E+00
         21   -1    0    0  503  502  0.00000000000E+00  0.00000000000E+00  0.19662281513E+03  0.19662281513E+03  0.00000000000E+00 0. -1.
         21   -1    0    0  501  503 -0.00000000000E+00 -0.00000000000E+00 -0.18876946202E+03  0.18876946202E+03  0.00000000000E+00 0.  1.
          6    2    1    2  501    0 -0.79157497343E+02  0.29312278841E+02 -0.14869155063E+02  0.19190176061E+03  0.17169762629E+03 0.  0.
         24    2    3    3    0    0 -0.94348674637E+02 -0.14737438729E+02 -0.48727189603E+02  0.13411243643E+03  0.80578794315E+02 0.  0.
         -6    2    1    2    0  502  0.79157497343E+02 -0.29312278841E+02  0.22722508170E+02  0.19349051655E+03  0.17261850579E+03 0.  0.
        -24    2    5    5    0    0 -0.12351516559E+02 -0.45863933472E+02  0.40543542404E+02  0.98687899719E+02  0.76416374982E+02 0.  0.
          5    1    3    3  501    0  0.15191177294E+02  0.44049717570E+02  0.33858034539E+02  0.57789324174E+02  0.47000000000E+01 0. -1.
        -11    1    4    4    0    0 -0.34119393171E+02 -0.30794880722E+02 -0.54755447837E+02  0.71488577668E+02  0.00000000000E+00 0.  1.
         12    1    4    4    0    0 -0.60229281466E+02  0.16057441993E+02  0.60282582344E+01  0.62623858765E+02  0.00000000000E+00 0. -1.
         -5    1    5    5    0  502  0.91509013902E+02  0.16551654630E+02 -0.17821034233E+02  0.94802616828E+02  0.47000000000E+01 0.  1.
         11    1    6    6    0    0 -0.17238736432E+01  0.14928449566E+02  0.33320232377E+02  0.36552267131E+02  0.00000000000E+00 0. -1.
        -12    1    6    6    0    0 -0.10627642916E+02 -0.60792383037E+02  0.72233100264E+01  0.62135632587E+02  0.00000000000E+00 0.  1.
</event>
<event>
12    1  0.8453150E-002  0.1898840E+03  0.7818608E-02  0.1163642E+00
         21   -1    0    0  503  502  0.00000000000E+00  0.00000000000E+00  0.88324664652E+03  0.88324664652E+03  0.00000000000E+00 0. -1.
         21   -1    0    0  501  503 -0.00000000000E+00 -0.00000000000E+00 -0.45136234818E+02  0.45136234818E+02  0.00000000000E+00 0. -1.
          6    2    1    2  501    0 -0.23776630650E+02 -0.56812644731E+02  0.60299546553E+03  0.62616612727E+03  0.15712250865E+03 0.  0.
         24    2    3    3    0    0  0.45389659373E+01  0.24594310587E+02  0.29644520218E+03  0.30769474811E+03  0.78554552976E+02 0.  0.
         -6    2    1    2    0  502  0.23776630650E+02  0.56812644731E+02  0.23511494617E+03  0.30221675407E+03  0.17961882908E+03 0.  0.
        -24    2    5    5    0    0  0.64373265136E+02  0.79782498366E+02  0.11439963972E+03  0.17271781153E+03  0.78962019614E+02 0.  0.
          5    1    3    3  501    0 -0.28315596587E+02 -0.81406955318E+02  0.30655026335E+03  0.31847137916E+03  0.47000000000E+01 0. -1.
        -11    1    4    4    0    0  0.31579120812E+02  0.68141445872E+01  0.52724296991E+02  0.61834658007E+02  0.00000000000E+00 0.  1.
         12    1    4    4    0    0 -0.27040154875E+02  0.17780166000E+02  0.24372090519E+03  0.24586009010E+03  0.00000000000E+00 0. -1.
         -5    1    5    5    0  502 -0.40596634486E+02 -0.22969853635E+02  0.12071530645E+03  0.12949894254E+03  0.47000000000E+01 0.  1.
         11    1    6    6    0    0  0.45070554494E+02  0.40510305110E+02  0.12579465318E+02  0.61892508837E+02  0.00000000000E+00 0. -1.
        -12    1    6    6    0    0  0.19302710642E+02  0.39272193256E+02  0.10182017441E+03  0.11082530269E+03  0.00000000000E+00 0.  1.
</event>
<event>
12    1  0.8453150E-002  0.1968207E+03  0.7818608E-02  0.1152540E+00
         21   -1    0    0  501  502  0.00000000000E+00  0.00000000000E+00  0.28316399020E+03  0.28316399020E+03  0.00000000000E+00 0.  1.
         21   -1    0    0  502  503 -0.00000000000E+00 -0.00000000000E+00 -0.14162274389E+03  0.14162274389E+03  0.00000000000E+00 0.  1.
         -6    2    1    2    0  503  0.81054583619E+02 -0.52493827810E+02  0.30361192885E+02  0.19873497835E+03  0.17102146678E+03 0.  0.
        -24    2    3    3    0    0  0.41562592175E+02 -0.97873097899E+02  0.18593810756E+02  0.13725769129E+03  0.84778249912E+02 0.  0.
          6    2    1    2  501    0 -0.81054583619E+02  0.52493827810E+02  0.11118005343E+03  0.22605175574E+03  0.17150202479E+03 0.  0.
         24    2    5    5    0    0 -0.14603320849E+02  0.60051097921E+02  0.12187106782E+03  0.15816014768E+03  0.79640968119E+02 0.  0.
          5    1    5    5  501    0 -0.66451262769E+02 -0.75572701104E+01 -0.10691014393E+02  0.67891608052E+02  0.47000000000E+01 0. -1.
        -11    1    6    6    0    0 -0.22248978531E+02  0.76757120824E+02  0.83297159210E+02  0.11543435093E+03  0.00000000000E+00 0.  1.
         12    1    6    6    0    0  0.76456576817E+01 -0.16706022904E+02  0.38573908609E+02  0.42725796751E+02  0.00000000000E+00 0. -1.
         -5    1    3    3    0  503  0.39491991444E+02  0.45379270089E+02  0.11767382128E+02  0.61477287059E+02  0.47000000000E+01 0.  1.
         13    1    4    4    0    0 -0.26310959921E+02 -0.26587889600E+02  0.21825481974E+01  0.37469267433E+02  0.00000000000E+00 0. -1.
        -14    1    4    4    0    0  0.67873552095E+02 -0.71285208299E+02  0.16411262559E+02  0.99788423853E+02  0.00000000000E+00 0.  1.
</event>
<event>
12    1  0.8453150E-002  0.2504803E+03  0.7818608E-02  0.1113285E+00
         21   -1    0    0  501  502  0.00000000000E+00  0.00000000000E+00  0.16805887161E+03  0.16805887161E+03  0.00000000000E+00 0.  1.
         21   -1    0    0  502  503 -0.00000000000E+00 -0.00000000000E+00 -0.61824997029E+03  0.61824997029E+03  0.00000000000E+00 0. -1.
         -6    2    1    2    0  503  0.21125365569E+02  0.16041088161E+03 -0.47437617799E+03  0.53644488509E+03  0.19121303431E+03 0.  0.
        -24    2    3    3    0    0  0.68570473147E+02  0.16469511768E+03 -0.42505631246E+03  0.46771401832E+03  0.79102102330E+02 0.  0.
          6    2    1    2  501    0 -0.21125365569E+02 -0.16041088161E+03  0.24185079315E+02  0.24986395681E+03  0.18886277252E+03 0.  0.
         24    2    5    5    0    0 -0.88092429904E+02 -0.11975160644E+03  0.50631785462E+01  0.16908338085E+03  0.80391731247E+02 0.  0.
          5    1    5    5  501    0  0.66967064335E+02 -0.40659275172E+02  0.19121900769E+02  0.80780575959E+02  0.47000000000E+01 0. -1.
        -11    1    6    6    0    0 -0.28739522104E+02 -0.10348271589E+03  0.94557332773E+00  0.10740356943E+03  0.00000000000E+00 0.  1.
         12    1    6    6    0    0 -0.59352907801E+02 -0.16268890551E+02  0.41176052184E+01  0.61679811420E+02  0.00000000000E+00 0. -1.
         -5    1    3    3    0  503 -0.47445107578E+02 -0.42842360752E+01 -0.49319865534E+02  0.68730866779E+02  0.47000000000E+01 0.  1.
         11    1    4    4    0    0  0.72932479714E+02  0.97611999150E+02 -0.32575067610E+03  0.34779412294E+03  0.00000000000E+00 0. -1.
        -12    1    4    4    0    0 -0.43620065671E+01  0.67083118534E+02 -0.99305636357E+02  0.11991989537E+03  0.00000000000E+00 0.  1.
</event>
<event>
12    1  0.8453150E-002  0.2163169E+03  0.7818608E-02  0.1136949E+00
         21   -1    0    0  501  502  0.00000000000E+00  0.00000000000E+00  0.23984700220E+03  0.23984700220E+03  0.00000000000E+00 0. -1.
         21   -1    0    0  502  503 -0.00000000000E+00 -0.00000000000E+00 -0.19378872897E+03  0.19378872897E+03  0.00000000000E+00 0.  1.
         -6    2    1    2    0  503 -0.12988979075E+03 -0.14158979787E+02  0.19166987188E+02  0.21565377605E+03  0.17049147568E+03 0.  0.
        -24    2    3    3    0    0 -0.31132548907E+02 -0.15984717551E+02  0.65082713596E+02  0.10662776968E+03  0.76869856643E+02 0.  0.
          6    2    1    2  501    0  0.12988979075E+03  0.14158979787E+02  0.26891286035E+02  0.21798195512E+03  0.17239825128E+03 0.  0.
         24    2    5    5    0    0  0.30364535540E+02  0.78469885086E+01 -0.43754209411E+02  0.95679078272E+02  0.79097881960E+02 0.  0.
          5    1    5    5  501    0  0.99525255210E+02  0.63119912784E+01  0.70645495447E+02  0.12230287685E+03  0.47000000000E+01 0. -1.
        -13    1    6    6    0    0  0.28062289857E+02 -0.24682345487E+02 -0.50052537391E+02  0.62465724922E+02  0.00000000000E+00 0.  1.
         14    1    6    6    0    0  0.23022456830E+01  0.32529333996E+02  0.62983279796E+01  0.33213353350E+02  0.00000000000E+00 0. -1.
         -5    1    3    3    0  503 -0.98757241843E+02  0.18257377642E+01 -0.45915726408E+02  0.10902600638E+03  0.47000000000E+01 0.  1.
         13    1    4    4    0    0 -0.55536947694E+02 -0.21147337725E+02  0.43567421275E+02  0.73686380347E+02  0.00000000000E+00 0. -1.
        -14    1    4    4    0    0  0.24404398788E+02  0.51626201736E+01  0.21515292321E+02  0.32941389329E+02  0.00000000000E+00 0.  1.
</event>
<event>
12    1  0.8453150E-002  0.2942518E+03  0.7818608E-02  0.1088151E+00
         21   -1    0    0  503  502  0.00000000000E+00  0.00000000000E+00  0.75009592162E+03  0.75009592162E+03  0.00000000000E+00 0.  1.
         21   -1    0    0  501  503 -0.00000000000E+00 -0.00000000000E+00 -0.12588267204E+03  0.12588267204E+03  0.00000000000E+00 0. -1.
          6    2    1    2  501    0  0.62243604937E+02  0.23035709213E+03  0.18587843018E+03  0.34804443686E+03  0.17217863681E+03 0.  0.
         24    2    3    3    0    0 -0.26968562416E+02  0.67440856162E+02  0.83481964949E+02  0.13589440307E+03  0.78882684254E+02 0.  0.
         -6    2    1    2    0  502 -0.62243604937E+02 -0.23035709213E+03  0.43833481940E+03  0.52793415680E+03  0.17215807786E+03 0.  0.
        -24    2    5    5    0    0 -0.31210806989E+02 -0.24518478518E+03  0.38698980026E+03  0.46595596693E+03  0.79146473423E+02 0.  0.
          5    1    3    3  501    0  0.89212167353E+02  0.16291623597E+03  0.10239646523E+03  0.21215003379E+03  0.47000000000E+01 0. -1.
        -13    1    4    4    0    0  0.26639465455E+02  0.15719246987E+02  0.36418116583E+02  0.47781116155E+02  0.00000000000E+00 0.  1.
         14    1    4    4    0    0 -0.53608027871E+02  0.51721609175E+02  0.47063848366E+02  0.88113286914E+02  0.00000000000E+00 0. -1.
         -5    1    5    5    0  502 -0.31032797948E+02  0.14827693051E+02  0.51345019141E+02  0.61978189875E+02  0.47000000000E+01 0.  1.
         13    1    6    6    0    0 -0.45964321398E+02 -0.10543671820E+03  0.13431543375E+03  0.17683397900E+03  0.00000000000E+00 0. -1.
        -14    1    6    6    0    0  0.14753514409E+02 -0.13974806698E+03  0.25267436651E+03  0.28912198793E+03  0.00000000000E+00 0.  1.
</event>
<event>
12    1  0.8453150E-002  0.1925276E+03  0.7818608E-02  0.1156244E+00
         21   -1    0    0  501  502  0.00000000000E+00  0.00000000000E+00  0.23602941694E+04  0.23602941694E+04  0.00000000000E+00 0.  1.
         21   -1    0    0  502  503 -0.00000000000E+00 -0.00000000000E+00 -0.44077400595E+02  0.44077400595E+02  0.00000000000E+00 0. -1.
         -6    2    1    2    0  503 -0.83464348551E+02 -0.12692252514E+02  0.19351627006E+03  0.27297514856E+03  0.17303032740E+03 0.  0.
        -24    2    3    3    0    0 -0.60273576594E+02  0.43346855917E+02  0.56073827969E+02  0.12267309114E+03  0.79953481182E+02 0.  0.
          6    2    1    2  501    0  0.83464348551E+02  0.12692252514E+02  0.21227004988E+04  0.21313964215E+04  0.17281755459E+03 0.  0.
         24    2    5    5    0    0  0.11913771315E+03  0.33030954098E+02  0.14744644668E+04  0.14818440411E+04  0.80817445988E+02 0.  0.
          5    1    5    5  501    0 -0.35673364601E+02 -0.20338701584E+02  0.64823603196E+03  0.64955238038E+03  0.47000000000E+01 0. -1.
        -13    1    6    6    0    0  0.67471585810E+02  0.30445317031E+02  0.12161478428E+04  0.12183985013E+04  0.00000000000E+00 0.  1.
         14    1    6    6    0    0  0.51666127342E+02  0.25856370670E+01  0.25831662398E+03  0.26344553983E+03  0.00000000000E+00 0. -1.
         -5    1    3    3    0  503 -0.23190771956E+02 -0.56039108431E+02  0.13744244209E+03  0.15030205742E+03  0.47000000000E+01 0.  1.
         11    1    4    4    0    0 -0.22268848603E+02 -0.57730397997E+01 -0.15629995210E+02  0.27812341809E+02  0.00000000000E+00 0. -1.
        -12    1    4    4    0    0 -0.38004727991E+02  0.49119895717E+02  0.71703823179E+02  0.94860749330E+02  0.00000000000E+00 0.  1.
</event>
<event>
12    1  0.8453150E-002  0.1745339E+03  0.7818608E-02  0.1173256E+00
         21   -1    0    0  501  502  0.00000000000E+00  0.00000000000E+00  0.10034951331E+04  0.10034951331E+04  0.00000000000E+00 0.  1.
         21   -1    0    0  502  503 -0.00000000000E+00 -0.00000000000E+00 -0.31492697499E+02  0.31492697499E+02  0.00000000000E+00 0.  1.
         -6    2    1    2    0  503 -0.17369746629E+02 -0.19838114736E+02  0.38573805934E+03  0.42329508847E+03  0.17230676890E+03 0.  0.
        -24    2    3    3    0    0 -0.54413888685E+02  0.11621576985E+02  0.12412328418E+03  0.15716286335E+03  0.78725114218E+02 0.  0.
          6    2    1    2  501    0  0.17369746629E+02  0.19838114736E+02  0.58626437627E+03  0.61169274213E+03  0.17253067264E+03 0.  0.
         24    2    5    5    0    0  0.61715038283E+02  0.87458705824E+00  0.51932548870E+03  0.52905482745E+03  0.79940830522E+02 0.  0.
          5    1    5    5  501    0 -0.44345291654E+02  0.18963527678E+02  0.66938887567E+02  0.82637914679E+02  0.47000000000E+01 0. -1.
        -13    1    6    6    0    0 -0.12889631012E+01  0.26835748301E+02  0.24170661705E+03  0.24319520459E+03  0.00000000000E+00 0.  1.
         14    1    6    6    0    0  0.63004001384E+02 -0.25961161243E+02  0.27761887165E+03  0.28585962286E+03  0.00000000000E+00 0. -1.
         -5    1    3    3    0  503  0.37044142056E+02 -0.31459691722E+02  0.26161477516E+03  0.26613222512E+03  0.47000000000E+01 0.  1.
         13    1    4    4    0    0 -0.34009405486E+02 -0.71857813595E+01  0.12465201066E+03  0.12940787796E+03  0.00000000000E+00 0. -1.
        -14    1    4    4    0    0 -0.20404483199E+02  0.18807358345E+02 -0.52872648641E+00  0.27754985394E+02  0.00000000000E+00 0.  1.
</event>
<event>
12    1  0.8453150E-002  0.1769735E+03  0.7818608E-02  0.1170953E+00
         21   -1    0    0  503  502  0.00000000000E+00  0.00000000000E+00  0.73100031828E+03  0.73100031828E+03  0.00000000000E+00 0.  1.
         21   -1    0    0  501  503 -0.00000000000E+00 -0.00000000000E+00 -0.15832532922E+03  0.15832532922E+03  0.00000000000E+00 0.  1.
          6    2    1    2  501    0  0.13512734969E+02 -0.37792990351E+02 -0.93891495014E+02  0.19966595597E+03  0.17158081772E+03 0.  0.
         24    2    3    3    0    0  0.25333948819E+02  0.42912626269E+02 -0.30302676748E+02  0.96134485103E+02  0.76421754442E+02 0.  0.
         -6    2    1    2    0  502 -0.13512734969E+02  0.37792990351E+02  0.66656648408E+03  0.68965969153E+03  0.17236214288E+03 0.  0.
        -24    2    5    5    0    0  0.68559961863E+01  0.50478771633E+02  0.10096418855E+03  0.12352908737E+03  0.49704697849E+02 0.  0.
          5    1    3    3  501    0 -0.11821213850E+02 -0.80705616619E+02 -0.63588818266E+02  0.10353147086E+03  0.47000000000E+01 0. -1.
        -13    1    4    4    0    0 -0.20046215213E+02  0.21872778314E+02 -0.35012676678E+02  0.45892882931E+02  0.00000000000E+00 0.  1.
         14    1    4    4    0    0  0.45380164032E+02  0.21039847955E+02  0.47099999298E+01  0.50241602172E+02  0.00000000000E+00 0. -1.
         -5    1    5    5    0  502 -0.20368731155E+02 -0.12685781282E+02  0.56560229553E+03  0.56613060416E+03  0.47000000000E+01 0.  1.
         13    1    6    6    0    0 -0.17775948594E+02  0.30066758038E+02  0.31424401197E+02  0.46983904456E+02  0.00000000000E+00 0. -1.
        -14    1    6    6    0    0  0.24631944780E+02  0.20412013594E+02  0.69539787349E+02  0.76545182913E+02  0.00000000000E+00 0.  1.
</event>
<event>
12    1  0.8453150E-002  0.2070266E+03  0.7818608E-02  0.1144313E+00
         21   -1    0    0  503  502  0.00000000000E+00  0.00000000000E+00  0.22151045182E+03  0.22151045182E+03  0.00000000000E+00 0. -1.
         21   -1    0    0  501  503 -0.00000000000E+00 -0.00000000000E+00 -0.27734811788E+03  0.27734811788E+03  0.00000000000E+00 0.  1.
          6    2    1    2  501    0 -0.10245315130E+03  0.46264852180E+02 -0.16654300828E+03  0.26570014693E+03  0.17384737476E+03 0.  0.
         24    2    3    3    0    0 -0.63321324655E+02 -0.40367809076E+02 -0.10676183738E+03  0.15330621361E+03  0.80408675181E+02 0.  0.
         -6    2    1    2    0  502  0.10245315130E+03 -0.46264852180E+02  0.11070534222E+03  0.23315842277E+03  0.17166855436E+03 0.  0.
        -24    2    5    5    0    0  0.82462472783E+02 -0.10805891714E+02  0.14082838635E+03  0.18230124144E+03  0.80525036585E+02 0.  0.
          5    1    3    3  501    0 -0.39131826648E+02  0.86632661256E+02 -0.59781170892E+02  0.11239393332E+03  0.47000000000E+01 0. -1.
        -11    1    4    4    0    0 -0.16296932959E+02  0.40234875406E+00 -0.86248105099E+02  0.87775210290E+02  0.00000000000E+00 0.  1.
         12    1    4    4    0    0 -0.47024391696E+02 -0.40770157830E+02 -0.20513732285E+02  0.65531003320E+02  0.00000000000E+00 0. -1.
         -5    1    5    5    0  502  0.19990678520E+02 -0.35458960466E+02 -0.30123044131E+02  0.50857181329E+02  0.47000000000E+01 0.  1.
         11    1    6    6    0    0  0.62477789770E+02  0.97343985451E+01  0.34198168486E+02  0.71887046520E+02  0.00000000000E+00 0. -1.
        -12    1    6    6    0    0  0.19984683013E+02 -0.20540290259E+02  0.10663021786E+03  0.11041419492E+03  0.00000000000E+00 0.  1.
</event>
<event>
12    1  0.8453150E-002  0.1801539E+03  0.7818608E-02  0.1168230E+00
         21   -1    0    0  501  502  0.00000000000E+00  0.00000000000E+00  0.19961288803E+04  0.19961288803E+04  0.00000000000E+00 0.  1.
         21   -1    0    0  502  503 -0.00000000000E+00 -0.00000000000E+00 -0.19035348002E+02  0.19035348002E+02  0.00000000000E+00 0.  1.
         -6    2    1    2    0  503  0.36681082300E+01 -0.44263266490E+02  0.58378280901E+03  0.61025490646E+03  0.17215107023E+03 0.  0.
        -24    2    3    3    0    0  0.24557724722E+02 -0.34570689648E+02  0.57941134114E+03  0.58634838320E+03  0.79301385976E+02 0.  0.
          6    2    1    2  501    0 -0.36681082300E+01  0.44263266490E+02  0.13933107233E+04  0.14049093218E+04  0.17459306744E+03 0.  0.
         24    2    5    5    0    0 -0.36610509667E+02 -0.24427942224E+02  0.10050976716E+04  0.10092640925E+04  0.80346905758E+02 0.  0.
          5    1    5    5  501    0  0.32942401437E+02  0.68691208714E+02  0.38821305170E+03  0.39564522931E+03  0.47000000000E+01 0. -1.
        -11    1    6    6    0    0 -0.28372297562E+02  0.26995330450E+02  0.38714755523E+03  0.38912332834E+03  0.00000000000E+00 0.  1.
         12    1    6    6    0    0 -0.82382121056E+01 -0.51423272674E+02  0.61795011634E+03  0.62014076418E+03  0.00000000000E+00 0. -1.
         -5    1    3    3    0  503 -0.20889616492E+02 -0.96925768417E+01  0.43714678773E+01  0.23906523260E+02  0.47000000000E+01 0.  1.
         13    1    4    4    0    0  0.28271643457E+02  0.18748057977E+02  0.29634304923E+03  0.29827835712E+03  0.00000000000E+00 0. -1.
        -14    1    4    4    0    0 -0.37139187353E+01 -0.53318747625E+02  0.28306829191E+03  0.28807002608E+03  0.00000000000E+00 0.  1.
</event>
<event>
12    1  0.8453150E-002  0.2581271E+03  0.7818608E-02  0.1109992E+00
         21   -1    0    0  501  502  0.00000000000E+00  0.00000000000E+00  0.55389260802E+02  0.55389260802E+02  0.00000000000E+00 0. -1.
         21   -1    0    0  502  503 -0.00000000000E+00 -0.00000000000E+00 -0.11767874817E+04  0.11767874817E+04  0.00000000000E+00 0.  1.
         -6    2    1    2    0  503  0.16777750128E+02 -0.17648949205E+03 -0.63825578158E+03  0.68440286661E+03  0.17206628781E+03 0.  0.
        -24    2    3    3    0    0  0.96436605525E+00 -0.19372126858E+03 -0.61980158895E+03  0.65424255388E+03  0.79689709124E+02 0.  0.
          6    2    1    2  501    0 -0.16777750128E+02  0.17648949205E+03 -0.48314243936E+03  0.54777387593E+03  0.18761548108E+03 0.  0.
         24    2    5    5    0    0 -0.75791258179E+02  0.16296006684E+03 -0.38085380963E+03  0.42881718948E+03  0.80834766570E+02 0.  0.
          5    1    5    5  501    0  0.59013508051E+02  0.13529425209E+02 -0.10228862973E+03  0.11895668645E+03  0.47000000000E+01 0. -1.
        -13    1    6    6    0    0 -0.39955270433E+02  0.14819247537E+02 -0.11095182809E+03  0.11885428848E+03  0.00000000000E+00 0.  1.
         14    1    6    6    0    0 -0.35835987746E+02  0.14814081930E+03 -0.26990198154E+03  0.30996290101E+03  0.00000000000E+00 0. -1.
         -5    1    3    3    0  503  0.15813384073E+02  0.17231776533E+02 -0.18454192629E+02  0.30160312729E+02  0.47000000000E+01 0.  1.
         13    1    4    4    0    0 -0.61326093826E+01 -0.18531925227E+03 -0.48891266073E+03  0.52289236366E+03  0.00000000000E+00 0. -1.
        -14    1    4    4    0    0  0.70969754378E+01 -0.84020163143E+01 -0.13088892823E+03  0.13135019022E+03  0.00000000000E+00 0.  1.
</event>
<event>
12    1  0.8453150E-002  0.2892988E+03  0.7818608E-02  0.1090896E+00
         21   -1    0    0  501  502  0.00000000000E+00  0.00000000000E+00  0.80594404352E+03  0.80594404352E+03  0.00000000000E+00 0.  1.
         21   -1    0    0  502  503 -0.00000000000E+00 -0.00000000000E+00 -0.14045416184E+03  0.14045416184E+03  0.00000000000E+00 0.  1.
         -6    2    1    2    0  503  0.41851005411E+01  0.23105747000E+03  0.57536649794E+03  0.64338666236E+03  0.17174027146E+03 0.  0.
        -24    2    3    3    0    0 -0.10145637641E+02  0.31536402828E+02  0.16807014771E+03  0.18959548438E+03  0.81248966017E+02 0.  0.
          6    2    1    2  501    0 -0.41851005411E+01 -0.23105747000E+03  0.90123383739E+02  0.30301154300E+03  0.17403649441E+03 0.  0.
         24    2    5    5    0    0 -0.14704660697E+02 -0.17474431400E+03  0.12940147352E+03  0.23339336275E+03  0.83521961830E+02 0.  0.
          5    1    5    5  501    0  0.10519560156E+02 -0.56313155999E+02 -0.39278089776E+02  0.69618180247E+02  0.47000000000E+01 0. -1.
        -11    1    6    6    0    0 -0.29601514864E+02 -0.14638803622E+03  0.67922777178E+02  0.16407074843E+03  0.00000000000E+00 0.  1.
         12    1    6    6    0    0  0.14896854167E+02 -0.28356277783E+02  0.61478696337E+02  0.69322614326E+02  0.00000000000E+00 0. -1.
         -5    1    3    3    0  503  0.14330738182E+02  0.19952106717E+03  0.40729635022E+03  0.45379117797E+03  0.47000000000E+01 0.  1.
         13    1    4    4    0    0 -0.41516052426E+02  0.36147090058E+02  0.92457724476E+02  0.10760402197E+03  0.00000000000E+00 0. -1.
        -14    1    4    4    0    0  0.31370414785E+02 -0.46106872303E+01  0.75612423239E+02  0.81991462413E+02  0.00000000000E+00 0.  1.
</event>
<event>
12    1  0.8453150E-002  0.2006469E+03  0.7818608E-02  0.1149355E+00
         21   -1    0    0  501  502  0.00000000000E+00  0.00000000000E+00  0.31125887192E+03  0.31125887192E+03  0.00000000000E+00 0. -1.
         21   -1    0    0  502  503 -0.00000000000E+00 -0.00000000000E+00 -0.49943663136E+03  0.49943663136E+03  0.00000000000E+00 0. -1.
         -6    2    1    2    0  503 -0.73661197679E+02  0.71389765498E+02 -0.44329979726E+03  0.48659416103E+03  0.17244331427E+03 0.  0.
        -24    2    3    3    0    0 -0.93092935154E+02 -0.45846570021E+01 -0.29202057219E+03  0.31613243736E+03  0.77307112990E+02 0.  0.
          6    2    1    2  501    0  0.73661197679E+02 -0.71389765498E+02  0.25512203782E+03  0.32410134226E+03  0.17155743998E+03 0.  0.
         24    2    5    5    0    0  0.90662467498E+02 -0.55167727072E+00  0.12005861954E+03  0.17057188295E+03  0.80378528015E+02 0.  0.
          5    1    5    5  501    0 -0.17001269819E+02 -0.70838088228E+02  0.13506341828E+03  0.15352945931E+03  0.47000000000E+01 0. -1.
        -11    1    6    6    0    0  0.22360835402E+02 -0.20547702536E+02 -0.72929970558E+00  0.30376749619E+02  0.00000000000E+00 0.  1.
         12    1    6    6    0    0  0.68301632096E+02  0.19996025265E+02  0.12078791924E+03  0.14019513333E+03  0.00000000000E+00 0. -1.
         -5    1    3    3    0  503  0.19431737475E+02  0.75974422501E+02 -0.15127922507E+03  0.17046172366E+03  0.47000000000E+01 0.  1.
         11    1    4    4    0    0 -0.65131458624E+02 -0.22181901061E+02 -0.10058336087E+03  0.12186531960E+03  0.00000000000E+00 0. -1.
        -12    1    4    4    0    0 -0.27961476530E+02  0.17597244059E+02 -0.19143721132E+03  0.19426711777E+03  0.00000000000E+00 0.  1.
</event>
<event>
12    1  0.8453150E-002  0.1769801E+03  0.7818608E-02  0.1170980E+00
         21   -1    0    0  503  502  0.00000000000E+00  0.00000000000E+00  0.18496492554E+03  0.18496492554E+03  0.00000000000E+00 0. -1.
         21   -1    0    0  501  503 -0.00000000000E+00 -0.00000000000E+00 -0.17622347928E+03  0.17622347928E+03  0.00000000000E+00 0. -1.
          6    2    1    2  501    0 -0.96847157435E+01 -0.36321993798E+02 -0.33486614081E+02  0.17924015236E+03  0.17202499220E+03 0.  0.
         24    2    3    3    0    0 -0.51144717864E+02 -0.72803839656E+02 -0.17398608870E+02  0.12152732220E+03  0.80932053085E+02 0.  0.
         -6    2    1    2    0  502  0.96847157435E+01  0.36321993798E+02  0.42228060339E+02  0.18194825246E+03  0.17294182993E+03 0.  0.
        -24    2    5    5    0    0  0.13274545545E+02  0.69557302639E+02  0.78747838702E+02  0.13221640307E+03  0.79155058150E+02 0.  0.
          5    1    3    3  501    0  0.41460002121E+02  0.36481845857E+02 -0.16088005211E+02  0.57712830157E+02  0.47000000000E+01 0. -1.
        -11    1    4    4    0    0 -0.17769314788E+02 -0.73703175319E+02  0.12343944464E+02  0.76813277270E+02  0.00000000000E+00 0.  1.
         12    1    4    4    0    0 -0.33375403077E+02  0.89933566294E+00 -0.29742553334E+02  0.44714044930E+02  0.00000000000E+00 0. -1.
         -5    1    5    5    0  502 -0.35898298018E+01 -0.33235308841E+02 -0.36519778363E+02  0.49731849387E+02  0.47000000000E+01 0.  1.
         11    1    6    6    0    0  0.11815460060E+02  0.61360830295E+02  0.10380933601E+02  0.63344458111E+02  0.00000000000E+00 0. -1.
        -12    1    6    6    0    0  0.14590854854E+01  0.81964723441E+01  0.68366905102E+02  0.68871944960E+02  0.00000000000E+00 0.  1.
</event>
<event>
12    1  0.8453150E-002  0.1872860E+03  0.7818608E-02  0.1164377E+00
         21   -1    0    0  501  502  0.00000000000E+00  0.00000000000E+00  0.49542218813E+03  0.49542218813E+03  0.00000000000E+00 0. -1.
         21   -1    0    0  502  503 -0.00000000000E+00 -0.00000000000E+00 -0.86090546845E+02  0.86090546845E+02  0.00000000000E+00 0. -1.
         -6    2    1    2    0  503 -0.27210023239E+02  0.11676890671E+02  0.56254896169E+02  0.18183883771E+03  0.17036435782E+03 0.  0.
        -24    2    3    3    0    0 -0.59653751520E+02  0.16066223081E+02 -0.16831146780E+02  0.10161713605E+03  0.78905394249E+02 0.  0.
          6    2    1    2  501    0  0.27210023239E+02 -0.11676890671E+02  0.35307674511E+03  0.39967389726E+03  0.18493053040E+03 0.  0.
         24    2    5    5    0    0  0.18431140472E+02 -0.73433281473E+02  0.18821969097E+03  0.22334789552E+03  0.93410259610E+02 0.  0.
          5    1    5    5  501    0  0.87788827670E+01  0.61756390803E+02  0.16485705415E+03  0.17632600174E+03  0.47000000000E+01 0. -1.
        -11    1    6    6    0    0 -0.27655570727E+02 -0.65094473890E+02  0.13536746619E+03  0.15273006262E+03  0.00000000000E+00 0.  1.
         12    1    6    6    0    0  0.46086711199E+02 -0.83388075831E+01  0.52852224774E+02  0.70617832908E+02  0.00000000000E+00 0. -1.
         -5    1    3    3    0  503  0.32443728281E+02 -0.43893324104E+01  0.73086042948E+02  0.80221701662E+02  0.47000000000E+01 0.  1.
         11    1    4    4    0    0  0.18659879176E+02 -0.35680381129E+01 -0.71606757223E+01  0.20302641790E+02  0.00000000000E+00 0. -1.
        -12    1    4    4    0    0 -0.78313630697E+02  0.19634261194E+02 -0.96704710573E+01  0.81314494255E+02  0.00000000000E+00 0.  1.
</event>
<event>
12    1  0.8453150E-002  0.2385235E+03  0.7818608E-02  0.1120909E+00
         21   -1    0    0  503  502  0.00000000000E+00  0.00000000000E+00  0.89622130467E+03  0.89622130467E+03  0.00000000000E+00 0.  1.
         21   -1    0    0  501  503 -0.00000000000E+00 -0.00000000000E+00 -0.69018783258E+02  0.69018783258E+02  0.00000000000E+00 0.  1.
          6    2    1    2  501    0  0.14176746485E+03 -0.84405766998E+02  0.27380155904E+03  0.36262407128E+03  0.17119163458E+03 0.  0.
         24    2    3    3    0    0  0.10933062529E+03  0.12238414422E+02  0.16674352765E+03  0.21471951270E+03  0.78728017311E+02 0.  0.
         -6    2    1    2    0  502 -0.14176746485E+03  0.84405766998E+02  0.55340096237E+03  0.60261601664E+03  0.17225298479E+03 0.  0.
        -24    2    5    5    0    0 -0.57149178240E+02  0.11188364153E+03  0.35840917760E+03  0.38823510764E+03  0.80531871957E+02 0.  0.
          5    1    3    3  501    0  0.32436839555E+02 -0.96644181420E+02  0.10705803139E+03  0.14790455858E+03  0.47000000000E+01 0. -1.
        -11    1    4    4    0    0  0.35133624763E+02 -0.28196990286E+02  0.30512378558E+02  0.54409990768E+02  0.00000000000E+00 0.  1.
         12    1    4    4    0    0  0.74197000528E+02  0.40435404708E+02  0.13623114909E+03  0.16030952194E+03  0.00000000000E+00 0. -1.
         -5    1    5    5    0  502 -0.84618286606E+02 -0.27477874532E+02  0.19499178477E+03  0.21438090900E+03  0.47000000000E+01 0.  1.
         13    1    6    6    0    0 -0.13088358385E+02  0.37540610110E+02  0.33374434042E+02  0.51908143680E+02  0.00000000000E+00 0. -1.
        -14    1    6    6    0    0 -0.44060819855E+02  0.74343031420E+02  0.32503474356E+03  0.33632696396E+03  0.00000000000E+00 0.  1.
</event>
<event>
12    1  0.8453150E-002  0.1833390E+03  0.7818608E-02  0.1165100E+00
         21   -1    0    0  503  502  0.00000000000E+00  0.00000000000E+00  0.81664618218E+03  0.81664618218E+03  0.00000000000E+00 0.  1.
         21   -1    0    0  501  503 -0.00000000000E+00 -0.00000000000E+00 -0.72205834473E+02  0.72205834473E+02  0.00000000000E+00 0.  1.
          6    2    1    2  501    0  0.58325612087E+02 -0.50766792357E+01  0.79833784720E+02  0.19996659420E+03  0.17373990882E+03 0.  0.
         24    2    3    3    0    0  0.55008834064E+02  0.22945529682E+02 -0.14676253500E+02  0.10122206254E+03  0.80486299272E+02 0.  0.
         -6    2    1    2    0  502 -0.58325612087E+02  0.50766792357E+01  0.66460656298E+03  0.68888542244E+03  0.17156221030E+03 0.  0.
        -24    2    5    5    0    0 -0.29684950594E+02  0.48311430764E+02  0.20969212610E+03  0.23100032102E+03  0.78582249429E+02 0.  0.
          5    1    3    3  501    0  0.33167780229E+01 -0.28022208917E+02  0.94510038221E+02  0.98744531664E+02  0.47000000000E+01 0. -1.
        -13    1    4    4    0    0  0.73250401005E+02  0.65095296838E+01 -0.19759512653E+02  0.76147446211E+02  0.00000000000E+00 0.  1.
         14    1    4    4    0    0 -0.18241566941E+02  0.16435999998E+02  0.50832591530E+01  0.25074616328E+02  0.00000000000E+00 0. -1.
         -5    1    5    5    0  502 -0.28640661492E+02 -0.43234751529E+02  0.45491443688E+03  0.45788510143E+03  0.47000000000E+01 0.  1.
         13    1    6    6    0    0 -0.34900992302E+02  0.58931958059E+02  0.20807547529E+03  0.21905811641E+03  0.00000000000E+00 0. -1.
        -14    1    6    6    0    0  0.52160417072E+01 -0.10620527295E+02  0.16166508093E+01  0.11942204610E+02  0.00000000000E+00 0.  1.
</event>
<event>
12    1  0.8453150E-002  0.2222456E+03  0.7818608E-02  0.1132482E+00
         21   -1    0    0  503  502  0.00000000000E+00  0.00000000000E+00  0.22433469113E+03  0.22433469113E+03  0.00000000000E+00 0.  1.
         21   -1    0    0  501  503 -0.00000000000E+00 -0.00000000000E+00 -0.24438107221E+03  0.24438107221E+03  0.00000000000E+00 0.  1.
          6    2    1    2  501    0  0.53802453489E+02  0.12826336870E+03 -0.85916935660E+02  0.23827468325E+03  0.17334044275E+03 0.  0.
         24    2    3    3    0    0  0.61880078425E+02  0.12707807616E+03 -0.10313940628E+02  0.16208704777E+03  0.78662901908E+02 0.  0.
         -6    2    1    2    0  502 -0.53802453489E+02 -0.12826336870E+03  0.65870554578E+02  0.23044108009E+03  0.17151666299E+03 0.  0.
        -24    2    5    5    0    0 -0.13872486397E+02 -0.30855485762E+02 -0.25814601534E+02  0.90759457174E+02  0.80164696305E+02 0.  0.
          5    1    3    3  501    0 -0.80776249357E+01  0.11852925405E+01 -0.75602995031E+02  0.76187635484E+02  0.47000000000E+01 0. -1.
        -11    1    4    4    0    0  0.76393656157E+02  0.87105823207E+02  0.72297337092E+01  0.11608481463E+03  0.00000000000E+00 0.  1.
         12    1    4    4    0    0 -0.14513577732E+02  0.39972252951E+02 -0.17543674338E+02  0.46002233140E+02  0.00000000000E+00 0. -1.
         -5    1    5    5    0  502 -0.39929967092E+02 -0.97407882937E+02  0.91685156112E+02  0.13968162292E+03  0.47000000000E+01 0.  1.
         13    1    6    6    0    0 -0.27227438941E+02  0.14751590883E+02  0.85365796501E+01  0.32121893733E+02  0.00000000000E+00 0. -1.
        -14    1    6    6    0    0  0.13354952544E+02 -0.45607076645E+02 -0.34351181185E+02  0.58637563441E+02  0.00000000000E+00 0.  1.
</event>
<event>
12    1  0.8453150E-002  0.2457379E+03  0.7818608E-02  0.1116068E+00
         21   -1    0    0  503  502  0.00000000000E+00  0.00000000000E+00  0.16536016147E+03  0.16536016147E+03  0.00000000000E+00 0.  1.
         21   -1    0    0  501  503 -0.00000000000E+00 -0.00000000000E+00 -0.51734464162E+03  0.51734464162E+03  0.00000000000E+00 0. -1.
          6    2    1    2  501    0  0.15117775287E+03  0.88549647267E+02 -0.36127453158E+03  0.43679136899E+03  0.17196412377E+03 0.  0.
         24    2    3    3    0    0  0.10203888655E+03  0.99603472238E+02 -0.15693403099E+03  0.22628259148E+03  0.79010980707E+02 0.  0.
         -6    2    1    2    0  502 -0.15117775287E+03 -0.88549647267E+02  0.92900514257E+01  0.24591343410E+03  0.17231180756E+03 0.  0.
        -24    2    5    5    0    0 -0.14288185639E+03 -0.17594760511E+02 -0.24357582590E+02  0.16680799100E+03  0.80664822261E+02 0.  0.
          5    1    3    3  501    0  0.49138866317E+02 -0.11053824970E+02 -0.20434050059E+03  0.21050877751E+03  0.47000000000E+01 0. -1.
        -11    1    4    4    0    0  0.24389354528E+02  0.59949231597E+02 -0.10905137541E+03  0.12681069932E+03  0.00000000000E+00 0.  1.
         12    1    4    4    0    0  0.77649532022E+02  0.39654240641E+02 -0.47882655586E+02  0.99471892161E+02  0.00000000000E+00 0. -1.
         -5    1    5    5    0  502 -0.82958964788E+01 -0.70954886756E+02  0.33647634016E+02  0.79105443098E+02  0.47000000000E+01 0.  1.
         11    1    6    6    0    0 -0.73163428137E+02  0.23086962066E+02 -0.36878590477E+02  0.85123002002E+02  0.00000000000E+00 0. -1.
        -12    1    6    6    0    0 -0.69718428252E+02 -0.40681722577E+02  0.12521007887E+02  0.81684989002E+02  0.00000000000E+00 0.  1.
</event>
<event>
12    1  0.8453150E-002  0.1871564E+03  0.7818608E-02  0.1162747E+00
         21   -1    0    0  503  502  0.00000000000E+00  0.00000000000E+00  0.50005910114E+03  0.50005910114E+03  0.00000000000E+00 0.  1.
         21   -1    0    0  501  503 -0.00000000000E+00 -0.00000000000E+00 -0.96053924488E+02  0.96053924488E+02  0.00000000000E+00 0.  1.
          6    2    1    2  501    0  0.35567511834E+02 -0.52517990348E+02  0.41936689343E+02  0.19179728478E+03  0.17608045130E+03 0.  0.
         24    2    3    3    0    0  0.21834902788E+02 -0.89107206680E+02  0.72387319559E+02  0.14203096903E+03  0.80721836384E+02 0.  0.
         -6    2    1    2    0  502 -0.35567511834E+02  0.52517990348E+02  0.36206848731E+03  0.40431574084E+03  0.16838777148E+03 0.  0.
        -24    2    5    5    0    0 -0.15233869031E+02 -0.57805602853E+01  0.75631695330E+02  0.11126232620E+03  0.79960404264E+02 0.  0.
          5    1    3    3  501    0  0.13732609047E+02  0.36589216332E+02 -0.30450630216E+02  0.49766315752E+02  0.47000000000E+01 0. -1.
        -13    1    4    4    0    0  0.17268243969E+02 -0.22812578923E+02 -0.14954564721E+02  0.32283819676E+02  0.00000000000E+00 0.  1.
         14    1    4    4    0    0  0.45666588192E+01 -0.66294627757E+02  0.87341884280E+02  0.10974714936E+03  0.00000000000E+00 0. -1.
         -5    1    5    5    0  502 -0.20333642803E+02  0.58298550633E+02  0.28643679198E+03  0.29305341464E+03  0.47000000000E+01 0.  1.
         13    1    6    6    0    0 -0.60964966333E+01 -0.42192796833E+02  0.50487081138E+02  0.66078322752E+02  0.00000000000E+00 0. -1.
        -14    1    6    6    0    0 -0.91373723981E+01  0.36412236548E+02  0.25144614192E+02  0.45184003448E+02  0.00000000000E+00 0.  1.
</event>
<event>
12    1  0.8453150E-002  0.1820232E+03  0.7818608E-02  0.1166245E+00
         21   -1    0    0  503  502  0.00000000000E+00  0.00000000000E+00  0.63104836929E+03  0.63104836929E+03  0.00000000000E+00 0.  1.
         21   -1    0    0  501  503 -0.00000000000E+00 -0.00000000000E+00 -0.64965194253E+02  0.64965194253E+02  0.00000000000E+00 0.  1.
          6    2    1    2  501    0 -0.49727727949E+01 -0.55506495894E+02  0.12882791728E+03  0.22300014022E+03  0.17328222849E+03 0.  0.
         24    2    3    3    0    0  0.22491808441E+02 -0.81222453209E+02  0.14126774089E+03  0.18309459055E+03  0.80399540545E+02 0.  0.
         -6    2    1    2    0  502  0.49727727949E+01  0.55506495894E+02  0.43725525776E+03  0.47301342333E+03  0.17159207049E+03 0.  0.
        -24    2    5    5    0    0  0.31733996867E+02  0.50248618677E+02  0.43388717587E+03  0.44513435659E+03  0.79715392456E+02 0.  0.
          5    1    3    3  501    0 -0.27464581236E+02  0.25715957315E+02 -0.12439823609E+02  0.39905549670E+02  0.47000000000E+01 0. -1.
        -11    1    4    4    0    0  0.45125983020E+01 -0.69470740027E+02  0.41515516049E+02  0.81056062920E+02  0.00000000000E+00 0.  1.
         12    1    4    4    0    0  0.17979210139E+02 -0.11751713182E+02  0.99752224840E+02  0.10203852763E+03  0.00000000000E+00 0. -1.
         -5    1    5    5    0  502 -0.26761224072E+02  0.52578772169E+01  0.33680818895E+01  0.27879066740E+02  0.47000000000E+01 0.  1.
         11    1    6    6    0    0 -0.17195644460E+02  0.16836230978E+02  0.39002891802E+02  0.45829842143E+02  0.00000000000E+00 0. -1.
        -12    1    6    6    0    0  0.48929641327E+02  0.33412387699E+02  0.39488428407E+03  0.39930451444E+03  0.00000000000E+00 0.  1.
</event>
<event>
12    1  0.8453150E-002  0.1975449E+03  0.7818608E-02  0.1151843E+00
         21   -1    0    0  501  502  0.00000000000E+00  0.00000000000E+00  0.71630885341E+03  0.71630885341E+03  0.00000000000E+00 0.  1.
         21   -1    0    0  502  503 -0.00000000000E+00 -0.00000000000E+00 -0.67549193354E+02  0.67549193354E+02  0.00000000000E+00 0.  1.
         -6    2    1    2    0  503 -0.71041859661E+02  0.67337814999E+02  0.15179193307E+03  0.24906753526E+03  0.17150078432E+03 0.  0.
        -24    2    3    3    0    0 -0.34192562356E+01  0.48490691813E+02  0.14915560359E+02  0.95167366471E+02  0.80444485172E+02 0.  0.
          6    2    1    2  501    0  0.71041859661E+02 -0.67337814999E+02  0.49696772699E+03  0.53479051150E+03  0.17158858464E+03 0.  0.
         24    2    5    5    0    0  0.71798532954E+02 -0.73645069576E+02  0.50400365534E+03  0.52420994901E+03  0.10098396130E+03 0.  0.
          5    1    5    5  501    0 -0.75667329298E+00  0.63072545765E+01 -0.70359283567E+01  0.10580562490E+02  0.47000000000E+01 0. -1.
        -11    1    6    6    0    0  0.12585110302E+02 -0.83202178287E+02  0.29094263828E+03  0.30286730798E+03  0.00000000000E+00 0.  1.
         12    1    6    6    0    0  0.59213422652E+02  0.95571087116E+01  0.21306101706E+03  0.22134264104E+03  0.00000000000E+00 0. -1.
         -5    1    3    3    0  503 -0.67622603426E+02  0.18847123186E+02  0.13687637271E+03  0.15390016879E+03  0.47000000000E+01 0.  1.
         11    1    4    4    0    0 -0.88049768169E+01 -0.13682370504E+02  0.27075081219E+02  0.31587891705E+02  0.00000000000E+00 0. -1.
        -12    1    4    4    0    0  0.53857205812E+01  0.62173062317E+02 -0.12159520859E+02  0.63579474767E+02  0.00000000000E+00 0.  1.
</event>
<event>
12    1  0.8453150E-002  0.1809349E+03  0.7818608E-02  0.1167307E+00
         21   -1    0    0  501  502  0.00000000000E+00  0.00000000000E+00  0.17193163525E+03  0.17193163525E+03  0.00000000000E+00 0. -1.
         21   -1    0    0  502  503 -0.00000000000E+00 -0.00000000000E+00 -0.19084452073E+03  0.19084452073E+03  0.00000000000E+00 0. -1.
         -6    2    1    2    0  503  0.23933665060E+02 -0.46701083423E+02  0.10062399582E+02  0.17953589458E+03  0.17140033267E+03 0.  0.
        -24    2    3    3    0    0  0.35967854440E+02  0.34288163223E+02  0.25331913123E+02  0.96113308727E+02  0.78273224041E+02 0.  0.
          6    2    1    2  501    0 -0.23933665060E+02  0.46701083423E+02 -0.28975285059E+02  0.18324026140E+03  0.17315777412E+03 0.  0.
         24    2    5    5    0    0 -0.61190532739E+02  0.58237599157E+01  0.26807050306E+02  0.10454598776E+03  0.80206284874E+02 0.  0.
          5    1    5    5  501    0  0.37256867679E+02  0.40877323507E+02 -0.55782335365E+02  0.78694273649E+02  0.47000000000E+01 0. -1.
        -13    1    6    6    0    0 -0.47817919174E+02 -0.14133705253E+02 -0.18564618699E+02  0.53206767292E+02  0.00000000000E+00 0.  1.
         14    1    6    6    0    0 -0.13372613565E+02  0.19957465169E+02  0.45371669005E+02  0.51339220464E+02  0.00000000000E+00 0. -1.
         -5    1    3    3    0  503 -0.12034189380E+02 -0.80989246646E+02 -0.15269513540E+02  0.83422585851E+02  0.47000000000E+01 0.  1.
         11    1    4    4    0    0 -0.11724616985E+02 -0.11947593460E+02 -0.11357678234E+02  0.20228902288E+02  0.00000000000E+00 0. -1.
        -12    1    4    4    0    0  0.47692471425E+02  0.46235756683E+02  0.36689591357E+02  0.75884406439E+02  0.00000000000E+00 0.  1.
</event>
<event>
12    1  0.8453150E-002  0.2064897E+03  0.7818608E-02  0.1144674E+00
         21   -1    0    0  501  502  0.00000000000E+00  0.00000000000E+00  0.29182856783E+03  0.29182856783E+03  0.00000000000E+00 0. -1.
         21   -1    0    0  502  503 -0.00000000000E+00 -0.00000000000E+00 -0.25894422090E+03  0.25894422090E+03  0.00000000000E+00 0. -1.
         -6    2    1    2    0  503  0.10470003132E+03 -0.46831950786E+02 -0.16621188732E+03  0.26393259330E+03  0.16993732417E+03 0.  0.
        -24    2    3    3    0    0 -0.41884152833E+01  0.52780528758E+01 -0.10187367430E+03  0.12706169814E+03  0.75637483797E+02 0.  0.
          6    2    1    2  501    0 -0.10470003132E+03  0.46831950786E+02  0.19909623425E+03  0.28684019543E+03  0.17170515149E+03 0.  0.
         24    2    5    5    0    0 -0.71323823390E+02 -0.60321600294E+01  0.38342823562E+02  0.11429357994E+03  0.80432428528E+02 0.  0.
          5    1    5    5  501    0 -0.33376207931E+02  0.52864110816E+02  0.16075341069E+03  0.17254661549E+03  0.47000000000E+01 0. -1.
        -13    1    6    6    0    0 -0.88686530724E+02 -0.85134353380E+01  0.25878058906E+02  0.92776361461E+02  0.00000000000E+00 0.  1.
         14    1    6    6    0    0  0.17362707334E+02  0.24812753086E+01  0.12464764655E+02  0.21517218478E+02  0.00000000000E+00 0. -1.
         -5    1    3    3    0  503  0.10888844660E+03 -0.52110003662E+02 -0.64338213025E+02  0.13687089516E+03  0.47000000000E+01 0.  1.
         13    1    4    4    0    0 -0.12318582829E+02 -0.28711866786E+02 -0.79869561631E+02  0.85762845407E+02  0.00000000000E+00 0. -1.
        -14    1    4    4    0    0  0.81301675456E+01  0.33989919662E+02 -0.22004112665E+02  0.41298852734E+02  0.00000000000E+00 0.  1.
</event>
<event>
12    1  0.8453150E-002  0.2019899E+03  0.7818608E-02  0.1148139E+00
         21   -1    0    0  501  502  0.00000000000E+00  0.00000000000E+00  0.86741457815E+02  0.86741457815E+02  0.00000000000E+00 0. -1.
         21   -1    0    0  502  503 -0.00000000000E+00 -0.00000000000E+00 -0.87953188252E+03  0.87953188252E+03  0.00000000000E+00 0. -1.
         -6    2    1    2    0  503 -0.97901896661E+02  0.38871245495E+02 -0.72605992095E+03  0.75354605020E+03  0.17196768845E+03 0.  0.
        -24    2    3    3    0    0 -0.24825283273E+02 -0.30129525720E+02 -0.49209822594E+03  0.49886691367E+03  0.71996184430E+02 0.  0.
          6    2    1    2  501    0  0.97901896661E+02 -0.38871245495E+02 -0.66730503760E+02  0.21272729014E+03  0.17234902013E+03 0.  0.
         24    2    5    5    0    0  0.13529245024E+03 -0.16115312655E+02 -0.53183162784E+02  0.16666747659E+03  0.79911504517E+02 0.  0.
          5    1    5    5  501    0 -0.37390553582E+02 -0.22755932840E+02 -0.13547340976E+02  0.46059813548E+02  0.47000000000E+01 0. -1.
        -11    1    6    6    0    0  0.59051542602E+02 -0.40973550795E+02 -0.27322255827E+01  0.71926223348E+02  0.00000000000E+00 0.  1.
         12    1    6    6    0    0  0.76240907640E+02  0.24858238140E+02 -0.50450937201E+02  0.94741253241E+02  0.00000000000E+00 0. -1.
         -5    1    3    3    0  503 -0.73076613388E+02  0.69000771215E+02 -0.23396169501E+03  0.25467913653E+03  0.47000000000E+01 0.  1.
         13    1    4    4    0    0 -0.84527860097E+00 -0.46885834629E+02 -0.20564899372E+03  0.21092772365E+03  0.00000000000E+00 0. -1.
        -14    1    4    4    0    0 -0.23980004672E+02  0.16756308909E+02 -0.28644923222E+03  0.28793919002E+03  0.00000000000E+00 0.  1.
</event>
<event>
12    1  0.8453150E-002  0.2038238E+03  0.7818608E-02  0.1146756E+00
         21   -1    0    0  501  502  0.00000000000E+00  0.00000000000E+00  0.16841332741E+03  0.16841332741E+03  0.00000000000E+00 0. -1.
         21   -1    0    0  502  503 -0.00000000000E+00 -0.00000000000E+00 -0.27824443055E+03  0.27824443055E+03  0.00000000000E+00 0. -1.
         -6    2    1    2    0  503 -0.86535687579E+02 -0.66628542240E+02 -0.13165954173E+03  0.24264864842E+03  0.17209399695E+03 0.  0.
        -24    2    3    3    0    0 -0.54621591224E+00  0.11633192313E+02 -0.25299102589E+02  0.84998017763E+02  0.80305597045E+02 0.  0.
          6    2    1    2  501    0  0.86535687579E+02  0.66628542240E+02  0.21828438592E+02  0.20400910953E+03  0.17092527073E+03 0.  0.
         24    2    5    5    0    0  0.38318758192E+02 -0.14753098459E+02 -0.31765168702E+02  0.95187197831E+02  0.79784682395E+02 0.  0.
          5    1    5    5  501    0  0.48216929387E+02  0.81381640699E+02  0.53593607295E+02  0.10882191170E+03  0.47000000000E+01 0. -1.
        -13    1    6    6    0    0 -0.23492462547E+02  0.64871494661E+01 -0.86833927251E+01  0.25872383229E+02  0.00000000000E+00 0.  1.
         14    1    6    6    0    0  0.61811220739E+02 -0.21240247925E+02 -0.23081775977E+02  0.69314814603E+02  0.00000000000E+00 0. -1.
         -5    1    3    3    0  503 -0.85989471666E+02 -0.78261734553E+02 -0.10636043914E+03  0.15765063066E+03  0.47000000000E+01 0.  1.
         13    1    4    4    0    0 -0.26922300058E+02  0.29653923448E+02 -0.33277200831E+02  0.52072425634E+02  0.00000000000E+00 0. -1.
        -14    1    4    4    0    0  0.26376084146E+02 -0.18020731135E+02  0.79780982419E+01  0.32925592129E+02  0.00000000000E+00 0.  1.
</event>
<event>
12    1  0.8453150E-002  0.1861043E+03  0.7818608E-02  0.1162508E+00
         21   -1    0    0  503  502  0.00000000000E+00  0.00000000000E+00  0.55695375302E+03  0.55695375302E+03  0.00000000000E+00 0.  1.
         21   -1    0    0  501  503 -0.00000000000E+00 -0.00000000000E+00 -0.82113601472E+02  0.82113601472E+02  0.00000000000E+00 0. -1.
          6    2    1    2  501    0  0.11162445441E+02 -0.67062127361E+02  0.39854751134E+03  0.43985786537E+03  0.17324229800E+03 0.  0.
         24    2    3    3    0    0 -0.44699373481E+02 -0.33833978946E+02  0.12661702247E+03  0.16022787156E+03  0.80612209529E+02 0.  0.
         -6    2    1    2    0  502 -0.11162445441E+02  0.67062127361E+02  0.76292640204E+02  0.19920948912E+03  0.17100270317E+03 0.  0.
        -24    2    5    5    0    0  0.49064320225E+01  0.10225760086E+03  0.19477543934E+02  0.13031119203E+03  0.78236449563E+02 0.  0.
          5    1    3    3  501    0  0.55861818922E+02 -0.33228148414E+02  0.27193048887E+03  0.27962999381E+03  0.47000000000E+01 0. -1.
        -11    1    4    4    0    0 -0.24650638452E+02 -0.57318066680E+01  0.12293300073E+03  0.12551107622E+03  0.00000000000E+00 0.  1.
         12    1    4    4    0    0 -0.20048735029E+02 -0.28102172278E+02  0.36840217398E+01  0.34716795348E+02  0.00000000000E+00 0. -1.
         -5    1    5    5    0  502 -0.16068877463E+02 -0.35195473503E+02  0.56815096269E+02  0.68898297092E+02  0.47000000000E+01 0.  1.
         11    1    6    6    0    0  0.18587829755E+02  0.64081137791E+02 -0.23951663529E+02  0.70891338127E+02  0.00000000000E+00 0. -1.
        -12    1    6    6    0    0 -0.13681397733E+02  0.38176463073E+02  0.43429207463E+02  0.59419853901E+02  0.00000000000E+00 0.  1.
</event>
<event>
12    1  0.8453150E-002  0.2187948E+03  0.7818608E-02  0.1135004E+00
         21   -1    0    0  503  502  0.00000000000E+00  0.00000000000E+00  0.16925433869E+03  0.16925433869E+03  0.00000000000E+00 0. -1.
         21   -1    0    0  501  503 -0.00000000000E+00 -0.00000000000E+00 -0.28320179116E+03  0.28320179116E+03  0.00000000000E+00 0.  1.
          6    2    1    2  501    0  0.10742043843E+03  0.81125026976E+02 -0.75204847349E+02  0.23025763535E+03  0.17100406129E+03 0.  0.
         24    2    3    3    0    0  0.12181990412E+03  0.48659445511E+02 -0.62578867832E+01  0.15255865233E+03  0.77634725328E+02 0.  0.
         -6    2    1    2    0  502 -0.10742043843E+03 -0.81125026976E+02 -0.38742605117E+02  0.22219849450E+03  0.17248408886E+03 0.  0.
        -24    2    5    5    0    0 -0.89601569882E+02  0.23077946947E+01 -0.59879572221E+02  0.13417912625E+03  0.79904364775E+02 0.  0.
          5    1    3    3  501    0 -0.14399465686E+02  0.32465581464E+02 -0.68946960565E+02  0.77698983025E+02  0.47000000000E+01 0. -1.
        -11    1    4    4    0    0  0.19457933203E+02  0.17233411245E+02 -0.33179937414E+02  0.42148663970E+02  0.00000000000E+00 0.  1.
         12    1    4    4    0    0  0.10236197092E+03  0.31426034266E+02  0.26922050630E+02  0.11040998836E+03  0.00000000000E+00 0. -1.
         -5    1    5    5    0  502 -0.17818868550E+02 -0.83432821670E+02  0.21136967104E+02  0.88019368247E+02  0.47000000000E+01 0.  1.
         13    1    6    6    0    0  0.57929467546E+01 -0.15850903549E+02 -0.26648940849E+02  0.31543231029E+02  0.00000000000E+00 0. -1.
        -14    1    6    6    0    0 -0.95394516637E+02  0.18158698243E+02 -0.33230631372E+02  0.10263589522E+03  0.00000000000E+00 0.  1.
</event>
<event>
12    1  0.8453150E-002  0.2103885E+03  0.7818608E-02  0.1141424E+00
         21   -1    0    0  503  502  0.00000000000E+00  0.00000000000E+00  0.11622253933E+04  0.11622253933E+04  0.00000000000E+00 0. -1.
         21   -1    0    0  501  503 -0.00000000000E+00 -0.00000000000E+00 -0.42972152254E+02  0.42972152254E+02  0.00000000000E+00 0. -1.
          6    2    1    2  501    0  0.73224032069E+02 -0.95534963219E+02  0.76694745248E+03  0.79528090127E+03  0.17255326420E+03 0.  0.
         24    2    3    3    0    0  0.87164382746E+02 -0.82836263953E+02  0.36583007147E+03  0.39369301090E+03  0.81872274890E+02 0.  0.
         -6    2    1    2    0  502 -0.73224032069E+02  0.95534963219E+02  0.35230578853E+03  0.40991664425E+03  0.17153308291E+03 0.  0.
        -24    2    5    5    0    0 -0.51727037309E+02  0.59235399361E+02  0.62699720188E+02  0.11721621046E+03  0.60198556105E+02 0.  0.
          5    1    3    3  501    0 -0.13940350677E+02 -0.12698699265E+02  0.40111738101E+03  0.40158789037E+03  0.47000000000E+01 0. -1.
        -13    1    4    4    0    0  0.85065318929E+01 -0.62350680028E+02  0.13435715099E+03  0.14836378401E+03  0.00000000000E+00 0.  1.
         14    1    4    4    0    0  0.78657850853E+02 -0.20485583925E+02  0.23147292048E+03  0.24532922689E+03  0.00000000000E+00 0. -1.
         -5    1    5    5    0  502 -0.21496994760E+02  0.36299563857E+02  0.28960606834E+03  0.29270043379E+03  0.47000000000E+01 0.  1.
         13    1    6    6    0    0 -0.61936778880E+02  0.38548013384E+02  0.59057030384E+02  0.93860783886E+02  0.00000000000E+00 0. -1.
        -14    1    6    6    0    0  0.10209741571E+02  0.20687385978E+02  0.36426898042E+01  0.23355426576E+02  0.00000000000E+00 0.  1.
</event>
<event>
12    1  0.8453150E-002  0.1773083E+03  0.7818608E-02  0.1170494E+00
         21   -1    0    0  503  502  0.00000000000E+00  0.00000000000E+00  0.13006980146E+04  0.13006980146E+04  0.00000000000E+00 0. -1.
         21   -1    0    0  501  503 -0.00000000000E+00 -0.00000000000E+00 -0.28556824559E+02  0.28556824559E+02  0.00000000000E+00 0. -1.
          6    2    1    2  501    0 -0.42179635446E+02 -0.60837340758E+01  0.37423599127E+03  0.41401062377E+03  0.17186065857E+03 0.  0.
         24    2    3    3    0    0 -0.68216891553E+02  0.21229250569E+01  0.37125601214E+03  0.38614921255E+03  0.81376511959E+02 0.  0.
         -6    2    1    2    0  502  0.42179635446E+02  0.60837340758E+01  0.89790519875E+03  0.91524421537E+03  0.17211070379E+03 0.  0.
        -24    2    5    5    0    0 -0.37385441283E+02  0.32554372010E+02  0.48883698883E+03  0.49764370474E+03  0.78931596122E+02 0.  0.
          5    1    3    3  501    0  0.26037256106E+02 -0.82066591326E+01  0.29799791335E+01  0.27861411222E+02  0.47000000000E+01 0. -1.
        -11    1    4    4    0    0 -0.40470436497E+00  0.28489909699E+02  0.58878829064E+02  0.65410666196E+02  0.00000000000E+00 0.  1.
         12    1    4    4    0    0 -0.67812187188E+02 -0.26366984642E+02  0.31237718308E+03  0.32073854635E+03  0.00000000000E+00 0. -1.
         -5    1    5    5    0  502  0.79565076730E+02 -0.26470637934E+02  0.40906820992E+03  0.41760051062E+03  0.47000000000E+01 0.  1.
         11    1    6    6    0    0  0.71381726736E+01 -0.33777504382E+01  0.30515720270E+03  0.30525936688E+03  0.00000000000E+00 0. -1.
        -12    1    6    6    0    0 -0.44523613957E+02  0.35932122448E+02  0.18367978613E+03  0.19238433786E+03  0.00000000000E+00 0.  1.
</event>
<event>
12    1  0.8453150E-002  0.2009049E+03  0.7818608E-02  0.1149274E+00
         21   -1    0    0  503  502  0.00000000000E+00  0.00000000000E+00  0.11608978289E+03  0.11608978289E+03  0.00000000000E+00 0. -1.
         21   -1    0    0  501  503 -0.00000000000E+00 -0.00000000000E+00 -0.36969561873E+03  0.36969561873E+03  0.00000000000E+00 0. -1.
          6    2    1    2  501    0 -0.97425985155E+02 -0.35400456271E+02 -0.18967102768E+03  0.27629313410E+03  0.17209817641E+03 0.  0.
         24    2    3    3    0    0 -0.16807471271E+02 -0.59241636539E+02 -0.46293257666E+02  0.11001919871E+03  0.78543591651E+02 0.  0.
         -6    2    1    2    0  502  0.97425985155E+02  0.35400456271E+02 -0.63934808164E+02  0.20949226752E+03  0.17045332373E+03 0.  0.
        -24    2    5    5    0    0  0.79651059621E+02  0.73981781515E+02 -0.29363194017E+01  0.13501158367E+03  0.80011939483E+02 0.  0.
          5    1    3    3  501    0 -0.80618513884E+02  0.23841180268E+02 -0.14337777001E+03  0.16627393539E+03  0.47000000000E+01 0. -1.
        -11    1    4    4    0    0  0.30564548108E+02 -0.14074516757E+02 -0.96467270396E+01  0.35004899165E+02  0.00000000000E+00 0.  1.
         12    1    4    4    0    0 -0.47372019379E+02 -0.45167119782E+02 -0.36646530626E+02  0.75014299546E+02  0.00000000000E+00 0. -1.
         -5    1    5    5    0  502  0.17774925534E+02 -0.38581325244E+02 -0.60998488762E+02  0.74480683849E+02  0.47000000000E+01 0.  1.
         11    1    6    6    0    0  0.73651771788E+02  0.57466643744E+02 -0.33925293775E+02  0.99387746671E+02  0.00000000000E+00 0. -1.
        -12    1    6    6    0    0  0.59992878329E+01  0.16515137771E+02  0.30988974374E+02  0.35623837003E+02  0.00000000000E+00 0.  1.
</event>
<event>
12    1  0.8453150E-002  0.2075172E+03  0.7818608E-02  0.1143869E+00
         21   -1    0    0  501  502  0.00000000000E+00  0.00000000000E+00  0.19090627811E+03  0.19090627811E+03  0.00000000000E+00 0.  1.
         21   -1    0    0  502  503 -0.00000000000E+00 -0.00000000000E+00 -0.22466258003E+03  0.22466258003E+03  0.00000000000E+00 0.  1.
         -6    2    1    2    0  503 -0.97053014995E+02 -0.62414020908E+02 -0.44156655732E+01  0.20756416022E+03  0.17247778054E+03 0.  0.
        -24    2    3    3    0    0 -0.90209830028E+02 -0.84348222155E+02 -0.50852326214E+02  0.15554116707E+03  0.79716118549E+02 0.  0.
          6    2    1    2  501    0  0.97053014995E+02  0.62414020908E+02 -0.29340636352E+02  0.20800469792E+03  0.17055873970E+03 0.  0.
         24    2    5    5    0    0  0.69234941839E+02  0.75373890090E+02 -0.73991561221E+02  0.15362089063E+03  0.87463857839E+02 0.  0.
          5    1    5    5  501    0  0.27818073156E+02 -0.12959869182E+02  0.44650924869E+02  0.54383807286E+02  0.47000000000E+01 0. -1.
        -13    1    6    6    0    0  0.60830699339E+02  0.61725534816E+01 -0.16682779249E+02  0.63378147038E+02  0.00000000000E+00 0.  1.
         14    1    6    6    0    0  0.84042425006E+01  0.69201336608E+02 -0.57308781972E+02  0.90242743595E+02  0.00000000000E+00 0. -1.
         -5    1    3    3    0  503 -0.68431849671E+01  0.21934201247E+02  0.46436660641E+02  0.52022993151E+02  0.47000000000E+01 0.  1.
         11    1    4    4    0    0  0.97737854723E+01 -0.29268976970E+02 -0.71823360746E+00  0.30866093935E+02  0.00000000000E+00 0. -1.
        -12    1    4    4    0    0 -0.99983615500E+02 -0.55079245185E+02 -0.50134092607E+02  0.12467507313E+03  0.00000000000E+00 0.  1.
</event>
<event>
12    1  0.8453150E-002  0.2414714E+03  0.7818608E-02  0.1119282E+00
         21   -1    0    0  503  502  0.00000000000E+00  0.00000000000E+00  0.44428452175E+03  0.44428452175E+03  0.00000000000E+00 0. -1.
         21   -1    0    0  501  503 -0.00000000000E+00 -0.00000000000E+00 -0.13338939251E+03  0.13338939251E+03  0.00000000000E+00 0.  1.
          6    2    1    2  501    0  0.12408270775E+03 -0.11630194694E+03  0.20245298128E+03  0.31297004600E+03  0.16745261670E+03 0.  0.
         24    2    3    3    0    0  0.20278124687E+01 -0.47085962968E+02  0.51995702677E+02  0.10718439882E+03  0.81016926144E+02 0.  0.
         -6    2    1    2    0  502 -0.12408270775E+03  0.11630194694E+03  0.10844214796E+03  0.26470386826E+03  0.17142280243E+03 0.  0.
        -24    2    5    5    0    0 -0.34996843233E+02 -0.95510673806E+01  0.39209738445E+02  0.95616645211E+02  0.79304081409E+02 0.  0.
          5    1    3    3  501    0  0.12205489528E+03 -0.69215983977E+02  0.15045727860E+03  0.20578564718E+03  0.47000000000E+01 0. -1.
        -13    1    4    4    0    0  0.21525156119E+01 -0.15078774085E+02 -0.21887642396E+02  0.26665926592E+02  0.00000000000E+00 0.  1.
         14    1    4    4    0    0 -0.12470314318E+00 -0.32007188883E+02  0.73883345073E+02  0.80518472230E+02  0.00000000000E+00 0. -1.
         -5    1    5    5    0  502 -0.89085864518E+02  0.12585301433E+03  0.69232409511E+02  0.16908722305E+03  0.47000000000E+01 0.  1.
         13    1    6    6    0    0 -0.19783589657E+02 -0.14661385457E+02  0.62589262049E+02  0.67258920353E+02  0.00000000000E+00 0. -1.
        -14    1    6    6    0    0 -0.15213253576E+02  0.51103180765E+01 -0.23379523604E+02  0.28357724858E+02  0.00000000000E+00 0.  1.
</event>
<event>
12    1  0.8453150E-002  0.1852941E+03  0.7818608E-02  0.1163550E+00
         21   -1    0    0  503  502  0.00000000000E+00  0.00000000000E+00  0.38468263351E+03  0.38468263351E+03  0.00000000000E+00 0. -1.
         21   -1    0    0  501  503 -0.00000000000E+00 -0.00000000000E+00 -0.22618007623E+03  0.22618007623E+03  0.00000000000E+00 0. -1.
          6    2    1    2  501    0 -0.12612545575E+01 -0.68976327940E+02 -0.16003427724E+03  0.24235271133E+03  0.16841776099E+03 0.  0.
         24    2    3    3    0    0  0.37641610812E+02  0.23758218000E+01 -0.39826263548E+02  0.97174824712E+02  0.80213963223E+02 0.  0.
         -6    2    1    2    0  502  0.12612545575E+01  0.68976327940E+02  0.31853683452E+03  0.36850999840E+03  0.17197261234E+03 0.  0.
        -24    2    5    5    0    0  0.31251540826E+02  0.10322783831E+03  0.27270493448E+03  0.30373935463E+03  0.79101004121E+02 0.  0.
          5    1    3    3  501    0 -0.38902865370E+02 -0.71352149740E+02 -0.12020801370E+03  0.14517788662E+03  0.47000000000E+01 0. -1.
        -13    1    4    4    0    0 -0.38481872920E+01  0.25909880502E+02 -0.41918126841E+02  0.49429341598E+02  0.00000000000E+00 0.  1.
         14    1    4    4    0    0  0.41489798104E+02 -0.23534058702E+02  0.20918632930E+01  0.47745483114E+02  0.00000000000E+00 0. -1.
         -5    1    5    5    0  502 -0.29990286268E+02 -0.34251510374E+02  0.45831900042E+02  0.64770643774E+02  0.47000000000E+01 0.  1.
         11    1    6    6    0    0  0.36066780363E+02  0.71672606032E+01  0.61301034780E+02  0.71484257955E+02  0.00000000000E+00 0. -1.
        -12    1    6    6    0    0 -0.48152395374E+01  0.96060577711E+02  0.21140389970E+03  0.23225509667E+03  0.00000000000E+00 0.  1.
</event>
<event>
12    1  0.8453150E-002  0.1912705E+03  0.7818608E-02  0.1157636E+00
         21   -1    0    0  501  502  0.00000000000E+00  0.00000000000E+00  0.18947826948E+03  0.18947826948E+03  0.00000000000E+00 0. -1.
         21   -1    0    0  502  503 -0.00000000000E+00 -0.00000000000E+00 -0.26381281737E+03  0.26381281737E+03  0.00000000000E+00 0. -1.
         -6    2    1    2    0  503  0.15891317162E+00  0.82722783861E+02 -0.15579434573E+03  0.24669062470E+03  0.17245666682E+03 0.  0.
        -24    2    3    3    0    0  0.61311321193E+02  0.29201631400E+02 -0.10359523159E+03  0.14999021992E+03  0.84577069479E+02 0.  0.
          6    2    1    2  501    0 -0.15891317162E+00 -0.82722783861E+02  0.81459797843E+02  0.20660046215E+03  0.17089461101E+03 0.  0.
         24    2    5    5    0    0  0.19441087283E+02  0.18553481400E+02  0.19483770021E+02  0.86167244357E+02  0.79517225549E+02 0.  0.
          5    1    5    5  501    0 -0.19600000455E+02 -0.10127626526E+03  0.61976027822E+02  0.12043321779E+03  0.47000000000E+01 0. -1.
        -11    1    6    6    0    0  0.31792919958E+02 -0.23291149627E+02  0.29925083848E+01  0.39524960681E+02  0.00000000000E+00 0.  1.
         12    1    6    6    0    0 -0.12351832675E+02  0.41844631026E+02  0.16491261636E+02  0.46642283676E+02  0.00000000000E+00 0. -1.
         -5    1    3    3    0  503 -0.61152408022E+02  0.53521152461E+02 -0.52199114139E+02  0.96700404779E+02  0.47000000000E+01 0.  1.
         13    1    4    4    0    0  0.19340806147E+02  0.45954841800E+02 -0.89847841220E+02  0.10275479959E+03  0.00000000000E+00 0. -1.
        -14    1    4    4    0    0  0.41970515046E+02 -0.16753210400E+02 -0.13747390371E+02  0.47235420332E+02  0.00000000000E+00 0.  1.
</event>
<event>
12    1  0.8453150E-002  0.2209359E+03  0.7818608E-02  0.1133810E+00
         21   -1    0    0  501  502  0.00000000000E+00  0.00000000000E+00  0.43600141876E+02  0.43600141876E+02  0.00000000000E+00 0.  1.
         21   -1    0    0  502  503 -0.00000000000E+00 -0.00000000000E+00 -0.14283655983E+04  0.14283655983E+04  0.00000000000E+00 0.  1.
         -6    2    1    2    0  503 -0.13053981356E+03  0.43855606372E+02 -0.10397258335E+04  0.10622524133E+04  0.16848270978E+03 0.  0.
        -24    2    3    3    0    0 -0.48259843557E+02  0.52255355008E+02 -0.82845812809E+03  0.83532360815E+03  0.79768575930E+02 0.  0.
          6    2    1    2  501    0  0.13053981356E+03 -0.43855606372E+02 -0.34503962285E+03  0.40971332685E+03  0.17276779713E+03 0.  0.
         24    2    5    5    0    0  0.66585277223E+02  0.25708724410E+02 -0.26535291424E+03  0.28601433589E+03  0.79356748830E+02 0.  0.
          5    1    5    5  501    0  0.63954536334E+02 -0.69564330782E+02 -0.79686708617E+02  0.12369899096E+03  0.47000000000E+01 0. -1.
        -13    1    6    6    0    0  0.70042631795E+02 -0.57158118061E+01 -0.21825402174E+03  0.22928902891E+03  0.00000000000E+00 0.  1.
         14    1    6    6    0    0 -0.34573545725E+01  0.31424536216E+02 -0.47098892501E+02  0.56725306979E+02  0.00000000000E+00 0. -1.
         -5    1    3    3    0  503 -0.82279969999E+02 -0.83997486356E+01 -0.21126770544E+03  0.22692880514E+03  0.47000000000E+01 0.  1.
         11    1    4    4    0    0 -0.25163609473E+02  0.29559092112E+01 -0.59745334690E+03  0.59799033969E+03  0.00000000000E+00 0. -1.
        -12    1    4    4    0    0 -0.23096234084E+02  0.49299445797E+02 -0.23100478119E+03  0.23733326846E+03  0.00000000000E+00 0.  1.
</event>
<event>
12    1  0.8453150E-002  0.1898722E+03  0.7818608E-02  0.1158999E+00
         21   -1    0    0  503  502  0.00000000000E+00  0.00000000000E+00  0.18657351045E+03  0.18657351045E+03  0.00000000000E+00 0. -1.
         21   -1    0    0  501  503 -0.00000000000E+00 -0.00000000000E+00 -0.36688682801E+03  0.36688682801E+03  0.00000000000E+00 0. -1.
          6    2    1    2  501    0  0.78650612251E+02 -0.35541497811E+01 -0.28134311610E+03  0.33838250661E+03  0.17073435803E+03 0.  0.
         24    2    3    3    0    0  0.65310467878E+02 -0.17706358879E+02 -0.69112523817E+02  0.12521084157E+03  0.79512524413E+02 0.  0.
         -6    2    1    2    0  502 -0.78650612251E+02  0.35541497811E+01  0.10102979854E+03  0.21507783185E+03  0.17277992584E+03 0.  0.
        -24    2    5    5    0    0 -0.65808943856E+02  0.90192177702E+00 -0.48353911733E+01  0.10830016025E+03  0.85871492057E+02 0.  0.
          5    1    3    3  501    0  0.13340144372E+02  0.14152209098E+02 -0.21223059228E+03  0.21317166504E+03  0.47000000000E+01 0. -1.
        -11    1    4    4    0    0  0.25010560923E+02  0.18473976330E+02 -0.63573676621E+02  0.70770250235E+02  0.00000000000E+00 0.  1.
         12    1    4    4    0    0  0.40299906955E+02 -0.36180335209E+02 -0.55388471954E+01  0.54440591333E+02  0.00000000000E+00 0. -1.
         -5    1    5    5    0  502 -0.12841668394E+02  0.26522280041E+01  0.10586518971E+03  0.10677767160E+03  0.47000000000E+01 0.  1.
         13    1    6    6    0    0 -0.37165855286E+02  0.24917062332E+02  0.32628529188E+02  0.55378531142E+02  0.00000000000E+00 0. -1.
        -14    1    6    6    0    0 -0.28643088570E+02 -0.24015140555E+02 -0.37463920361E+02  0.52921629109E+02  0.00000000000E+00 0.  1.
</event>
<event>
12    1  0.8453150E-002  0.1993392E+03  0.7818608E-02  0.1150790E+00
         21   -1    0    0  501  502  0.00000000000E+00  0.00000000000E+00  0.16947003752E+04  0.16947003752E+04  0.00000000000E+00 0.  1.
         21   -1    0    0  502  503 -0.00000000000E+00 -0.00000000000E+00 -0.23400839262E+02  0.23400839262E+02  0.00000000000E+00 0.  1.
         -6    2    1    2    0  503 -0.18728962098E+02 -0.95700369332E+02  0.91492805545E+03  0.93590307673E+03  0.17120714841E+03 0.  0.
        -24    2    3    3    0    0 -0.54850121842E+02 -0.10138550842E+02  0.33549648265E+03  0.34905675909E+03  0.78558291209E+02 0.  0.
          6    2    1    2  501    0  0.18728962098E+02  0.95700369332E+02  0.75637148052E+03  0.78219813777E+03  0.17385849266E+03 0.  0.
         24    2    5    5    0    0 -0.56549775051E+02  0.61808779334E+02  0.42383755180E+03  0.43953732605E+03  0.80849170752E+02 0.  0.
          5    1    5    5  501    0  0.75278737149E+02  0.33891589999E+02  0.33253392872E+03  0.34266081173E+03  0.47000000000E+01 0. -1.
        -11    1    6    6    0    0 -0.23929898623E+01  0.45849600752E+02  0.29928059108E+03  0.30278174397E+03  0.00000000000E+00 0.  1.
         12    1    6    6    0    0 -0.54156785189E+02  0.15959178582E+02  0.12455696072E+03  0.13675558207E+03  0.00000000000E+00 0. -1.
         -5    1    3    3    0  503  0.36121159744E+02 -0.85561818490E+02  0.57943157281E+03  0.58684631764E+03  0.47000000000E+01 0.  1.
         11    1    4    4    0    0  0.57095312076E+01  0.25375919529E+02  0.99008637281E+02  0.10236818986E+03  0.00000000000E+00 0. -1.
        -12    1    4    4    0    0 -0.60559653049E+02 -0.35514470371E+02  0.23648784536E+03  0.24668856923E+03  0.00000000000E+00 0.  1.
</event>
<event>
12    1  0.8453150E-002  0.2531227E+03  0.7818608E-02  0.1111428E+00
         21   -1    0    0  501  502  0.00000000000E+00  0.00000000000E+00  0.18250235893E+03  0.18250235893E+03  0.00000000000E+00 0.  1.
         21   -1    0    0  502  503 -0.00000000000E+00 -0.00000000000E+00 -0.35607057108E+03  0.35607057108E+03  0.00000000000E+00 0.  1.
         -6    2    1    2    0  503  0.91036015959E+02  0.16334515509E+03 -0.52548839866E+02  0.25800778139E+03  0.16981589676E+03 0.  0.
        -24    2    3    3    0    0  0.59818334271E+02  0.50631366734E+02  0.44286262814E+02  0.10609310518E+03  0.56148957962E+02 0.  0.
          6    2    1    2  501    0 -0.91036015959E+02 -0.16334515509E+03 -0.12101937228E+03  0.28056514862E+03  0.17059284352E+03 0.  0.
         24    2    5    5    0    0 -0.90273387025E+02 -0.62211580109E+02 -0.17566984950E+02  0.13581340239E+03  0.78211995274E+02 0.  0.
          5    1    5    5  501    0 -0.76262893375E+00 -0.10113357499E+03 -0.10345238733E+03  0.14475174623E+03  0.47000000000E+01 0. -1.
        -11    1    6    6    0    0 -0.30460026294E+01 -0.45794795567E+02 -0.49447441924E+01  0.46161584983E+02  0.00000000000E+00 0.  1.
         12    1    6    6    0    0 -0.87227384395E+02 -0.16416784543E+02 -0.12622240757E+02  0.89651817410E+02  0.00000000000E+00 0. -1.
         -5    1    3    3    0  503  0.31217681688E+02  0.11271378836E+03 -0.96835102680E+02  0.15191467621E+03  0.47000000000E+01 0.  1.
         13    1    4    4    0    0  0.37420835844E+02 -0.35163508527E+01  0.13793156173E+02  0.40036668640E+02  0.00000000000E+00 0. -1.
        -14    1    4    4    0    0  0.22397498427E+02  0.54147717587E+02  0.30493106642E+02  0.66056436539E+02  0.00000000000E+00 0.  1.
</event>
<event>
12    1  0.8453150E-002  0.2083868E+03  0.7818608E-02  0.1143243E+00
         21   -1    0    0  503  502  0.00000000000E+00  0.00000000000E+00  0.15656278172E+03  0.15656278172E+03  0.00000000000E+00 0.  1.
         21   -1    0    0  501  503 -0.00000000000E+00 -0.00000000000E+00 -0.46441483595E+03  0.46441483595E+03  0.00000000000E+00 0.  1.
          6    2    1    2  501    0  0.40417675939E+02 -0.10604466740E+03 -0.35276575365E+03  0.40971789169E+03  0.17477417946E+03 0.  0.
         24    2    3    3    0    0 -0.25349404189E+02 -0.74329386455E+02 -0.27794628217E+03  0.30506985689E+03  0.98214213980E+02 0.  0.
         -6    2    1    2    0  502 -0.40417675939E+02  0.10604466740E+03  0.44913699418E+02  0.21125972598E+03  0.17243657215E+03 0.  0.
        -24    2    5    5    0    0 -0.78329813029E+02  0.11663092362E+03  0.19597450097E+02  0.16422355438E+03  0.82746503307E+02 0.  0.
          5    1    3    3  501    0  0.65767080128E+02 -0.31715280947E+02 -0.74819471485E+02  0.10464803480E+03  0.47000000000E+01 0. -1.
        -13    1    4    4    0    0  0.32877222403E+02 -0.35802043714E+02 -0.66332433737E+02  0.82235575346E+02  0.00000000000E+00 0.  1.
         14    1    4    4    0    0 -0.58226626592E+02 -0.38527342741E+02 -0.21161384843E+03  0.22283428154E+03  0.00000000000E+00 0. -1.
         -5    1    5    5    0  502  0.37912137090E+02 -0.10586256214E+02  0.25316249321E+02  0.47036171603E+02  0.47000000000E+01 0.  1.
         11    1    6    6    0    0  0.21315382189E+01 -0.23339831157E+01 -0.15957917061E+02  0.16267945454E+02  0.00000000000E+00 0. -1.
        -12    1    6    6    0    0 -0.80461351248E+02  0.11896490673E+03  0.35555367158E+02  0.14795560892E+03  0.00000000000E+00 0.  1.
</event>
<event>
12    1  0.8453150E-002  0.1805384E+03  0.7818608E-02  0.1170342E+00
         21   -1    0    0  501  502  0.00000000000E+00  0.00000000000E+00  0.10849219005E+04  0.10849219005E+04  0.00000000000E+00 0. -1.
         21   -1    0    0  502  503 -0.00000000000E+00 -0.00000000000E+00 -0.81528949298E+02  0.81528949298E+02  0.00000000000E+00 0.  1.
         -6    2    1    2    0  503  0.31867231443E+02  0.33752328372E+02  0.23361161635E+02  0.16992868945E+03  0.16178774835E+03 0.  0.
        -24    2    3    3    0    0  0.41943323105E+02  0.15240739369E+01 -0.39075947819E+02  0.98790298664E+02  0.80442701706E+02 0.  0.
          6    2    1    2  501    0 -0.31867231443E+02 -0.33752328372E+02  0.98003178961E+03  0.99652216038E+03  0.17446881494E+03 0.  0.
         24    2    5    5    0    0  0.16213047360E+02  0.11885808815E+02  0.24989657246E+03  0.26336864434E+03  0.80688354406E+02 0.  0.
          5    1    5    5  501    0 -0.48080278803E+02 -0.45638137187E+02  0.73013521714E+03  0.73315351605E+03  0.47000000000E+01 0. -1.
        -11    1    6    6    0    0  0.32052642024E+02  0.20814993591E+02  0.23928042033E+03  0.24231334130E+03  0.00000000000E+00 0.  1.
         12    1    6    6    0    0 -0.15839594664E+02 -0.89291847755E+01  0.10616152128E+02  0.21055303035E+02  0.00000000000E+00 0. -1.
         -5    1    3    3    0  503 -0.10076091662E+02  0.32228254435E+02  0.62437109454E+02  0.71138390789E+02  0.47000000000E+01 0.  1.
         11    1    4    4    0    0 -0.64420412625E+01  0.29219569120E+02  0.13075289831E+01  0.29949837182E+02  0.00000000000E+00 0. -1.
        -12    1    4    4    0    0  0.48385364368E+02 -0.27695495183E+02 -0.40383476802E+02  0.68840461482E+02  0.00000000000E+00 0.  1.
</event>
<event>
12    1  0.8453150E-002  0.2097042E+03  0.7818608E-02  0.1141827E+00
         21   -1    0    0  501  502  0.00000000000E+00  0.00000000000E+00  0.15126387635E+04  0.15126387635E+04  0.00000000000E+00 0. -1.
         21   -1    0    0  502  503 -0.00000000000E+00 -0.00000000000E+00 -0.29055396014E+02  0.29055396014E+02  0.00000000000E+00 0. -1.
         -6    2    1    2    0  503 -0.23332970001E+02  0.11794807507E+03  0.73591472888E+03  0.76517356754E+03  0.17165058805E+03 0.  0.
        -24    2    3    3    0    0  0.40354538957E+02  0.35319410401E+02  0.46198965039E+03  0.47201723783E+03  0.80559829795E+02 0.  0.
          6    2    1    2  501    0  0.23332970001E+02 -0.11794807507E+03  0.74766863862E+03  0.77652059199E+03  0.17181286536E+03 0.  0.
         24    2    5    5    0    0  0.78611061294E+02 -0.70083122228E+02  0.39079552929E+03  0.41220311059E+03  0.78095554864E+02 0.  0.
          5    1    5    5  501    0 -0.55278091293E+02 -0.47864952842E+02  0.35687310933E+03  0.36431748140E+03  0.47000000000E+01 0. -1.
        -13    1    6    6    0    0  0.71066823835E+02 -0.16387839219E+02  0.27217757373E+03  0.28177949955E+03  0.00000000000E+00 0.  1.
         14    1    6    6    0    0  0.75442374592E+01 -0.53695283009E+02  0.11861795555E+03  0.13042361104E+03  0.00000000000E+00 0. -1.
         -5    1    3    3    0  503 -0.63687508958E+02  0.82628664669E+02  0.27392507848E+03  0.29315632970E+03  0.47000000000E+01 0.  1.
         13    1    4    4    0    0 -0.23381781498E+02  0.59566680965E+01  0.17053423192E+03  0.17223273166E+03  0.00000000000E+00 0. -1.
        -14    1    4    4    0    0  0.63736320454E+02  0.29362742304E+02  0.29145541847E+03  0.29978450617E+03  0.00000000000E+00 0.  1.
</event>
<event>
12    1  0.8453150E-002  0.2123832E+03  0.7818608E-02  0.1139877E+00
         21   -1    0    0  503  502  0.00000000000E+00  0.00000000000E+00  0.34801455098E+02  0.34801455098E+02  0.00000000000E+00 0.  1.
         21   -1    0    0  501  503 -0.00000000000E+00 -0.00000000000E+00 -0.15534627859E+04  0.15534627859E+04  0.00000000000E+00 0. -1.
          6    2    1    2  501    0  0.61881367117E+02  0.10758280865E+03 -0.10847437206E+04  0.11051585635E+04  0.17118161991E+03 0.  0.
         24    2    3    3    0    0  0.24265839012E+02  0.10681304115E+03 -0.46265168178E+03  0.48191213139E+03  0.78707477554E+02 0.  0.
         -6    2    1    2    0  502 -0.61881367117E+02 -0.10758280865E+03 -0.43391761028E+03  0.48310567748E+03  0.17234627582E+03 0.  0.
        -24    2    5    5    0    0 -0.30146692954E+02 -0.66885023681E+02 -0.10804229031E+03  0.15313565852E+03  0.79968518348E+02 0.  0.
          5    1    3    3  501    0  0.37615528105E+02  0.76976749603E+00 -0.62209203877E+03  0.62324643216E+03  0.47000000000E+01 0. -1.
        -11    1    4    4    0    0  0.30175989324E+02  0.23264439426E+02 -0.63394441365E+02  0.73964043085E+02  0.00000000000E+00 0.  1.
         12    1    4    4    0    0 -0.59101503120E+01  0.83548601724E+02 -0.39925724042E+03  0.40794808830E+03  0.00000000000E+00 0. -1.
         -5    1    5    5    0  502 -0.31734674163E+02 -0.40697784965E+02 -0.32587531997E+03  0.32997001896E+03  0.47000000000E+01 0.  1.
         13    1    6    6    0    0  0.17174761616E+02 -0.46483806013E+02 -0.80955964284E+02  0.94918832753E+02  0.00000000000E+00 0. -1.
        -14    1    6    6    0    0 -0.47321454570E+02 -0.20401217668E+02 -0.27086326024E+02  0.58216825767E+02  0.00000000000E+00 0.  1.
</event>
<event>
12    1  0.8453150E-002  0.1921730E+03  0.7818608E-02  0.1157211E+00
         21   -1    0    0  503  502  0.00000000000E+00  0.00000000000E+00  0.33453701602E+03  0.33453701602E+03  0.00000000000E+00 0. -1.
         21   -1    0    0  501  503 -0.00000000000E+00 -0.00000000000E+00 -0.10900613992E+03  0.10900613992E+03  0.00000000000E+00 0. -1.
          6    2    1    2  501    0  0.78050875105E+02  0.17548517799E+01  0.12690123040E+03  0.23029196804E+03  0.17560025529E+03 0.  0.
         24    2    3    3    0    0  0.17532520580E+01  0.16356129111E+02 -0.14510678938E+00  0.81304094795E+02  0.79622471214E+02 0.  0.
         -6    2    1    2    0  502 -0.78050875105E+02 -0.17548517799E+01  0.98629645704E+02  0.21325118790E+03  0.17220117166E+03 0.  0.
        -24    2    5    5    0    0 -0.54742429328E+02 -0.15239730531E+02 -0.13162629068E+02  0.98165444656E+02  0.78957056462E+02 0.  0.
          5    1    3    3  501    0  0.76297623047E+02 -0.14601277331E+02  0.12704633719E+03  0.14898787325E+03  0.47000000000E+01 0. -1.
        -11    1    4    4    0    0 -0.11418321824E+02 -0.26857190249E+02 -0.16177326751E+02  0.33367538749E+02  0.00000000000E+00 0.  1.
         12    1    4    4    0    0  0.13171573881E+02  0.43213319360E+02  0.16032219962E+02  0.47936556046E+02  0.00000000000E+00 0. -1.
         -5    1    5    5    0  502 -0.23308445777E+02  0.13484878751E+02  0.11179227477E+03  0.11508574324E+03  0.47000000000E+01 0.  1.
         11    1    6    6    0    0 -0.24696166313E+02 -0.41516430937E+02 -0.27700297512E+02  0.55685017290E+02  0.00000000000E+00 0. -1.
        -12    1    6    6    0    0 -0.30046263015E+02  0.26276700407E+02  0.14537668444E+02  0.42480427366E+02  0.00000000000E+00 0.  1.
</event>
<event>
12    1  0.8453150E-002  0.2060580E+03  0.7818608E-02  0.1144791E+00
         21   -1    0    0  501  502  0.00000000000E+00  0.00000000000E+00  0.17038796755E+04  0.17038796755E+04  0.00000000000E+00 0. -1.
         21   -1    0    0  502  503 -0.00000000000E+00 -0.00000000000E+00 -0.25201778922E+02  0.25201778922E+02  0.00000000000E+00 0.  1.
         -6    2    1    2    0  503 -0.69937200105E+02  0.88784988818E+02  0.93622525106E+03  0.95856485777E+03  0.17191532691E+03 0.  0.
        -24    2    3    3    0    0  0.27869515342E+02  0.30551179713E+02  0.48418286999E+03  0.49238706508E+03  0.79384417871E+02 0.  0.
          6    2    1    2  501    0  0.69937200105E+02 -0.88784988818E+02  0.74245264550E+03  0.77051659664E+03  0.17229599149E+03 0.  0.
         24    2    5    5    0    0  0.10315858032E+03 -0.25678324894E+02  0.41408856290E+03  0.43446426162E+03  0.77387257543E+02 0.  0.
          5    1    5    5  501    0 -0.33221380211E+02 -0.63106663925E+02  0.32836408260E+03  0.33605233503E+03  0.47000000000E+01 0. -1.
        -13    1    6    6    0    0  0.97715245244E+02  0.73402387976E+01  0.30418352713E+03  0.31957748112E+03  0.00000000000E+00 0.  1.
         14    1    6    6    0    0  0.54433350716E+01 -0.33018563691E+02  0.10990503577E+03  0.11488678050E+03  0.00000000000E+00 0. -1.
         -5    1    3    3    0  503 -0.97806715447E+02  0.58233809106E+02  0.45204238108E+03  0.46617779269E+03  0.47000000000E+01 0.  1.
         11    1    4    4    0    0  0.11351345872E+02  0.77800468763E+01  0.43864418570E+03  0.43886000482E+03  0.00000000000E+00 0. -1.
        -12    1    4    4    0    0  0.16518169470E+02  0.22771132836E+02  0.45538684286E+02  0.53527060258E+02  0.00000000000E+00 0.  1.
</event>
<event>
12    1  0.8453150E-002  0.2648779E+03  0.7818608E-02  0.1105772E+00
         21   -1    0    0  501  502  0.00000000000E+00  0.00000000000E+00  0.47744682608E+03  0.47744682608E+03  0.00000000000E+00 0. -1.
         21   -1    0    0  502  503 -0.00000000000E+00 -0.00000000000E+00 -0.14418478710E+03  0.14418478710E+03  0.00000000000E+00 0.  1.
         -6    2    1    2    0  503 -0.17305619869E+03 -0.71696798182E+02  0.20696140388E+03  0.32818285833E+03  0.17257487370E+03 0.  0.
        -24    2    3    3    0    0 -0.56850906073E+02 -0.29006463490E+02  0.16674024847E+03  0.19792938985E+03  0.85441983018E+02 0.  0.
          6    2    1    2  501    0  0.17305619869E+03  0.71696798182E+02  0.12630063511E+03  0.29344875485E+03  0.18727371017E+03 0.  0.
         24    2    5    5    0    0  0.77035247714E+02  0.94316205383E+02  0.17541988369E+02  0.14653996053E+03  0.79600645021E+02 0.  0.
          5    1    5    5  501    0  0.96020950975E+02 -0.22619407201E+02  0.10875864674E+03  0.14690879432E+03  0.47000000000E+01 0. -1.
        -13    1    6    6    0    0  0.38978040417E+02  0.35814750315E+02  0.46998543961E+02  0.70787337211E+02  0.00000000000E+00 0.  1.
         14    1    6    6    0    0  0.38057207297E+02  0.58501455068E+02 -0.29456555592E+02  0.75752623319E+02  0.00000000000E+00 0. -1.
         -5    1    3    3    0  503 -0.11620529262E+03 -0.42690334692E+02  0.40221155404E+02  0.13025346848E+03  0.47000000000E+01 0.  1.
         11    1    4    4    0    0 -0.21820179965E+02  0.27218899600E+02  0.90152339483E+02  0.96666607799E+02  0.00000000000E+00 0. -1.
        -12    1    4    4    0    0 -0.35030726108E+02 -0.56225363090E+02  0.76587908990E+02  0.10126278206E+03  0.00000000000E+00 0.  1.
</event>
<event>
12    1  0.8453150E-002  0.2429615E+03  0.7818608E-02  0.1118378E+00
         21   -1    0    0  503  502  0.00000000000E+00  0.00000000000E+00  0.73868689543E+02  0.73868689543E+02  0.00000000000E+00 0. -1.
         21   -1    0    0  501  503 -0.00000000000E+00 -0.00000000000E+00 -0.14954809349E+04  0.14954809349E+04  0.00000000000E+00 0. -1.
          6    2    1    2  501    0 -0.12558081428E+03 -0.11408020303E+03 -0.12529191607E+04  0.12762588714E+04  0.17391219039E+03 0.  0.
         24    2    3    3    0    0 -0.68803655791E+02  0.54128921634E+01 -0.68739971200E+03  0.69545203400E+03  0.79824338923E+02 0.  0.
         -6    2    1    2    0  502  0.12558081428E+03  0.11408020303E+03 -0.16869308463E+03  0.29309075300E+03  0.16929264324E+03 0.  0.
        -24    2    5    5    0    0  0.11414913516E+03  0.14175025234E+03 -0.11453616126E+03  0.23103128745E+03  0.84461615241E+02 0.  0.
          5    1    3    3  501    0 -0.56777158492E+02 -0.11949309519E+03 -0.56551944870E+03  0.58080683742E+03  0.47000000000E+01 0. -1.
        -11    1    4    4    0    0 -0.73188986037E+02 -0.20509040522E+02 -0.42544175102E+03  0.43217812523E+03  0.00000000000E+00 0.  1.
         12    1    4    4    0    0  0.43853302459E+01  0.25921932686E+02 -0.26195796098E+03  0.26327390876E+03  0.00000000000E+00 0. -1.
         -5    1    5    5    0  502  0.11431679122E+02 -0.27670049306E+02 -0.54156923369E+02  0.62059465555E+02  0.47000000000E+01 0.  1.
         11    1    6    6    0    0  0.10764497707E+03  0.75556341848E+02 -0.57997839142E+02  0.14373569921E+03  0.00000000000E+00 0. -1.
        -12    1    6    6    0    0  0.65041580883E+01  0.66193910488E+02 -0.56538322116E+02  0.87295588238E+02  0.00000000000E+00 0.  1.
</event>
<event>
12    1  0.8453150E-002  0.1832354E+03  0.7818608E-02  0.1165757E+00
         21   -1    0    0  501  502  0.00000000000E+00  0.00000000000E+00  0.21405653978E+04  0.21405653978E+04  0.00000000000E+00 0.  1.
         21   -1    0    0  502  503 -0.00000000000E+00 -0.00000000000E+00 -0.21504265983E+02  0.21504265983E+02  0.00000000000E+00 0. -1.
         -6    2    1    2    0  503 -0.29135580705E+02  0.41204317346E+02  0.16304531557E+04  0.16402335067E+04  0.17158608839E+03 0.  0.
        -24    2    3    3    0    0  0.12194937154E+02 -0.16265215152E+02  0.42651216459E+03  0.43420408793E+03  0.78786354848E+02 0.  0.
          6    2    1    2  501    0  0.29135580705E+02 -0.41204317346E+02  0.48860797612E+03  0.52183615709E+03  0.17614920575E+03 0.  0.
         24    2    5    5    0    0  0.42760325623E+02 -0.51508015265E+02  0.49257939402E+03  0.50367955981E+03  0.81099435724E+02 0.  0.
          5    1    5    5  501    0 -0.13624744918E+02  0.10303697918E+02 -0.39714178936E+01  0.18156597285E+02  0.47000000000E+01 0. -1.
        -13    1    6    6    0    0  0.53331784286E+02 -0.60300955735E+02  0.30010061166E+03  0.31071025345E+03  0.00000000000E+00 0.  1.
         14    1    6    6    0    0 -0.10571458664E+02  0.87929404705E+01  0.19247878235E+03  0.19296930636E+03  0.00000000000E+00 0. -1.
         -5    1    3    3    0  503 -0.41330517859E+02  0.57469532498E+02  0.12039409911E+04  0.12060294188E+04  0.47000000000E+01 0.  1.
         11    1    4    4    0    0 -0.11412436961E+02 -0.18498194749E+02  0.39038676397E+03  0.39099137127E+03  0.00000000000E+00 0. -1.
        -12    1    4    4    0    0  0.23607374115E+02  0.22329795977E+01  0.36125400623E+02  0.43212716654E+02  0.00000000000E+00 0.  1.
</event>
<event>
12    1  0.8453150E-002  0.1915908E+03  0.7818608E-02  0.1157500E+00
         21   -1    0    0  503  502  0.00000000000E+00  0.00000000000E+00  0.30128823353E+03  0.30128823353E+03  0.00000000000E+00 0. -1.
         21   -1    0    0  501  503 -0.00000000000E+00 -0.00000000000E+00 -0.12404802168E+03  0.12404802168E+03  0.00000000000E+00 0. -1.
          6    2    1    2  501    0  0.62354133906E+02 -0.48817885688E+02  0.12403400530E+03  0.22649479348E+03  0.17217500697E+03 0.  0.
         24    2    3    3    0    0 -0.40732808241E+02 -0.35183231724E+02  0.74910148497E+02  0.11139455570E+03  0.62451543056E+02 0.  0.
         -6    2    1    2    0  502 -0.62354133906E+02  0.48817885688E+02  0.53206206547E+02  0.19884146173E+03  0.17445859827E+03 0.  0.
        -24    2    5    5    0    0 -0.90131510486E+02  0.85138130638E+02  0.46554891371E+02  0.15239716352E+03  0.75401240492E+02 0.  0.
          5    1    3    3  501    0  0.10308694215E+03 -0.13634653964E+02  0.49123856808E+02  0.11510023778E+03  0.47000000000E+01 0. -1.
        -13    1    4    4    0    0 -0.17272955124E+02  0.86955097006E+01 -0.23689863780E+01  0.19482786354E+02  0.00000000000E+00 0.  1.
         14    1    4    4    0    0 -0.23459853117E+02 -0.43878741425E+02  0.77279134875E+02  0.91911769346E+02  0.00000000000E+00 0. -1.
         -5    1    5    5    0  502  0.27777376579E+02 -0.36320244950E+02  0.66513151762E+01  0.46444298212E+02  0.47000000000E+01 0.  1.
         13    1    6    6    0    0 -0.14883209349E+02 -0.97564434512E+01 -0.80690070008E+01  0.19539881866E+02  0.00000000000E+00 0. -1.
        -14    1    6    6    0    0 -0.75248301136E+02  0.94894574089E+02  0.54623898371E+02  0.13285728165E+03  0.00000000000E+00 0.  1.
</event>
<event>
12    1  0.8453150E-002  0.1930531E+03  0.7818608E-02  0.1155737E+00
         21   -1    0    0  501  502  0.00000000000E+00  0.00000000000E+00  0.29419178237E+02  0.29419178237E+02  0.00000000000E+00 0. -1.
         21   -1    0    0  502  503 -0.00000000000E+00 -0.00000000000E+00 -0.16737706521E+04  0.16737706521E+04  0.00000000000E+00 0. -1.
         -6    2    1    2    0  503  0.77466479139E+02 -0.37967064914E+02 -0.12420831741E+04  0.12569956185E+04  0.17269864012E+03 0.  0.
        -24    2    3    3    0    0  0.64853924226E+02  0.38695507392E+02 -0.57779325757E+03  0.58816125212E+03  0.79907673115E+02 0.  0.
          6    2    1    2  501    0 -0.77466479139E+02  0.37967064914E+02 -0.40226829977E+03  0.44619421178E+03  0.17270476605E+03 0.  0.
         24    2    5    5    0    0 -0.24879812744E+02 -0.20885500354E+02 -0.30309555146E+03  0.31936241005E+03  0.95237736398E+02 0.  0.
          5    1    5    5  501    0 -0.52586666395E+02  0.58852565268E+02 -0.99172748310E+02  0.12683180172E+03  0.47000000000E+01 0. -1.
        -11    1    6    6    0    0 -0.70280101777E+01  0.38202634109E+02 -0.11193875143E+03  0.11848678514E+03  0.00000000000E+00 0.  1.
         12    1    6    6    0    0 -0.17851802566E+02 -0.59088134464E+02 -0.19115680003E+03  0.20087562492E+03  0.00000000000E+00 0. -1.
         -5    1    3    3    0  503  0.12612554913E+02 -0.76662572306E+02 -0.66428991650E+03  0.66883436641E+03  0.47000000000E+01 0.  1.
         11    1    4    4    0    0  0.39293038962E+02  0.33998923336E+02 -0.13574724971E+03  0.14535193670E+03  0.00000000000E+00 0. -1.
        -12    1    4    4    0    0  0.25560885264E+02  0.46965840561E+01 -0.44204600786E+03  0.44280931542E+03  0.00000000000E+00 0.  1.
</event>
<event>
12    1  0.8453150E-002  0.1840386E+03  0.7818608E-02  0.1165375E+00
         21   -1    0    0  503  502  0.00000000000E+00  0.00000000000E+00  0.18749746622E+03  0.18749746622E+03  0.00000000000E+00 0. -1.
         21   -1    0    0  501  503 -0.00000000000E+00 -0.00000000000E+00 -0.17669915729E+03  0.17669915729E+03  0.00000000000E+00 0. -1.
          6    2    1    2  501    0  0.62614310799E+02 -0.19462620155E+02 -0.13152863378E+02  0.18450796825E+03  0.17196176038E+03 0.  0.
         24    2    3    3    0    0 -0.17483384716E+02  0.20298490396E+01  0.34557323320E+02  0.88716951061E+02  0.79791602204E+02 0.  0.
         -6    2    1    2    0  502 -0.62614310799E+02  0.19462620155E+02  0.23951172306E+02  0.17968865526E+03  0.16557478272E+03 0.  0.
        -24    2    5    5    0    0 -0.73145868942E+02 -0.40614043746E+02  0.29769032735E+02  0.11823902741E+03  0.78066981501E+02 0.  0.
          5    1    3    3  501    0  0.80097695515E+02 -0.21492469194E+02 -0.47710186698E+02  0.95791017187E+02  0.47000000000E+01 0. -1.
        -13    1    4    4    0    0  0.11547147347E+02  0.35376006490E+02  0.12118929751E+02  0.39136516265E+02  0.00000000000E+00 0.  1.
         14    1    4    4    0    0 -0.29030532063E+02 -0.33346157451E+02  0.22438393570E+02  0.49580434796E+02  0.00000000000E+00 0. -1.
         -5    1    5    5    0  502  0.10531558143E+02  0.60076663900E+02 -0.58178604291E+01  0.61449627845E+02  0.47000000000E+01 0.  1.
         13    1    6    6    0    0 -0.74678610446E+02 -0.19108188704E+01  0.26902406697E+02  0.79399531315E+02  0.00000000000E+00 0. -1.
        -14    1    6    6    0    0  0.15327415036E+01 -0.38703224875E+02  0.28666260380E+01  0.38839496097E+02  0.00000000000E+00 0.  1.
</event>
<event>
12    1  0.8453150E-002  0.2445811E+03  0.7818608E-02  0.1117284E+00
         21   -1    0    0  503  502  0.00000000000E+00  0.00000000000E+00  0.75372745041E+02  0.75372745041E+02  0.00000000000E+00 0. -1.
         21   -1    0    0  501  503 -0.00000000000E+00 -0.00000000000E+00 -0.10777410585E+04  0.10777410585E+04  0.00000000000E+00 0.  1.
          6    2    1    2  501    0 -0.21028443424E+02 -0.16838340196E+03 -0.80003952076E+03  0.83569161089E+03  0.17181987148E+03 0.  0.
         24    2    3    3    0    0 -0.53278349940E+02 -0.10455379986E+03 -0.69071351072E+03  0.70496846433E+03  0.78264309677E+02 0.  0.
         -6    2    1    2    0  502  0.21028443424E+02  0.16838340196E+03 -0.20232879273E+03  0.31742219269E+03  0.17613841874E+03 0.  0.
        -24    2    5    5    0    0  0.81778695449E+01  0.92709129476E+02 -0.26332601289E+02  0.12535844763E+03  0.79746311907E+02 0.  0.
          5    1    3    3  501    0  0.32249906516E+02 -0.63829602097E+02 -0.10932601004E+03  0.13072314656E+03  0.47000000000E+01 0. -1.
        -11    1    4    4    0    0 -0.36305141616E+02 -0.64174034940E+02 -0.59685846327E+03  0.60139537348E+03  0.00000000000E+00 0.  1.
         12    1    4    4    0    0 -0.16973208324E+02 -0.40379764919E+02 -0.93855047452E+02  0.10357309085E+03  0.00000000000E+00 0. -1.
         -5    1    5    5    0  502  0.12850573879E+02  0.75674272480E+02 -0.17599619144E+03  0.19206374506E+03  0.47000000000E+01 0.  1.
         11    1    6    6    0    0 -0.22639590524E+02  0.88613710071E+02 -0.18853298112E+02  0.93383015165E+02  0.00000000000E+00 0. -1.
        -12    1    6    6    0    0  0.30817460069E+02  0.40954194049E+01 -0.74793031769E+01  0.31975432463E+02  0.00000000000E+00 0.  1.
</event>
<event>
12    1  0.8453150E-002  0.1726548E+03  0.7818608E-02  0.1175775E+00
         21   -1    0    0  503  502  0.00000000000E+00  0.00000000000E+00  0.44219204320E+03  0.44219204320E+03  0.00000000000E+00 0.  1.
         21   -1    0    0  501  503 -0.00000000000E+00 -0.00000000000E+00 -0.68236540763E+02  0.68236540763E+02  0.00000000000E+00 0.  1.
          6    2    1    2  501    0  0.66668791975E+00  0.41777670766E+01  0.14378353644E+03  0.22269812739E+03  0.17000838915E+03 0.  0.
         24    2    3    3    0    0 -0.20935303555E+02 -0.90139441584E+01  0.16826149076E+03  0.18717450808E+03  0.78758041362E+02 0.  0.
         -6    2    1    2    0  502 -0.66668791975E+00 -0.41777670766E+01  0.23017196600E+03  0.28773045657E+03  0.17260296491E+03 0.  0.
        -24    2    5    5    0    0  0.47044557040E+02  0.32877561367E+02  0.82012338832E+02  0.12765914314E+03  0.79225682187E+02 0.  0.
          5    1    3    3  501    0  0.21601991475E+02  0.13191711235E+02 -0.24477954321E+02  0.35523619308E+02  0.47000000000E+01 0. -1.
        -11    1    4    4    0    0 -0.25530392998E+02  0.27115676662E+02  0.12597901802E+03  0.13136884664E+03  0.00000000000E+00 0.  1.
         12    1    4    4    0    0  0.45950894431E+01 -0.36129620821E+02  0.42282472744E+02  0.55805661442E+02  0.00000000000E+00 0. -1.
         -5    1    5    5    0  502 -0.47711244959E+02 -0.37055328443E+02  0.14815962716E+03  0.16007131343E+03  0.47000000000E+01 0.  1.
         13    1    6    6    0    0  0.45913324848E+02  0.57233286607E+02  0.63689472046E+02  0.97159823713E+02  0.00000000000E+00 0. -1.
        -14    1    6    6    0    0  0.11312321912E+01 -0.24355725240E+02  0.18322866786E+02  0.30499319427E+02  0.00000000000E+00 0.  1.
</event>
<event>
12    1  0.8453150E-002  0.1854020E+03  0.7818608E-02  0.1162833E+00
         21   -1    0    0  501  502  0.00000000000E+00  0.00000000000E+00  0.17838157751E+03  0.17838157751E+03  0.00000000000E+00 0.  1.
         21   -1    0    0  502  503 -0.00000000000E+00 -0.00000000000E+00 -0.34592830980E+03  0.34592830980E+03  0.00000000000E+00 0.  1.
         -6    2    1    2    0  503 -0.54316603094E+02  0.39472018642E+02 -0.25873309281E+03  0.31830289102E+03  0.17281661809E+03 0.  0.
        -24    2    3    3    0    0 -0.44319668826E+02  0.24566253076E+02 -0.27600049415E+03  0.29295779897E+03  0.84144312773E+02 0.  0.
          6    2    1    2  501    0  0.54316603094E+02 -0.39472018642E+02  0.91186360531E+02  0.20600699629E+03  0.17209182592E+03 0.  0.
         24    2    5    5    0    0  0.79113391120E+02  0.17147785107E+02  0.25299777974E+02  0.11554255779E+03  0.78466736302E+02 0.  0.
          5    1    5    5  501    0 -0.24796788026E+02 -0.56619803749E+02  0.65886582557E+02  0.90464438505E+02  0.47000000000E+01 0. -1.
        -13    1    6    6    0    0  0.63756945449E+02 -0.88013880861E+00  0.50219639069E+02  0.81164862383E+02  0.00000000000E+00 0.  1.
         14    1    6    6    0    0  0.15356445670E+02  0.18027923916E+02 -0.24919861095E+02  0.34377695405E+02  0.00000000000E+00 0. -1.
         -5    1    3    3    0  503 -0.99969342678E+01  0.14905765566E+02  0.17267401337E+02  0.25345092046E+02  0.47000000000E+01 0.  1.
         13    1    4    4    0    0 -0.24040116111E+02  0.29201352624E+02 -0.36525479072E+02  0.52580954719E+02  0.00000000000E+00 0. -1.
        -14    1    4    4    0    0 -0.20279552715E+02 -0.46350995485E+01 -0.23947501508E+03  0.24037684425E+03  0.00000000000E+00 0.  1.
</event>
<event>
12    1  0.8453150E-002  0.2150983E+03  0.7818608E-02  0.1138273E+00
         21   -1    0    0  501  502  0.00000000000E+00  0.00000000000E+00  0.17497581992E+04  0.17497581992E+04  0.00000000000E+00 0. -1.
         21   -1    0    0  502  503 -0.00000000000E+00 -0.00000000000E+00 -0.56444210302E+02  0.56444210302E+02  0.00000000000E+00 0. -1.
         -6    2    1    2    0  503  0.91331924738E+02  0.92054167656E+02  0.18031307056E+03  0.27798807935E+03  0.16717977924E+03 0.  0.
        -24    2    3    3    0    0  0.12272586763E+03  0.44385386149E+02  0.14546001874E+03  0.21094542426E+03  0.79420739586E+02 0.  0.
          6    2    1    2  501    0 -0.91331924738E+02 -0.92054167656E+02  0.15130009183E+04  0.15282143301E+04  0.17161517917E+03 0.  0.
         24    2    5    5    0    0 -0.82072648229E+02 -0.84852908474E+02  0.66485455462E+03  0.67997383558E+03  0.79980638992E+02 0.  0.
          5    1    5    5  501    0 -0.92592765090E+01 -0.72012591822E+01  0.84814636369E+03  0.84824049454E+03  0.47000000000E+01 0. -1.
        -11    1    6    6    0    0 -0.38544513042E+02 -0.34672747622E+02  0.11531005658E+03  0.12642898426E+03  0.00000000000E+00 0.  1.
         12    1    6    6    0    0 -0.43528135188E+02 -0.50180160852E+02  0.54954449804E+03  0.55354485132E+03  0.00000000000E+00 0. -1.
         -5    1    3    3    0  503 -0.31393942889E+02  0.47668781507E+02  0.34853051816E+02  0.67042655088E+02  0.47000000000E+01 0.  1.
         11    1    4    4    0    0  0.57045180679E+02  0.32805393803E+02  0.12486551147E+03  0.14114440285E+03  0.00000000000E+00 0. -1.
        -12    1    4    4    0    0  0.65680686948E+02  0.11579992347E+02  0.20594507276E+02  0.69801021415E+02  0.00000000000E+00 0.  1.
</event>
<event>
12    1  0.8453150E-002  0.1860487E+03  0.7818608E-02  0.1162590E+00
         21   -1    0    0  501  502  0.00000000000E+00  0.00000000000E+00  0.10192452446E+03  0.10192452446E+03  0.00000000000E+00 0.  1.
         21   -1    0    0  502  503 -0.00000000000E+00 -0.00000000000E+00 -0.71432755034E+03  0.71432755034E+03  0.00000000000E+00 0.  1.
         -6    2    1    2    0  503 -0.13102597081E+02  0.65922114063E+02 -0.60251867688E+03  0.62994094870E+03  0.17111235980E+03 0.  0.
        -24    2    3    3    0    0 -0.10271299721E+02  0.49965016211E+02 -0.60536510845E+03  0.61282845650E+03  0.80559295679E+02 0.  0.
          6    2    1    2  501    0  0.13102597081E+02 -0.65922114063E+02 -0.98843489954E+01  0.18631112610E+03  0.17348409778E+03 0.  0.
         24    2    5    5    0    0  0.22883018864E+02  0.13813984089E+02 -0.48933157904E+02  0.96866162714E+02  0.79209474356E+02 0.  0.
          5    1    5    5  501    0 -0.97804217827E+01 -0.79736098152E+02  0.39048808909E+02  0.89444963391E+02  0.47000000000E+01 0. -1.
        -13    1    6    6    0    0  0.29681350246E+02  0.58260051353E+01  0.13810768309E+02  0.33251499357E+02  0.00000000000E+00 0.  1.
         14    1    6    6    0    0 -0.67983313816E+01  0.79879789538E+01 -0.62743926213E+02  0.63614663357E+02  0.00000000000E+00 0. -1.
         -5    1    3    3    0  503 -0.28312973600E+01  0.15957097852E+02  0.28464315653E+01  0.17112492199E+02  0.47000000000E+01 0.  1.
         11    1    4    4    0    0  0.47833859608E+01 -0.18316885230E+02 -0.57902391924E+02  0.60918601890E+02  0.00000000000E+00 0. -1.
        -12    1    4    4    0    0 -0.15054685682E+02  0.68281901441E+02 -0.54746271653E+03  0.55190985461E+03  0.00000000000E+00 0.  1.
</event>
<event>
12    1  0.8453150E-002  0.2296637E+03  0.7818608E-02  0.1126896E+00
         21   -1    0    0  501  502  0.00000000000E+00  0.00000000000E+00  0.64473668132E+03  0.64473668132E+03  0.00000000000E+00 0. -1.
         21   -1    0    0  502  503 -0.00000000000E+00 -0.00000000000E+00 -0.98304795538E+02  0.98304795538E+02  0.00000000000E+00 0.  1.
         -6    2    1    2    0  503 -0.14188296173E+03  0.55799374617E+02  0.12078960993E+03  0.25939203872E+03  0.17160930875E+03 0.  0.
        -24    2    3    3    0    0 -0.10333112408E+03  0.95051249055E+02  0.12481940575E+03  0.20402703996E+03  0.79593264998E+02 0.  0.
          6    2    1    2  501    0  0.14188296173E+03 -0.55799374617E+02  0.42564227586E+03  0.48364943814E+03  0.17175880467E+03 0.  0.
         24    2    5    5    0    0  0.15185743442E+03 -0.66843036225E+02  0.26903610538E+03  0.32626762471E+03  0.80879324030E+02 0.  0.
          5    1    5    5  501    0 -0.99744726910E+01  0.11043661608E+02  0.15660617048E+03  0.15738181344E+03  0.47000000000E+01 0. -1.
        -11    1    6    6    0    0  0.14336585132E+02  0.17820145639E+02  0.28389518758E+02  0.36456275717E+02  0.00000000000E+00 0.  1.
         12    1    6    6    0    0  0.13752084929E+03 -0.84663181865E+02  0.24064658662E+03  0.28981134899E+03  0.00000000000E+00 0. -1.
         -5    1    3    3    0  503 -0.38551837648E+02 -0.39251874438E+02 -0.40297958262E+01  0.55364998757E+02  0.47000000000E+01 0.  1.
         11    1    4    4    0    0 -0.77682440311E+01  0.41873915692E+02  0.69397010295E+02  0.81423064721E+02  0.00000000000E+00 0. -1.
        -12    1    4    4    0    0 -0.95562880048E+02  0.53177333363E+02  0.55422395458E+02  0.12260397524E+03  0.00000000000E+00 0.  1.
</event>
<event>
12    1  0.8453150E-002  0.2053659E+03  0.7818608E-02  0.1145306E+00
         21   -1    0    0  501  502  0.00000000000E+00  0.00000000000E+00  0.68012941702E+03  0.68012941702E+03  0.00000000000E+00 0. -1.
         21   -1    0    0  502  503 -0.00000000000E+00 -0.00000000000E+00 -0.66964756993E+02  0.66964756993E+02  0.00000000000E+00 0. -1.
         -6    2    1    2    0  503 -0.68205376685E+02  0.88948317695E+02  0.20478467275E+03  0.29002052969E+03  0.17207954212E+03 0.  0.
        -24    2    3    3    0    0  0.74655572008E+01  0.67592872478E+02  0.17826129836E+03  0.20690780705E+03  0.80057599074E+02 0.  0.
          6    2    1    2  501    0  0.68205376685E+02 -0.88948317695E+02  0.40837998727E+03  0.45707364432E+03  0.17198350416E+03 0.  0.
         24    2    5    5    0    0 -0.11063733124E+02 -0.52036936583E+02  0.10611722241E+03  0.14238187315E+03  0.78622413785E+02 0.  0.
          5    1    5    5  501    0  0.79269109808E+02 -0.36911381112E+02  0.30226276486E+03  0.31469177118E+03  0.47000000000E+01 0. -1.
        -13    1    6    6    0    0  0.66330351104E+00 -0.69760016365E+02  0.61661342746E+02  0.93107577801E+02  0.00000000000E+00 0.  1.
         14    1    6    6    0    0 -0.11727036635E+02  0.17723079782E+02  0.44455879664E+02  0.49274295346E+02  0.00000000000E+00 0. -1.
         -5    1    3    3    0  503 -0.75670933885E+02  0.21355445217E+02  0.26523374394E+02  0.83112722641E+02  0.47000000000E+01 0.  1.
         13    1    4    4    0    0 -0.30481702326E+01  0.32617446138E+02  0.93136465974E+01  0.34057791286E+02  0.00000000000E+00 0. -1.
        -14    1    4    4    0    0  0.10513727433E+02  0.34975426340E+02  0.16894765176E+03  0.17285001576E+03  0.00000000000E+00 0.  1.
</event>
<event>
12    1  0.8453150E-002  0.2393548E+03  0.7818608E-02  0.1120529E+00
         21   -1    0    0  501  502  0.00000000000E+00  0.00000000000E+00  0.52611399042E+03  0.52611399042E+03  0.00000000000E+00 0.  1.
         21   -1    0    0  502  503 -0.00000000000E+00 -0.00000000000E+00 -0.28732340887E+03  0.28732340887E+03  0.00000000000E+00 0.  1.
         -6    2    1    2    0  503  0.98990900634E+01 -0.16401720803E+03 -0.20168488773E+03  0.31299762144E+03  0.17404332959E+03 0.  0.
        -24    2    3    3    0    0 -0.33726078838E+02 -0.11441825807E+03 -0.56981128641E+02  0.15386095347E+03  0.78723299008E+02 0.  0.
          6    2    1    2  501    0 -0.98990900634E+01  0.16401720803E+03  0.44047546928E+03  0.50043977785E+03  0.17152753628E+03 0.  0.
         24    2    5    5    0    0  0.82064005795E+01  0.70413616913E+02  0.36006195127E+03  0.37562846049E+03  0.80166758207E+02 0.  0.
          5    1    5    5  501    0 -0.18105490643E+02  0.93603591121E+02  0.80413518014E+02  0.12481131736E+03  0.47000000000E+01 0. -1.
        -11    1    6    6    0    0 -0.25200662988E+02  0.67279982243E+02  0.27383998447E+03  0.28310776486E+03  0.00000000000E+00 0.  1.
         12    1    6    6    0    0  0.33407063567E+02  0.31336346694E+01  0.86221966795E+02  0.92520695633E+02  0.00000000000E+00 0. -1.
         -5    1    3    3    0  503  0.43625168901E+02 -0.49598949959E+02 -0.14470375909E+03  0.15913666798E+03  0.47000000000E+01 0.  1.
         13    1    4    4    0    0  0.20421778837E+02 -0.58039819536E+02 -0.91124792493E+01  0.62198930703E+02  0.00000000000E+00 0. -1.
        -14    1    4    4    0    0 -0.54147857675E+02 -0.56378438538E+02 -0.47868649391E+02  0.91662022765E+02  0.00000000000E+00 0.  1.
</event>
<event>
12    1  0.8453150E-002  0.2033107E+03  0.7818608E-02  0.1147393E+00
         21   -1    0    0  501  502  0.00000000000E+00  0.00000000000E+00  0.10409140506E+03  0.10409140506E+03  0.00000000000E+00 0. -1.
         21   -1    0    0  502  503 -0.00000000000E+00 -0.00000000000E+00 -0.43033938293E+03  0.43033938293E+03  0.00000000000E+00 0.  1.
         -6    2    1    2    0  503  0.35144364891E+02 -0.99058617287E+02 -0.24090097442E+03  0.31393281373E+03  0.17167642826E+03 0.  0.
        -24    2    3    3    0    0  0.74008158081E+02 -0.25326842285E+02 -0.93023564887E+02  0.14411942405E+03  0.77449134029E+02 0.  0.
          6    2    1    2  501    0 -0.35144364891E+02  0.99058617287E+02 -0.85347003461E+02  0.22049797426E+03  0.17403307045E+03 0.  0.
         24    2    5    5    0    0 -0.57351174283E+02  0.12198320681E+03 -0.34326411135E+02  0.16013349770E+03  0.79343397013E+02 0.  0.
          5    1    5    5  501    0  0.22206809392E+02 -0.22924589525E+02 -0.51020592326E+02  0.60364476554E+02  0.47000000000E+01 0. -1.
        -11    1    6    6    0    0 -0.29582418283E+01  0.34476252363E+02 -0.44756099468E+02  0.56572710835E+02  0.00000000000E+00 0.  1.
         12    1    6    6    0    0 -0.54392932454E+02  0.87506954450E+02  0.10429688333E+02  0.10356078687E+03  0.00000000000E+00 0. -1.
         -5    1    3    3    0  503 -0.38863793190E+02 -0.73731775002E+02 -0.14787740953E+03  0.16981338968E+03  0.47000000000E+01 0.  1.
         11    1    4    4    0    0  0.41389207730E+02 -0.49723627056E+02 -0.35986203433E+02  0.74030483192E+02  0.00000000000E+00 0. -1.
        -12    1    4    4    0    0  0.32618950351E+02  0.24396784770E+02 -0.57037361455E+02  0.70088940860E+02  0.00000000000E+00 0.  1.
</event>
<event>
12    1  0.8453150E-002  0.1990669E+03  0.7818608E-02  0.1150601E+00
         21   -1    0    0  503  502  0.00000000000E+00  0.00000000000E+00  0.46670252284E+02  0.46670252284E+02  0.00000000000E+00 0.  1.
         21   -1    0    0  501  503 -0.00000000000E+00 -0.00000000000E+00 -0.17557096873E+04  0.17557096873E+04  0.00000000000E+00 0.  1.
          6    2    1    2  501    0  0.34482720505E+02  0.94012338150E+02 -0.15029793080E+04  0.15161050189E+04  0.17204723261E+03 0.  0.
         24    2    3    3    0    0  0.19545847599E+02  0.29565672986E+01 -0.10798574247E+04  0.10830132483E+04  0.80217560144E+02 0.  0.
         -6    2    1    2    0  502 -0.34482720505E+02 -0.94012338150E+02 -0.20606012695E+03  0.28627492065E+03  0.17165423541E+03 0.  0.
        -24    2    5    5    0    0 -0.59373577484E+01 -0.38021449432E+02 -0.20449716843E+03  0.22323247309E+03  0.80825505343E+02 0.  0.
          5    1    3    3  501    0  0.14936872905E+02  0.91055770851E+02 -0.42312188332E+03  0.43309177055E+03  0.47000000000E+01 0. -1.
        -13    1    4    4    0    0  0.45434049008E+02 -0.99074154518E+01 -0.42874720038E+03  0.43126160451E+03  0.00000000000E+00 0.  1.
         14    1    4    4    0    0 -0.25888201409E+02  0.12863982750E+02 -0.65111022431E+03  0.65175164383E+03  0.00000000000E+00 0. -1.
         -5    1    5    5    0  502 -0.28545362756E+02 -0.55990888718E+02 -0.15629585263E+01  0.63042447555E+02  0.47000000000E+01 0.  1.
         13    1    6    6    0    0 -0.25607686483E+02  0.93941933279E+01 -0.12955167613E+03  0.13239199848E+03  0.00000000000E+00 0. -1.
        -14    1    6    6    0    0  0.19670328734E+02 -0.47415642759E+02 -0.74945492301E+02  0.90840474608E+02  0.00000000000E+00 0.  1.
</event>
<event>
12    1  0.8453150E-002  0.1831970E+03  0.7818608E-02  0.1165359E+00
         21   -1    0    0  503  502  0.00000000000E+00  0.00000000000E+00  0.44040363517E+03  0.44040363517E+03  0.00000000000E+00 0. -1.
         21   -1    0    0  501  503 -0.00000000000E+00 -0.00000000000E+00 -0.10139223317E+03  0.10139223317E+03  0.00000000000E+00 0. -1.
          6    2    1    2  501    0  0.24930839569E+02  0.56163300061E+02  0.30763907674E+02  0.18321857590E+03  0.16984335578E+03 0.  0.
         24    2    3    3    0    0  0.54234759946E+02 -0.14398114463E+02  0.42494619233E+02  0.10577612912E+03  0.78956202676E+02 0.  0.
         -6    2    1    2    0  502 -0.24930839569E+02 -0.56163300061E+02  0.30824749433E+03  0.35857729245E+03  0.17258416457E+03 0.  0.
        -24    2    5    5    0    0  0.22734852087E+02 -0.32420507317E+01  0.60412112283E+02  0.10066811582E+03  0.77182004643E+02 0.  0.
          5    1    3    3  501    0 -0.29303920377E+02  0.70561414524E+02 -0.11730711559E+02  0.77442446777E+02  0.47000000000E+01 0. -1.
        -13    1    4    4    0    0  0.52487641331E+02 -0.34910260560E+02  0.52937495187E+01  0.63259011760E+02  0.00000000000E+00 0.  1.
         14    1    4    4    0    0  0.17471186149E+01  0.20512146098E+02  0.37200869714E+02  0.42517117359E+02  0.00000000000E+00 0. -1.
         -5    1    5    5    0  502 -0.47665691655E+02 -0.52921249329E+02  0.24783538205E+03  0.25790917662E+03  0.47000000000E+01 0.  1.
         13    1    6    6    0    0 -0.20566409958E+01 -0.37035620451E+02  0.38152579319E+02  0.53211711710E+02  0.00000000000E+00 0. -1.
        -14    1    6    6    0    0  0.24791493083E+02  0.33793569720E+02  0.22259532964E+02  0.47456404114E+02  0.00000000000E+00 0.  1.
</event>
<event>
12    1  0.8453150E-002  0.2120738E+03  0.7818608E-02  0.1140204E+00
         21   -1    0    0  503  502  0.00000000000E+00  0.00000000000E+00  0.24724676657E+03  0.24724676657E+03  0.00000000000E+00 0.  1.
         21   -1    0    0  501  503 -0.00000000000E+00 -0.00000000000E+00 -0.29302441373E+03  0.29302441373E+03  0.00000000000E+00 0.  1.
          6    2    1    2  501    0  0.76555504676E+02 -0.96624171441E+02 -0.19007236880E+03  0.28376338367E+03  0.17087181373E+03 0.  0.
         24    2    3    3    0    0  0.69727318011E+02 -0.89669859305E+02 -0.21581122829E+03  0.25584268386E+03  0.77320179042E+02 0.  0.
         -6    2    1    2    0  502 -0.76555504676E+02  0.96624171441E+02  0.14429472164E+03  0.25650779662E+03  0.17256392215E+03 0.  0.
        -24    2    5    5    0    0 -0.17555986092E+02  0.11196367190E+03  0.13631042372E+03  0.19484676775E+03  0.80874314924E+02 0.  0.
          5    1    3    3  501    0  0.68281866647E+01 -0.69543121365E+01  0.25738859483E+02  0.27920699810E+02  0.47000000000E+01 0. -1.
        -13    1    4    4    0    0  0.34000958419E+02 -0.94876542700E+02 -0.16831048938E+03  0.19617860323E+03  0.00000000000E+00 0.  1.
         14    1    4    4    0    0  0.35726359592E+02  0.52066833956E+01 -0.47500738905E+02  0.59664080637E+02  0.00000000000E+00 0. -1.
         -5    1    5    5    0  502 -0.58999518584E+02 -0.15339500463E+02  0.79842979211E+01  0.61661028867E+02  0.47000000000E+01 0.  1.
         13    1    6    6    0    0  0.65928010954E+01  0.50503742344E+02  0.94108556586E+01  0.51794374417E+02  0.00000000000E+00 0. -1.
        -14    1    6    6    0    0 -0.24148787188E+02  0.61459929560E+02  0.12689956806E+03  0.14305239334E+03  0.00000000000E+00 0.  1.
</event>
<event>
12    1  0.8453150E-002  0.2047285E+03  0.7818608E-02  0.1146104E+00
         21   -1    0    0  501  502  0.00000000000E+00  0.00000000000E+00  0.30260561839E+03  0.30260561839E+03  0.00000000000E+00 0.  1.
         21   -1    0    0  502  503 -0.00000000000E+00 -0.00000000000E+00 -0.19837019392E+03  0.19837019392E+03  0.00000000000E+00 0. -1.
         -6    2    1    2    0  503 -0.57838885731E+02 -0.92184927024E+02 -0.86461479945E+02  0.22223713037E+03  0.17340806535E+03 0.  0.
        -24    2    3    3    0    0 -0.62075358336E+02 -0.82381655619E+02 -0.12560052424E+03  0.18139589363E+03  0.80553654429E+02 0.  0.
          6    2    1    2  501    0  0.57838885731E+02  0.92184927024E+02  0.19069690442E+03  0.27873868194E+03  0.17171646974E+03 0.  0.
         24    2    5    5    0    0  0.34495431919E+02  0.12660253323E+03  0.18631032485E+03  0.23665756345E+03  0.63852399705E+02 0.  0.
          5    1    5    5  501    0  0.23343453812E+02 -0.34417606207E+02  0.43865795668E+01  0.42081118488E+02  0.47000000000E+01 0. -1.
        -13    1    6    6    0    0  0.53204010614E+02  0.99888939396E+02  0.14887134584E+03  0.18700573406E+03  0.00000000000E+00 0.  1.
         14    1    6    6    0    0 -0.18708578695E+02  0.26713593835E+02  0.37438979010E+02  0.49651829389E+02  0.00000000000E+00 0. -1.
         -5    1    3    3    0  503  0.42364726051E+01 -0.98032714046E+01  0.39139044292E+02  0.40841236740E+02  0.47000000000E+01 0.  1.
         11    1    4    4    0    0 -0.81782714496E+01  0.16412776487E+02 -0.17461555454E+02  0.25321320558E+02  0.00000000000E+00 0. -1.
        -12    1    4    4    0    0 -0.53897086886E+02 -0.98794432107E+02 -0.10813896878E+03  0.15607457307E+03  0.00000000000E+00 0.  1.
</event>
<event>
12    1  0.8453150E-002  0.1942712E+03  0.7818608E-02  0.1154699E+00
         21   -1    0    0  503  502  0.00000000000E+00  0.00000000000E+00  0.83552071250E+02  0.83552071250E+02  0.00000000000E+00 0.  1.
         21   -1    0    0  501  503 -0.00000000000E+00 -0.00000000000E+00 -0.45136243420E+03  0.45136243420E+03  0.00000000000E+00 0.  1.
          6    2    1    2  501    0 -0.81953462934E+02  0.39220069983E+02 -0.18213233409E+03  0.26618112272E+03  0.17153897223E+03 0.  0.
         24    2    3    3    0    0 -0.30951286741E+02  0.28158857614E+02 -0.16212145378E+02  0.92183503719E+02  0.80523669111E+02 0.  0.
         -6    2    1    2    0  502  0.81953462934E+02 -0.39220069983E+02 -0.18567802887E+03  0.26873338274E+03  0.17171696660E+03 0.  0.
        -24    2    5    5    0    0 -0.23401927113E+02 -0.18430401521E+02 -0.62228551273E+02  0.10504516677E+03  0.79213411594E+02 0.  0.
          5    1    3    3  501    0 -0.51002176192E+02  0.11061212369E+02 -0.16592018871E+03  0.17399761900E+03  0.47000000000E+01 0. -1.
        -11    1    4    4    0    0  0.75626169410E+01  0.27823409540E+01 -0.39640834788E+02  0.40451580672E+02  0.00000000000E+00 0.  1.
         12    1    4    4    0    0 -0.38513903682E+02  0.25376516660E+02  0.23428689411E+02  0.51731923047E+02  0.00000000000E+00 0. -1.
         -5    1    5    5    0  502  0.10535539005E+03 -0.20789668462E+02 -0.12344947759E+03  0.16368821596E+03  0.47000000000E+01 0.  1.
         11    1    6    6    0    0  0.11074205682E+02 -0.28537194482E+02 -0.61969176573E+02  0.69117207305E+02  0.00000000000E+00 0. -1.
        -12    1    6    6    0    0 -0.34476132795E+02  0.10106792961E+02 -0.25937469955E+00  0.35927959470E+02  0.00000000000E+00 0.  1.
</event>
<event>
12    1  0.8453150E-002  0.3515212E+03  0.7818608E-02  0.1062017E+00
         21   -1    0    0  503  502  0.00000000000E+00  0.00000000000E+00  0.24924386105E+03  0.24924386105E+03  0.00000000000E+00 0.  1.
         21   -1    0    0  501  503 -0.00000000000E+00 -0.00000000000E+00 -0.56880128132E+03  0.56880128132E+03  0.00000000000E+00 0. -1.
          6    2    1    2  501    0  0.15213147308E+03 -0.26643022126E+03 -0.30673504838E+03  0.46653355511E+03  0.17157540686E+03 0.  0.
         24    2    3    3    0    0  0.12894567534E+03 -0.18343823259E+03 -0.29539160998E+03  0.37949324838E+03  0.80513042152E+02 0.  0.
         -6    2    1    2    0  502 -0.15213147308E+03  0.26643022126E+03 -0.12822371889E+02  0.35151158726E+03  0.17107581609E+03 0.  0.
        -24    2    5    5    0    0 -0.10096831924E+03  0.22553827103E+03 -0.64067347197E+02  0.26821718529E+03  0.82302614287E+02 0.  0.
          5    1    3    3  501    0  0.23185797745E+02 -0.82991988680E+02 -0.11343438396E+02  0.87040306736E+02  0.47000000000E+01 0. -1.
        -11    1    4    4    0    0  0.88688341675E+02 -0.10951317801E+03 -0.12056746968E+03  0.18545962594E+03  0.00000000000E+00 0.  1.
         12    1    4    4    0    0  0.40257333663E+02 -0.73925054573E+02 -0.17482414029E+03  0.19403362244E+03  0.00000000000E+00 0. -1.
         -5    1    5    5    0  502 -0.51163153841E+02  0.40891950235E+02  0.51244975309E+02  0.83294401969E+02  0.47000000000E+01 0.  1.
         13    1    6    6    0    0 -0.30461264028E+02  0.11426329476E+03 -0.68028799716E+02  0.13642546216E+03  0.00000000000E+00 0. -1.
        -14    1    6    6    0    0 -0.70507055214E+02  0.11127497627E+03  0.39614525186E+01  0.13179172313E+03  0.00000000000E+00 0.  1.
</event>
<event>
12    1  0.8453150E-002  0.1821465E+03  0.7818608E-02  0.1166010E+00
         21   -1    0    0  503  502  0.00000000000E+00  0.00000000000E+00  0.81417338567E+02  0.81417338567E+02  0.00000000000E+00 0.  1.
         21   -1    0    0  501  503 -0.00000000000E+00 -0.00000000000E+00 -0.33371703821E+04  0.33371703821E+04  0.00000000000E+00 0.  1.
          6    2    1    2  501    0  0.20381638361E+01  0.55174204189E+02 -0.32307080484E+04  0.32358386588E+04  0.17357702932E+03 0.  0.
         24    2    3    3    0    0  0.37312465008E+02  0.28026883427E+02 -0.29144861423E+04  0.29164648383E+04  0.96746850770E+02 0.  0.
         -6    2    1    2    0  502 -0.20381638361E+01 -0.55174204189E+02 -0.25044995157E+02  0.18274906185E+03  0.17239959660E+03 0.  0.
        -24    2    5    5    0    0 -0.49512388733E+02 -0.32112513280E+02  0.33281340605E+02  0.10394744347E+03  0.78833579290E+02 0.  0.
          5    1    3    3  501    0 -0.35274301172E+02  0.27147320763E+02 -0.31622190608E+03  0.31937382051E+03  0.47000000000E+01 0. -1.
        -13    1    4    4    0    0 -0.12624045262E+02  0.82403600198E+01 -0.21665416600E+04  0.21665941093E+04  0.00000000000E+00 0.  1.
         14    1    4    4    0    0  0.49936510270E+02  0.19786523407E+02 -0.74794448232E+03  0.74987072899E+03  0.00000000000E+00 0. -1.
         -5    1    5    5    0  502  0.47474224897E+02 -0.23061690909E+02 -0.58326335762E+02  0.78801618388E+02  0.47000000000E+01 0.  1.
         13    1    6    6    0    0 -0.37953797247E+02  0.11943958971E+02 -0.10095645880E+02  0.41049615675E+02  0.00000000000E+00 0. -1.
        -14    1    6    6    0    0 -0.11558591486E+02 -0.44056472252E+02  0.43376986484E+02  0.62897827791E+02  0.00000000000E+00 0.  1.
</event>
<event>
12    1  0.8453150E-002  0.2063245E+03  0.7818608E-02  0.1144589E+00
         21   -1    0    0  503  502  0.00000000000E+00  0.00000000000E+00  0.47903367989E+03  0.47903367989E+03  0.00000000000E+00 0. -1.
         21   -1    0    0  501  503 -0.00000000000E+00 -0.00000000000E+00 -0.90646793285E+02  0.90646793285E+02  0.00000000000E+00 0. -1.
          6    2    1    2  501    0 -0.40558994841E+02  0.10854989109E+03  0.15225454350E+03  0.25610704958E+03  0.17023884371E+03 0.  0.
         24    2    3    3    0    0  0.29249783784E+01  0.19795064247E+02  0.13075566877E+03  0.15485209005E+03  0.80509159781E+02 0.  0.
         -6    2    1    2    0  502  0.40558994841E+02 -0.10854989109E+03  0.23613234310E+03  0.31357342359E+03  0.17070939519E+03 0.  0.
        -24    2    5    5    0    0 -0.25925999279E+02 -0.59186213917E+01  0.83973533249E+02  0.11830994677E+03  0.78984186400E+02 0.  0.
          5    1    3    3  501    0 -0.43483973219E+02  0.88754826846E+02  0.21498874727E+02  0.10125495953E+03  0.47000000000E+01 0. -1.
        -13    1    4    4    0    0 -0.96866876297E+01 -0.28558268147E+02  0.30820828437E+02  0.43119949703E+02  0.00000000000E+00 0.  1.
         14    1    4    4    0    0  0.12611666008E+02  0.48353332394E+02  0.99934840334E+02  0.11173214034E+03  0.00000000000E+00 0. -1.
         -5    1    5    5    0  502  0.66484994120E+02 -0.10263126970E+03  0.15215880985E+03  0.19526347682E+03  0.47000000000E+01 0.  1.
         11    1    6    6    0    0 -0.33138959770E+02 -0.64898298247E+01 -0.25678017469E+00  0.33769431175E+02  0.00000000000E+00 0. -1.
        -12    1    6    6    0    0  0.72129604916E+01  0.57120843303E+00  0.84230313423E+02  0.84540515598E+02  0.00000000000E+00 0.  1.
</event>
<event>
12    1  0.8453150E-002  0.2064754E+03  0.7818608E-02  0.1144450E+00
         21   -1    0    0  503  502  0.00000000000E+00  0.00000000000E+00  0.78148267502E+03  0.78148267502E+03  0.00000000000E+00 0. -1.
         21   -1    0    0  501  503 -0.00000000000E+00 -0.00000000000E+00 -0.54907838164E+02  0.54907838164E+02  0.00000000000E+00 0.  1.
          6    2    1    2  501    0 -0.42848332205E+02 -0.10633448431E+03  0.32628977025E+03  0.38613093935E+03  0.17172386562E+03 0.  0.
         24    2    3    3    0    0 -0.85218951964E+02 -0.85427697754E+02  0.17464126479E+03  0.22722303409E+03  0.81059080538E+02 0.  0.
         -6    2    1    2    0  502  0.42848332205E+02  0.10633448431E+03  0.40028506660E+03  0.45025957383E+03  0.17135503249E+03 0.  0.
        -24    2    5    5    0    0  0.39645345451E+02  0.78063834160E+02  0.40406162721E+03  0.42117622475E+03  0.80361048350E+02 0.  0.
          5    1    3    3  501    0  0.42370619759E+02 -0.20906786554E+02  0.15164850546E+03  0.15890790525E+03  0.47000000000E+01 0. -1.
        -13    1    4    4    0    0 -0.45124014964E+02 -0.41669375963E+02  0.25130116358E+02  0.66362914100E+02  0.00000000000E+00 0.  1.
         14    1    4    4    0    0 -0.40094937000E+02 -0.43758321792E+02  0.14951114843E+03  0.16086011999E+03  0.00000000000E+00 0. -1.
         -5    1    5    5    0  502  0.32029867536E+01  0.28270650149E+02 -0.37765606088E+01  0.29083349085E+02  0.47000000000E+01 0.  1.
         11    1    6    6    0    0 -0.20050769476E+01  0.45722248014E+02  0.30984097934E+03  0.31320277262E+03  0.00000000000E+00 0. -1.
        -12    1    6    6    0    0  0.41650422399E+02  0.32341586146E+02  0.94220647869E+02  0.10797345213E+03  0.00000000000E+00 0.  1.
</event>
<event>
12    1  0.8453150E-002  0.1811747E+03  0.7818608E-02  0.1166741E+00
         21   -1    0    0  503  502  0.00000000000E+00  0.00000000000E+00  0.18626610151E+03  0.18626610151E+03  0.00000000000E+00 0.  1.
         21   -1    0    0  501  503 -0.00000000000E+00 -0.00000000000E+00 -0.19370678903E+03  0.19370678903E+03  0.00000000000E+00 0.  1.
          6    2    1    2  501    0 -0.40066224958E+02 -0.41315085358E+02 -0.61262480086E+02  0.19125211860E+03  0.17179069457E+03 0.  0.
         24    2    3    3    0    0 -0.51407839202E+02  0.17217704570E+02  0.10155578289E+02  0.98099830527E+02  0.81124753910E+02 0.  0.
         -6    2    1    2    0  502  0.40066224958E+02  0.41315085358E+02  0.53821792574E+02  0.18872077195E+03  0.17148325209E+03 0.  0.
        -24    2    5    5    0    0  0.53075495562E+02 -0.17789910874E+02  0.70330763500E+02  0.12581387390E+03  0.88029684834E+02 0.  0.
          5    1    3    3  501    0  0.11341614244E+02 -0.58532789928E+02 -0.71418058375E+02  0.93152288069E+02  0.47000000000E+01 0. -1.
        -11    1    4    4    0    0 -0.70528094887E+02 -0.73910233585E+00  0.12985138090E+02  0.71717307896E+02  0.00000000000E+00 0.  1.
         12    1    4    4    0    0  0.19120255685E+02  0.17956806906E+02 -0.28295598014E+01  0.26382522631E+02  0.00000000000E+00 0. -1.
         -5    1    5    5    0  502 -0.13009270604E+02  0.59104996232E+02 -0.16508970927E+02  0.62906898050E+02  0.47000000000E+01 0.  1.
         11    1    6    6    0    0  0.19152733061E+02 -0.48825555494E+02  0.16416584757E+02  0.54956949589E+02  0.00000000000E+00 0. -1.
        -12    1    6    6    0    0  0.33922762502E+02  0.31035644620E+02  0.53914178743E+02  0.70856924307E+02  0.00000000000E+00 0.  1.
</event>
<event>
12    1  0.8453150E-002  0.3439348E+03  0.7818608E-02  0.1065204E+00
         21   -1    0    0  501  502  0.00000000000E+00  0.00000000000E+00  0.51263149523E+03  0.51263149523E+03  0.00000000000E+00 0.  1.
         21   -1    0    0  502  503 -0.00000000000E+00 -0.00000000000E+00 -0.27122475998E+03  0.27122475998E+03  0.00000000000E+00 0. -1.
         -6    2    1    2    0  503 -0.12998792264E+03  0.26669608104E+03 -0.31442469172E+02  0.34536906356E+03  0.17397557737E+03 0.  0.
        -24    2    3    3    0    0 -0.11316482812E+03  0.23306015106E+03  0.31338718776E+02  0.27203448880E+03  0.76794110895E+02 0.  0.
          6    2    1    2  501    0  0.12998792264E+03 -0.26669608104E+03  0.27284920443E+03  0.43848719165E+03  0.17262870332E+03 0.  0.
         24    2    5    5    0    0  0.12626645953E+03 -0.20453807418E+03  0.27803845206E+03  0.37582551759E+03  0.78488191834E+02 0.  0.
          5    1    5    5  501    0  0.37214631136E+01 -0.62158006866E+02 -0.51892476345E+01  0.62661674062E+02  0.47000000000E+01 0. -1.
        -11    1    6    6    0    0  0.10240158087E+03 -0.96363638739E+02  0.13521046026E+03  0.19507409669E+03  0.00000000000E+00 0.  1.
         12    1    6    6    0    0  0.23864878661E+02 -0.10817443544E+03  0.14282799180E+03  0.18075142090E+03  0.00000000000E+00 0. -1.
         -5    1    3    3    0  503 -0.16823094519E+02  0.33635929986E+02 -0.62781187948E+02  0.73334574761E+02  0.47000000000E+01 0.  1.
         13    1    4    4    0    0 -0.73809589123E+02  0.17053634725E+03 -0.12299285083E+02  0.18623043144E+03  0.00000000000E+00 0. -1.
        -14    1    4    4    0    0 -0.39355239002E+02  0.62523803806E+02  0.43638003859E+02  0.85804057364E+02  0.00000000000E+00 0.  1.
</event>
<event>
12    1  0.8453150E-002  0.2203288E+03  0.7818608E-02  0.1134379E+00
         21   -1    0    0  501  502  0.00000000000E+00  0.00000000000E+00  0.45823022737E+03  0.45823022737E+03  0.00000000000E+00 0. -1.
         21   -1    0    0  502  503 -0.00000000000E+00 -0.00000000000E+00 -0.23410508393E+03  0.23410508393E+03  0.00000000000E+00 0. -1.
         -6    2    1    2    0  503  0.89561860928E+02  0.97432893991E+02 -0.14639476777E+03  0.26125553507E+03  0.17119734464E+03 0.  0.
        -24    2    3    3    0    0  0.28625699724E+02  0.10636383585E+03 -0.40997370458E+02  0.13909302517E+03  0.74386752894E+02 0.  0.
          6    2    1    2  501    0 -0.89561860928E+02 -0.97432893991E+02  0.37051991121E+03  0.43107977623E+03  0.17615411747E+03 0.  0.
         24    2    5    5    0    0  0.31329679908E+01 -0.94152124049E+02  0.16954799702E+03  0.20968669807E+03  0.79671513757E+02 0.  0.
          5    1    5    5  501    0 -0.92694828919E+02 -0.32807699415E+01  0.20097191420E+03  0.22139307816E+03  0.47000000000E+01 0. -1.
        -13    1    6    6    0    0  0.24811664397E+02 -0.16503712392E+02  0.10899430370E+02  0.31729935317E+02  0.00000000000E+00 0.  1.
         14    1    6    6    0    0 -0.21678696406E+02 -0.77648411657E+02  0.15864856665E+03  0.17795676275E+03  0.00000000000E+00 0. -1.
         -5    1    3    3    0  503  0.60936161204E+02 -0.89309418554E+01 -0.10539739732E+03  0.12216250990E+03  0.47000000000E+01 0.  1.
         13    1    4    4    0    0  0.50786360367E+02  0.63113619710E+02 -0.10421527214E+02  0.81677362969E+02  0.00000000000E+00 0. -1.
        -14    1    4    4    0    0 -0.22160660642E+02  0.43250216136E+02 -0.30575843245E+02  0.57415662202E+02  0.00000000000E+00 0.  1.
</event>
<event>
12    1  0.8453150E-002  0.1792173E+03  0.7818608E-02  0.1169380E+00
         21   -1    0    0  501  502  0.00000000000E+00  0.00000000000E+00  0.34682135209E+03  0.34682135209E+03  0.00000000000E+00 0.  1.
         21   -1    0    0  502  503 -0.00000000000E+00 -0.00000000000E+00 -0.11179569419E+03  0.11179569419E+03  0.00000000000E+00 0.  1.
         -6    2    1    2    0  503 -0.47563964020E+02 -0.86652478928E+00  0.17482024056E+02  0.17675880827E+03  0.16933686426E+03 0.  0.
        -24    2    3    3    0    0 -0.51524067125E+02 -0.61261062237E+02  0.11295445266E+02  0.11573794031E+03  0.82825337324E+02 0.  0.
          6    2    1    2  501    0  0.47563964020E+02  0.86652478928E+00  0.21754363384E+03  0.28185823801E+03  0.17278817138E+03 0.  0.
         24    2    5    5    0    0 -0.30606824413E+01 -0.53827973283E+02  0.14294000303E+03  0.17630192754E+03  0.87998333527E+02 0.  0.
          5    1    5    5  501    0  0.50624646461E+02  0.54694498073E+02  0.74603630813E+02  0.10555631047E+03  0.47000000000E+01 0. -1.
        -11    1    6    6    0    0  0.41606306881E+02 -0.28746702117E+02  0.85507847760E+02  0.99343090768E+02  0.00000000000E+00 0.  1.
         12    1    6    6    0    0 -0.44666989322E+02 -0.25081271166E+02  0.57432155272E+02  0.76958836774E+02  0.00000000000E+00 0. -1.
         -5    1    3    3    0  503  0.39601031051E+01  0.60394537448E+02  0.61865787908E+01  0.61020867966E+02  0.47000000000E+01 0.  1.
         13    1    4    4    0    0  0.11125850749E+02 -0.54135784865E+01  0.27594658498E+02  0.30241636274E+02  0.00000000000E+00 0. -1.
        -14    1    4    4    0    0 -0.62649917875E+02 -0.55847483751E+02 -0.16299213232E+02  0.85496304031E+02  0.00000000000E+00 0.  1.
</event>
<event>
12    1  0.8453150E-002  0.1778044E+03  0.7818608E-02  0.1170602E+00
         21   -1    0    0  501  502  0.00000000000E+00  0.00000000000E+00  0.40981574974E+03  0.40981574974E+03  0.00000000000E+00 0. -1.
         21   -1    0    0  502  503 -0.00000000000E+00 -0.00000000000E+00 -0.15884114339E+03  0.15884114339E+03  0.00000000000E+00 0. -1.
         -6    2    1    2    0  503  0.23692664198E+02  0.26658440246E+02 -0.79397201812E+02  0.19472626934E+03  0.17419067008E+03 0.  0.
        -24    2    3    3    0    0  0.44510847877E+02  0.54667060275E+02 -0.10641048866E+03  0.15034511079E+03  0.79440274314E+02 0.  0.
          6    2    1    2  501    0 -0.23692664198E+02 -0.26658440246E+02  0.33037180816E+03  0.37393062379E+03  0.17148342488E+03 0.  0.
         24    2    5    5    0    0 -0.59422533225E+02 -0.36674807939E+02  0.11969735194E+03  0.15996154269E+03  0.79900939209E+02 0.  0.
          5    1    5    5  501    0  0.35729869027E+02  0.10016367694E+02  0.21067445623E+03  0.21396908110E+03  0.47000000000E+01 0. -1.
        -11    1    6    6    0    0 -0.41311560382E+02  0.19696715403E+02  0.40760524365E+02  0.61286425621E+02  0.00000000000E+00 0.  1.
         12    1    6    6    0    0 -0.18110972843E+02 -0.56371523343E+02  0.78936827571E+02  0.98675117068E+02  0.00000000000E+00 0. -1.
         -5    1    3    3    0  503 -0.20818183679E+02 -0.28008620030E+02  0.27013286852E+02  0.44381158550E+02  0.47000000000E+01 0.  1.
         11    1    4    4    0    0  0.20849559031E+02  0.73224469270E+02 -0.75684964496E+02  0.10735334584E+03  0.00000000000E+00 0. -1.
        -12    1    4    4    0    0  0.23661288846E+02 -0.18557408995E+02 -0.30725524168E+02  0.42991764954E+02  0.00000000000E+00 0.  1.
</event>
<event>
12    1  0.8453150E-002  0.2168506E+03  0.7818608E-02  0.1136994E+00
         21   -1    0    0  503  502  0.00000000000E+00  0.00000000000E+00  0.12347011144E+03  0.12347011144E+03  0.00000000000E+00 0. -1.
         21   -1    0    0  501  503 -0.00000000000E+00 -0.00000000000E+00 -0.73465549977E+03  0.73465549977E+03  0.00000000000E+00 0. -1.
          6    2    1    2  501    0  0.91811067181E+02  0.87117043925E+02 -0.60477219739E+03  0.64118020635E+03  0.17130088988E+03 0.  0.
         24    2    3    3    0    0  0.59635914271E+02  0.38984479517E+02 -0.15979912339E+03  0.19243182383E+03  0.80112515084E+02 0.  0.
         -6    2    1    2    0  502 -0.91811067181E+02 -0.87117043925E+02 -0.64131909445E+01  0.21694540486E+03  0.17608386716E+03 0.  0.
        -24    2    5    5    0    0 -0.15168900697E+02 -0.15598313179E+02  0.49879406553E+02  0.97866031906E+02  0.81341269233E+02 0.  0.
          5    1    3    3  501    0  0.32175152910E+02  0.48132564408E+02 -0.44497307400E+03  0.44874838252E+03  0.47000000000E+01 0. -1.
        -13    1    4    4    0    0  0.42277022442E+02  0.64027667886E+02 -0.11296454967E+03  0.13655723475E+03  0.00000000000E+00 0.  1.
         14    1    4    4    0    0  0.17358891829E+02 -0.25043188369E+02 -0.46834573719E+02  0.55874589078E+02  0.00000000000E+00 0. -1.
         -5    1    5    5    0  502 -0.76642166484E+02 -0.71518730746E+02 -0.56292597498E+02  0.11907937296E+03  0.47000000000E+01 0.  1.
         13    1    6    6    0    0 -0.39428470589E+02 -0.30521591649E+02  0.48175651759E+02  0.69333002763E+02  0.00000000000E+00 0. -1.
        -14    1    6    6    0    0  0.24259569892E+02  0.14923278469E+02  0.17037547943E+01  0.28533029142E+02  0.00000000000E+00 0.  1.
</event>
<event>
12    1  0.8453150E-002  0.2087548E+03  0.7818608E-02  0.1142646E+00
         21   -1    0    0  503  502  0.00000000000E+00  0.00000000000E+00  0.81591366912E+03  0.81591366912E+03  0.00000000000E+00 0. -1.
         21   -1    0    0  501  503 -0.00000000000E+00 -0.00000000000E+00 -0.21231558435E+03  0.21231558435E+03  0.00000000000E+00 0. -1.
          6    2    1    2  501    0 -0.89490745196E+02  0.79161311031E+02 -0.14305210044E+03  0.25306617136E+03  0.17118258383E+03 0.  0.
         24    2    3    3    0    0  0.72769130884E+01  0.67136653269E+01 -0.27804902660E+02  0.85983414457E+02  0.80758951105E+02 0.  0.
         -6    2    1    2    0  502  0.89490745196E+02 -0.79161311031E+02  0.74665018521E+03  0.77516308211E+03  0.17063469212E+03 0.  0.
        -24    2    5    5    0    0 -0.29797807861E+01 -0.37222357477E+01  0.20262784469E+03  0.21818530048E+03  0.80771577711E+02 0.  0.
          5    1    3    3  501    0 -0.96767658285E+02  0.72447645704E+02 -0.11524719778E+03  0.16708275690E+03  0.47000000000E+01 0. -1.
        -13    1    4    4    0    0  0.22071546226E+02  0.20591217125E+02 -0.48422361726E+02  0.57060288210E+02  0.00000000000E+00 0.  1.
         14    1    4    4    0    0 -0.14794633137E+02 -0.13877551798E+02  0.20617459066E+02  0.28923126247E+02  0.00000000000E+00 0. -1.
         -5    1    5    5    0  502  0.92470525983E+02 -0.75439075283E+02  0.54402234052E+03  0.55697778164E+03  0.47000000000E+01 0.  1.
         13    1    6    6    0    0 -0.12024336268E+02 -0.82079827085E+01  0.20676336328E+03  0.20727528564E+03  0.00000000000E+00 0. -1.
        -14    1    6    6    0    0  0.90445554815E+01  0.44857469608E+01 -0.41355185882E+01  0.10910014833E+02  0.00000000000E+00 0.  1.
</event>
<event>
12    1  0.8453150E-002  0.1918867E+03  0.7818608E-02  0.1157101E+00
         21   -1    0    0  501  502  0.00000000000E+00  0.00000000000E+00  0.33818040666E+03  0.33818040666E+03  0.00000000000E+00 0.  1.
         21   -1    0    0  502  503 -0.00000000000E+00 -0.00000000000E+00 -0.10805264127E+03  0.10805264127E+03  0.00000000000E+00 0. -1.
         -6    2    1    2    0  503 -0.73184713891E+02 -0.38386305977E+02  0.11317629337E+03  0.22277648856E+03  0.17317903927E+03 0.  0.
        -24    2    3    3    0    0  0.43451905154E+01 -0.70520321507E+02  0.51848074458E+02  0.11872495582E+03  0.80096166473E+02 0.  0.
          6    2    1    2  501    0  0.73184713891E+02  0.38386305977E+02  0.11695147202E+03  0.22345655936E+03  0.17153913921E+03 0.  0.
         24    2    5    5    0    0  0.89251129378E+02  0.46751524402E+02  0.27559782614E+02  0.13212709687E+03  0.80910808793E+02 0.  0.
          5    1    5    5  501    0 -0.16066415487E+02 -0.83652184247E+01  0.89391689401E+02  0.91329462497E+02  0.47000000000E+01 0. -1.
        -13    1    6    6    0    0  0.35209597231E+02  0.69030549768E+01  0.49814112049E+02  0.61390664309E+02  0.00000000000E+00 0.  1.
         14    1    6    6    0    0  0.54041532147E+02  0.39848469425E+02 -0.22254329435E+02  0.70736432557E+02  0.00000000000E+00 0. -1.
         -5    1    3    3    0  503 -0.77529904406E+02  0.32134015530E+02  0.61328218913E+02  0.10405153274E+03  0.47000000000E+01 0.  1.
         11    1    4    4    0    0  0.27513587966E+02 -0.40103032824E+01 -0.49560314241E+01  0.28242561900E+02  0.00000000000E+00 0. -1.
        -12    1    4    4    0    0 -0.23168397451E+02 -0.66510018225E+02  0.56804105882E+02  0.90482393921E+02  0.00000000000E+00 0.  1.
</event>
<event>
12    1  0.8453150E-002  0.2158555E+03  0.7818608E-02  0.1137326E+00
         21   -1    0    0  501  502  0.00000000000E+00  0.00000000000E+00  0.27931675579E+03  0.27931675579E+03  0.00000000000E+00 0. -1.
         21   -1    0    0  502  503 -0.00000000000E+00 -0.00000000000E+00 -0.16602463607E+03  0.16602463607E+03  0.00000000000E+00 0. -1.
         -6    2    1    2    0  503 -0.12089444843E+03 -0.46203971627E+02  0.68361279658E+02  0.22485919619E+03  0.17069891300E+03 0.  0.
        -24    2    3    3    0    0 -0.15489432527E+03 -0.35945734548E+02  0.61890330556E+02  0.18845608869E+03  0.80005852987E+02 0.  0.
          6    2    1    2  501    0  0.12089444843E+03  0.46203971627E+02  0.44930840064E+02  0.22048219567E+03  0.17275226066E+03 0.  0.
         24    2    5    5    0    0  0.17118080744E+02  0.36805135301E+02 -0.20968643196E+02  0.97101871029E+02  0.85682219200E+02 0.  0.
          5    1    5    5  501    0  0.10377636769E+03  0.93988363261E+01  0.65899483261E+02  0.12338032464E+03  0.47000000000E+01 0. -1.
        -11    1    6    6    0    0  0.31064712282E+02 -0.98475248804E+01 -0.33589582291E+02  0.46800108268E+02  0.00000000000E+00 0.  1.
         12    1    6    6    0    0 -0.13946631537E+02  0.46652660181E+02  0.12620939095E+02  0.50301762761E+02  0.00000000000E+00 0. -1.
         -5    1    3    3    0  503  0.33999876844E+02 -0.10258237079E+02  0.64709491018E+01  0.36403107500E+02  0.47000000000E+01 0.  1.
         13    1    4    4    0    0 -0.96565726030E+02 -0.58741150863E+01 -0.21423842592E+01  0.96767941396E+02  0.00000000000E+00 0. -1.
        -14    1    4    4    0    0 -0.58328599245E+02 -0.30071619462E+02  0.64032714815E+02  0.91688147290E+02  0.00000000000E+00 0.  1.
</event>
<event>
12    1  0.8453150E-002  0.2400017E+03  0.7818608E-02  0.1120037E+00
         21   -1    0    0  503  502  0.00000000000E+00  0.00000000000E+00  0.42353825688E+03  0.42353825688E+03  0.00000000000E+00 0.  1.
         21   -1    0    0  501  503 -0.00000000000E+00 -0.00000000000E+00 -0.16015488462E+03  0.16015488462E+03  0.00000000000E+00 0. -1.
          6    2    1    2  501    0 -0.15233918841E+03 -0.70393898357E+02  0.24662713742E+03  0.34310721303E+03  0.16951426334E+03 0.  0.
         24    2    3    3    0    0 -0.93090966966E+02 -0.11078035538E+03  0.16160878915E+03  0.23178952712E+03  0.81674775082E+02 0.  0.
         -6    2    1    2    0  502  0.15233918841E+03  0.70393898357E+02  0.16756234846E+02  0.24058592847E+03  0.17157589668E+03 0.  0.
        -24    2    5    5    0    0  0.50341549813E+02 -0.18773173818E+02 -0.21838059360E+02  0.99639503952E+02  0.81021146736E+02 0.  0.
          5    1    3    3  501    0 -0.59248221439E+02  0.40386457022E+02  0.85018348268E+02  0.11131768591E+03  0.47000000000E+01 0. -1.
        -11    1    4    4    0    0 -0.80159679815E+02 -0.12214237088E+03  0.15589329597E+03  0.21365170900E+03  0.00000000000E+00 0.  1.
         12    1    4    4    0    0 -0.12931287151E+02  0.11362015506E+02  0.57154931826E+01  0.18137818117E+02  0.00000000000E+00 0. -1.
         -5    1    5    5    0  502  0.10199763859E+03  0.89167072175E+02  0.38594294205E+02  0.14094642452E+03  0.47000000000E+01 0.  1.
         11    1    6    6    0    0  0.32069419742E+02  0.28244556464E+02  0.40778246074E+01  0.42928211073E+02  0.00000000000E+00 0. -1.
        -12    1    6    6    0    0  0.18272130072E+02 -0.47017730282E+02 -0.25915883967E+02  0.56711292879E+02  0.00000000000E+00 0.  1.
</event>
<event>
12    1  0.8453150E-002  0.2516125E+03  0.7818608E-02  0.1112466E+00
         21   -1    0    0  501  502  0.00000000000E+00  0.00000000000E+00  0.36559439057E+03  0.36559439057E+03  0.00000000000E+00 0. -1.
         21   -1    0    0  502  503 -0.00000000000E+00 -0.00000000000E+00 -0.18077939439E+03  0.18077939439E+03  0.00000000000E+00 0.  1.
         -6    2    1    2    0  503  0.17228230204E+03  0.64736762811E+02  0.33776237174E+02  0.25386946377E+03  0.17157164795E+03 0.  0.
        -24    2    3    3    0    0  0.37432302679E+02 -0.23340356413E+02  0.11739024524E+02  0.91235426742E+02  0.78994612947E+02 0.  0.
          6    2    1    2  501    0 -0.17228230204E+03 -0.64736762811E+02  0.15103875901E+03  0.29250432120E+03  0.16992360383E+03 0.  0.
         24    2    5    5    0    0 -0.49091684568E+02 -0.78572311270E+02  0.49540482556E+02  0.13221913549E+03  0.80274770543E+02 0.  0.
          5    1    5    5  501    0 -0.12319061747E+03  0.13835548459E+02  0.10149827646E+03  0.16028518571E+03  0.47000000000E+01 0. -1.
        -11    1    6    6    0    0  0.11225101839E+02 -0.21383383347E+02  0.42398539849E+02  0.48794345738E+02  0.00000000000E+00 0.  1.
         12    1    6    6    0    0 -0.60316786407E+02 -0.57188927923E+02  0.71419427068E+01  0.83424789751E+02  0.00000000000E+00 0. -1.
         -5    1    3    3    0  503  0.13484999936E+03  0.88077119224E+02  0.22037212650E+02  0.16263403702E+03  0.47000000000E+01 0.  1.
         13    1    4    4    0    0 -0.12554070261E+02  0.11305259747E+02 -0.17001068358E+02  0.23967684564E+02  0.00000000000E+00 0. -1.
        -14    1    4    4    0    0  0.49986372940E+02 -0.34645616160E+02  0.28740092882E+02  0.67267742177E+02  0.00000000000E+00 0.  1.
</event>
<event>
12    1  0.8453150E-002  0.2512050E+03  0.7818608E-02  0.1113063E+00
         21   -1    0    0  501  502  0.00000000000E+00  0.00000000000E+00  0.69838135685E+03  0.69838135685E+03  0.00000000000E+00 0. -1.
         21   -1    0    0  502  503 -0.00000000000E+00 -0.00000000000E+00 -0.10633132483E+03  0.10633132483E+03  0.00000000000E+00 0. -1.
         -6    2    1    2    0  503  0.74587871022E+02 -0.16378397120E+03  0.13608340487E+03  0.28569673510E+03  0.17525807155E+03 0.  0.
        -24    2    3    3    0    0  0.36627655291E+02 -0.35751338639E+02  0.63545424467E+00  0.95429632571E+02  0.80539851154E+02 0.  0.
          6    2    1    2  501    0 -0.74587871022E+02  0.16378397120E+03  0.45596662714E+03  0.51901594657E+03  0.17053869944E+03 0.  0.
         24    2    5    5    0    0 -0.29248119020E+02  0.45616489198E+02  0.87455122702E+02  0.12934677174E+03  0.78395614156E+02 0.  0.
          5    1    5    5  501    0 -0.45339752002E+02  0.11816748200E+03  0.36851150444E+03  0.38966917484E+03  0.47000000000E+01 0. -1.
        -13    1    6    6    0    0 -0.27171662840E+02 -0.22994303108E+01  0.74987774702E+02  0.79791935658E+02  0.00000000000E+00 0.  1.
         14    1    6    6    0    0 -0.20764561798E+01  0.47915919509E+02  0.12467348000E+02  0.49554836079E+02  0.00000000000E+00 0. -1.
         -5    1    3    3    0  503  0.37960215731E+02 -0.12803263256E+03  0.13544795062E+03  0.19026710253E+03  0.47000000000E+01 0.  1.
         11    1    4    4    0    0  0.14175716801E+02 -0.39258624969E+02  0.34836801065E+02  0.54367207853E+02  0.00000000000E+00 0. -1.
        -12    1    4    4    0    0  0.22451938490E+02  0.35072863301E+01 -0.34201346820E+02  0.41062424718E+02  0.00000000000E+00 0.  1.
</event>
<event>
12    1  0.8453150E-002  0.1742563E+03  0.7818608E-02  0.1173548E+00
         21   -1    0    0  501  502  0.00000000000E+00  0.00000000000E+00  0.13904168787E+04  0.13904168787E+04  0.00000000000E+00 0.  1.
         21   -1    0    0  502  503 -0.00000000000E+00 -0.00000000000E+00 -0.63986902783E+02  0.63986902783E+02  0.00000000000E+00 0.  1.
         -6    2    1    2    0  503  0.18461954803E+02 -0.14228661750E+02  0.72956501374E+02  0.18891245403E+03  0.17269037496E+03 0.  0.
        -24    2    3    3    0    0  0.55547666211E+02 -0.55808414719E+02  0.67378313015E+02  0.13272142242E+03  0.82915719441E+02 0.  0.
          6    2    1    2  501    0 -0.18461954803E+02  0.14228661750E+02  0.12534734746E+04  0.12654913275E+04  0.17242172104E+03 0.  0.
         24    2    5    5    0    0 -0.17715377907E+02  0.56832384102E+02  0.44528327618E+03  0.45616498953E+03  0.79155209084E+02 0.  0.
          5    1    5    5  501    0 -0.74657689592E+00 -0.42603722352E+02  0.80819019840E+03  0.80932633797E+03  0.47000000000E+01 0. -1.
        -13    1    6    6    0    0  0.11491299992E+02  0.45418689242E+02  0.38836336445E+03  0.39117900014E+03  0.00000000000E+00 0.  1.
         14    1    6    6    0    0 -0.29206677900E+02  0.11413694860E+02  0.56919911736E+02  0.64985989385E+02  0.00000000000E+00 0. -1.
         -5    1    3    3    0  503 -0.37085711408E+02  0.41579752969E+02  0.55781883587E+01  0.56191031606E+02  0.47000000000E+01 0.  1.
         11    1    4    4    0    0  0.13327980312E+02  0.21467381688E+02  0.22751135667E+02  0.34001436879E+02  0.00000000000E+00 0. -1.
        -12    1    4    4    0    0  0.42219685899E+02 -0.77275796407E+02  0.44627177348E+02  0.98719985544E+02  0.00000000000E+00 0.  1.
</event>
<event>
12    1  0.8453150E-002  0.1843088E+03  0.7818608E-02  0.1164284E+00
         21   -1    0    0  501  502  0.00000000000E+00  0.00000000000E+00  0.76253266091E+02  0.76253266091E+02  0.00000000000E+00 0. -1.
         21   -1    0    0  502  503 -0.00000000000E+00 -0.00000000000E+00 -0.16087731587E+04  0.16087731587E+04  0.00000000000E+00 0. -1.
         -6    2    1    2    0  503  0.67520424353E+02 -0.65486593147E+01 -0.14831039270E+04  0.14942079537E+04  0.16869575601E+03 0.  0.
        -24    2    3    3    0    0  0.10414500424E+03 -0.19634615819E+02 -0.90211233774E+03  0.91189710986E+03  0.80733939726E+02 0.  0.
          6    2    1    2  501    0 -0.67520424353E+02  0.65486593147E+01 -0.49415965671E+02  0.19081847111E+03  0.17137053017E+03 0.  0.
         24    2    5    5    0    0 -0.64289711844E+02  0.32100868352E+02 -0.91428895519E+02  0.14131565135E+03  0.80294692120E+02 0.  0.
          5    1    5    5  501    0 -0.32307125083E+01 -0.25552209038E+02  0.42012929848E+02  0.49502819762E+02  0.47000000000E+01 0. -1.
        -11    1    6    6    0    0  0.44502927463E+01 -0.17744802072E+02 -0.34612135609E+02  0.39149496006E+02  0.00000000000E+00 0.  1.
         12    1    6    6    0    0 -0.68740004591E+02  0.49845670424E+02 -0.56816759910E+02  0.10216615534E+03  0.00000000000E+00 0. -1.
         -5    1    3    3    0  503 -0.36624579883E+02  0.13085956505E+02 -0.58099158924E+03  0.58231084386E+03  0.47000000000E+01 0.  1.
         11    1    4    4    0    0  0.63813902667E+02 -0.24508155226E+02 -0.78437737710E+03  0.78735045154E+03  0.00000000000E+00 0. -1.
        -12    1    4    4    0    0  0.40331101569E+02  0.48735394066E+01 -0.11773496065E+03  0.12454665832E+03  0.00000000000E+00 0.  1.
</event>
<event>
12    1  0.8453150E-002  0.2290461E+03  0.7818608E-02  0.1127423E+00
         21   -1    0    0  503  502  0.00000000000E+00  0.00000000000E+00  0.11873652663E+04  0.11873652663E+04  0.00000000000E+00 0. -1.
         21   -1    0    0  501  503 -0.00000000000E+00 -0.00000000000E+00 -0.72790517542E+02  0.72790517542E+02  0.00000000000E+00 0.  1.
          6    2    1    2  501    0 -0.14942685625E+03 -0.22535198803E+02  0.16192436880E+03  0.28050240960E+03  0.17212170121E+03 0.  0.
         24    2    3    3    0    0 -0.25558370897E+02 -0.10332872727E+02  0.12389462043E+02  0.85887207820E+02  0.80393501700E+02 0.  0.
         -6    2    1    2    0  502  0.14942685625E+03  0.22535198803E+02  0.95265037997E+03  0.97965337426E+03  0.17129438602E+03 0.  0.
        -24    2    5    5    0    0  0.36964656645E+02 -0.41024688385E+02  0.45492691590E+03  0.46541768677E+03  0.81275540296E+02 0.  0.
          5    1    3    3  501    0 -0.12386848535E+03 -0.12202326076E+02  0.14953490676E+03  0.19461520178E+03  0.47000000000E+01 0. -1.
        -13    1    4    4    0    0  0.37604744336E+00  0.32711144864E+02 -0.41653892825E+01  0.32977429825E+02  0.00000000000E+00 0.  1.
         14    1    4    4    0    0 -0.25934418341E+02 -0.43044017591E+02  0.16554851325E+02  0.52909777994E+02  0.00000000000E+00 0. -1.
         -5    1    5    5    0  502  0.11246219960E+03  0.63559887187E+02  0.49772346408E+03  0.51423568749E+03  0.47000000000E+01 0.  1.
         13    1    6    6    0    0  0.47142791275E+02 -0.32780718713E+02  0.44573014363E+03  0.44941337233E+03  0.00000000000E+00 0. -1.
        -14    1    6    6    0    0 -0.10178134630E+02 -0.82439696712E+01  0.91967722681E+01  0.16004314438E+02  0.00000000000E+00 0.  1.
</event>
<event>
12    1  0.8453150E-002  0.1911750E+03  0.7818608E-02  0.1158387E+00
         21   -1    0    0  503  502  0.00000000000E+00  0.00000000000E+00  0.35110547262E+03  0.35110547262E+03  0.00000000000E+00 0.  1.
         21   -1    0    0  501  503 -0.00000000000E+00 -0.00000000000E+00 -0.24862590429E+03  0.24862590429E+03  0.00000000000E+00 0.  1.
          6    2    1    2  501    0 -0.10091391799E+03 -0.91073650668E+01 -0.17947358575E+03  0.25907690664E+03  0.15698252332E+03 0.  0.
         24    2    3    3    0    0 -0.31920419371E+01 -0.22822635767E+02 -0.10804785686E+03  0.13716957110E+03  0.81302460169E+02 0.  0.
         -6    2    1    2    0  502  0.10091391799E+03  0.91073650668E+01  0.28195315408E+03  0.34065447027E+03  0.16211515683E+03 0.  0.
        -24    2    5    5    0    0  0.11292561229E+03  0.33202385260E+02  0.27558436505E+03  0.31259199939E+03  0.88951804517E+02 0.  0.
          5    1    3    3  501    0 -0.97721876051E+02  0.13715270700E+02 -0.71425728897E+02  0.12190733554E+03  0.47000000000E+01 0. -1.
        -11    1    4    4    0    0 -0.34171673842E+02 -0.12074140426E+02 -0.95350309887E+02  0.10200573394E+03  0.00000000000E+00 0.  1.
         12    1    4    4    0    0  0.30979631905E+02 -0.10748495341E+02 -0.12697546968E+02  0.35163837164E+02  0.00000000000E+00 0. -1.
         -5    1    5    5    0  502 -0.12011694297E+02 -0.24095020193E+02  0.63687890322E+01  0.28062470877E+02  0.47000000000E+01 0.  1.
         11    1    6    6    0    0  0.93277245115E+02  0.13321955667E+02  0.11076856770E+03  0.14542281303E+03  0.00000000000E+00 0. -1.
        -12    1    6    6    0    0  0.19648367171E+02  0.19880429593E+02  0.16481579735E+03  0.16716918636E+03  0.00000000000E+00 0.  1.
</event>
<event>
12    1  0.8453150E-002  0.2182022E+03  0.7818608E-02  0.1135359E+00
         21   -1    0    0  503  502  0.00000000000E+00  0.00000000000E+00  0.20748620616E+03  0.20748620616E+03  0.00000000000E+00 0.  1.
         21   -1    0    0  501  503 -0.00000000000E+00 -0.00000000000E+00 -0.30733986406E+03  0.30733986406E+03  0.00000000000E+00 0.  1.
          6    2    1    2  501    0  0.83722953503E+02 -0.10271186872E+03 -0.18014664224E+03  0.28295762976E+03  0.17335785709E+03 0.  0.
         24    2    3    3    0    0  0.81914478317E+02 -0.14010736311E+03 -0.14980333409E+03  0.23453759328E+03  0.78910004444E+02 0.  0.
         -6    2    1    2    0  502 -0.83722953503E+02  0.10271186872E+03  0.80292984343E+02  0.23186844045E+03  0.17250144760E+03 0.  0.
        -24    2    5    5    0    0 -0.87775670879E+02  0.21094121753E+02  0.21673864104E+01  0.11871553421E+03  0.77065881746E+02 0.  0.
          5    1    3    3  501    0  0.18084751856E+01  0.37395494396E+02 -0.30343308151E+02  0.48420036484E+02  0.47000000000E+01 0. -1.
        -11    1    4    4    0    0  0.12194105646E+01 -0.70121512386E+02 -0.82522294090E+02  0.10829793388E+03  0.00000000000E+00 0.  1.
         12    1    4    4    0    0  0.80695067752E+02 -0.69985850726E+02 -0.67281039999E+02  0.12623965940E+03  0.00000000000E+00 0. -1.
         -5    1    5    5    0  502  0.40527173761E+01  0.81617746963E+02  0.78125597933E+02  0.11315290624E+03  0.47000000000E+01 0.  1.
         13    1    6    6    0    0 -0.14624071555E+02 -0.97313645624E+01 -0.28613709389E+02  0.33575397095E+02  0.00000000000E+00 0. -1.
        -14    1    6    6    0    0 -0.73151599324E+02  0.30825486315E+02  0.30781095799E+02  0.85140137120E+02  0.00000000000E+00 0.  1.
</event>
<event>
12    1  0.8453150E-002  0.2461788E+03  0.7818608E-02  0.1115812E+00
         21   -1    0    0  503  502  0.00000000000E+00  0.00000000000E+00  0.32001347075E+03  0.32001347075E+03  0.00000000000E+00 0. -1.
         21   -1    0    0  501  503 -0.00000000000E+00 -0.00000000000E+00 -0.36228225223E+03  0.36228225223E+03  0.00000000000E+00 0.  1.
          6    2    1    2  501    0  0.17526268125E+03 -0.15514986492E+01 -0.25702410081E+03  0.35560953729E+03  0.17227112361E+03 0.  0.
         24    2    3    3    0    0  0.15496801005E+03  0.55788658894E+02 -0.21002774401E+03  0.27859970091E+03  0.79866648214E+02 0.  0.
         -6    2    1    2    0  502 -0.17526268125E+03  0.15514986492E+01  0.21475531933E+03  0.32668618570E+03  0.17287163492E+03 0.  0.
        -24    2    5    5    0    0 -0.14477538401E+03  0.63223882057E+02  0.15392730277E+03  0.23473459101E+03  0.80309044309E+02 0.  0.
          5    1    3    3  501    0  0.20294671201E+02 -0.57340157543E+02 -0.46996356801E+02  0.77009836377E+02  0.47000000000E+01 0. -1.
        -13    1    4    4    0    0  0.41561425662E+02 -0.80026832379E+01 -0.98566861051E+02  0.10726985196E+03  0.00000000000E+00 0.  1.
         14    1    4    4    0    0  0.11340658439E+03  0.63791342132E+02 -0.11146088295E+03  0.17132984895E+03  0.00000000000E+00 0. -1.
         -5    1    5    5    0  502 -0.30487297235E+02 -0.61672383408E+02  0.60828016555E+02  0.91951594690E+02  0.47000000000E+01 0.  1.
         11    1    6    6    0    0  0.15697168002E+01  0.22718033592E+01  0.38585419609E+02  0.38684101486E+02  0.00000000000E+00 0. -1.
        -12    1    6    6    0    0 -0.14634510081E+03  0.60952078698E+02  0.11534188316E+03  0.19605048952E+03  0.00000000000E+00 0.  1.
</event>
<event>
12    1  0.8453150E-002  0.2135780E+03  0.7818608E-02  0.1139012E+00
         21   -1    0    0  501  502  0.00000000000E+00  0.00000000000E+00  0.12074653757E+03  0.12074653757E+03  0.00000000000E+00 0.  1.
         21   -1    0    0  502  503 -0.00000000000E+00 -0.00000000000E+00 -0.40684243496E+03  0.40684243496E+03  0.00000000000E+00 0. -1.
         -6    2    1    2    0  503  0.83177671271E+02  0.92726273436E+02 -0.21663774365E+03  0.30421613531E+03  0.17349022515E+03 0.  0.
        -24    2    3    3    0    0  0.66966302037E+02  0.55733494611E+02 -0.23166953526E+03  0.26086502302E+03  0.82395865415E+02 0.  0.
          6    2    1    2  501    0 -0.83177671271E+02 -0.92726273436E+02 -0.69458153739E+02  0.22337283723E+03  0.17191364840E+03 0.  0.
         24    2    5    5    0    0 -0.83331735560E+02  0.40799057665E+01  0.88466273619E+01  0.98772721613E+02  0.52124504187E+02 0.  0.
          5    1    5    5  501    0  0.15406428830E+00 -0.96806179202E+02 -0.78304781101E+02  0.12460011561E+03  0.47000000000E+01 0. -1.
        -13    1    6    6    0    0 -0.85051498700E+02 -0.86250684361E+01  0.64582475538E+01  0.85731313988E+02  0.00000000000E+00 0.  1.
         14    1    6    6    0    0  0.17197631401E+01  0.12704974203E+02  0.23883798081E+01  0.13041407626E+02  0.00000000000E+00 0. -1.
         -5    1    3    3    0  503  0.16211369235E+02  0.36992778825E+02  0.15031791609E+02  0.43351112288E+02  0.47000000000E+01 0.  1.
         13    1    4    4    0    0  0.81409583946E+02  0.27917037367E+02 -0.14396571410E+03  0.16772897236E+03  0.00000000000E+00 0. -1.
        -14    1    4    4    0    0 -0.14443281909E+02  0.27816457244E+02 -0.87703821158E+02  0.93136050655E+02  0.00000000000E+00 0.  1.
</event>
<event>
12    1  0.8453150E-002  0.1756982E+03  0.7818608E-02  0.1173730E+00
         21   -1    0    0  501  502  0.00000000000E+00  0.00000000000E+00  0.70341575343E+02  0.70341575343E+02  0.00000000000E+00 0.  1.
         21   -1    0    0  502  503 -0.00000000000E+00 -0.00000000000E+00 -0.42238962806E+03  0.42238962806E+03  0.00000000000E+00 0.  1.
         -6    2    1    2    0  503 -0.11893324130E+02  0.10327061609E+02 -0.18029619379E+03  0.25174707078E+03  0.17499077345E+03 0.  0.
        -24    2    3    3    0    0 -0.32897299651E+02 -0.57598324110E+02 -0.85631808569E+02  0.13326305987E+03  0.77630130898E+02 0.  0.
          6    2    1    2  501    0  0.11893324130E+02 -0.10327061609E+02 -0.17175185893E+03  0.24098413262E+03  0.16830493685E+03 0.  0.
         24    2    5    5    0    0 -0.12393517279E+02  0.52249036338E+02 -0.13057538152E+03  0.16209680162E+03  0.79635932646E+02 0.  0.
          5    1    5    5  501    0  0.24286841408E+02 -0.62576097947E+02 -0.41176477412E+02  0.78887330997E+02  0.47000000000E+01 0. -1.
        -13    1    6    6    0    0 -0.26563822503E+01 -0.17977083581E+02 -0.57403984350E+02  0.60211704178E+02  0.00000000000E+00 0.  1.
         14    1    6    6    0    0 -0.97371350284E+01  0.70226119919E+02 -0.73171397165E+02  0.10188509744E+03  0.00000000000E+00 0. -1.
         -5    1    3    3    0  503  0.21003975522E+02  0.67925385719E+02 -0.94664385216E+02  0.11848401091E+03  0.47000000000E+01 0.  1.
         11    1    4    4    0    0  0.21323378447E+02  0.12090455359E+01 -0.25069503686E+02  0.32933695124E+02  0.00000000000E+00 0. -1.
        -12    1    4    4    0    0 -0.54220678098E+02 -0.58807369646E+02 -0.60562304884E+02  0.10032936475E+03  0.00000000000E+00 0.  1.
</event>
<event>
12    1  0.8453150E-002  0.1778849E+03  0.7818608E-02  0.1171888E+00
         21   -1    0    0  503  502  0.00000000000E+00  0.00000000000E+00  0.27116118594E+02  0.27116118594E+02  0.00000000000E+00 0.  1.
         21   -1    0    0  501  503 -0.00000000000E+00 -0.00000000000E+00 -0.12823111952E+04  0.12823111952E+04  0.00000000000E+00 0.  1.
          6    2    1    2  501    0  0.25794875244E+02 -0.19835150761E+02 -0.87671138680E+03  0.89457582115E+03  0.17488349047E+03 0.  0.
         24    2    3    3    0    0  0.30527545815E+02 -0.19937004421E+02 -0.20493114381E+03  0.22276245911E+03  0.79353161780E+02 0.  0.
         -6    2    1    2    0  502 -0.25794875244E+02  0.19835150761E+02 -0.37848368982E+03  0.41485149266E+03  0.16671247317E+03 0.  0.
        -24    2    5    5    0    0 -0.72782652687E+02 -0.19570403819E+02 -0.23450825400E+03  0.25828947594E+03  0.77711112135E+02 0.  0.
          5    1    3    3  501    0 -0.47326705711E+01  0.10185365957E+00 -0.67178024299E+03  0.67181336204E+03  0.47000000000E+01 0. -1.
        -13    1    4    4    0    0  0.36977178450E+02 -0.46825101342E+02 -0.13822207632E+03  0.15054980645E+03  0.00000000000E+00 0.  1.
         14    1    4    4    0    0 -0.64496326350E+01  0.26888096921E+02 -0.66709067494E+02  0.72212652652E+02  0.00000000000E+00 0. -1.
         -5    1    5    5    0  502  0.46987777443E+02  0.39405554580E+02 -0.14397543582E+03  0.15656201673E+03  0.47000000000E+01 0.  1.
         11    1    6    6    0    0 -0.30508852051E+02 -0.46489608533E+02 -0.95326301042E+02  0.11035931055E+03  0.00000000000E+00 0. -1.
        -12    1    6    6    0    0 -0.42273800636E+02  0.26919204714E+02 -0.13918195296E+03  0.14793016539E+03  0.00000000000E+00 0.  1.
</event>
<event>
12    1  0.8453150E-002  0.2134096E+03  0.7818608E-02  0.1138954E+00
         21   -1    0    0  503  502  0.00000000000E+00  0.00000000000E+00  0.38638567336E+03  0.38638567336E+03  0.00000000000E+00 0.  1.
         21   -1    0    0  501  503 -0.00000000000E+00 -0.00000000000E+00 -0.17161827666E+03  0.17161827666E+03  0.00000000000E+00 0.  1.
          6    2    1    2  501    0 -0.11185582101E+03 -0.60424533074E+02 -0.48946615288E+02  0.21895077608E+03  0.17140834959E+03 0.  0.
         24    2    3    3    0    0 -0.46573247614E+02 -0.41204554089E+02  0.37933119832E+02  0.10849082698E+03  0.80401836344E+02 0.  0.
         -6    2    1    2    0  502  0.11185582101E+03  0.60424533074E+02  0.26371401198E+03  0.33905317394E+03  0.17102375785E+03 0.  0.
        -24    2    5    5    0    0  0.19019548766E+02 -0.35178110745E+01  0.36325659935E+02  0.85213166320E+02  0.74616431934E+02 0.  0.
          5    1    3    3  501    0 -0.65282573393E+02 -0.19219978985E+02 -0.86879735119E+02  0.11045994910E+03  0.47000000000E+01 0. -1.
        -13    1    4    4    0    0 -0.43439618705E+02  0.23580639835E+01 -0.89517131534E+01  0.44415021191E+02  0.00000000000E+00 0.  1.
         14    1    4    4    0    0 -0.31336289091E+01 -0.43562618072E+02  0.46884832985E+02  0.64075805789E+02  0.00000000000E+00 0. -1.
         -5    1    5    5    0  502  0.92836272241E+02  0.63942344148E+02  0.22738835205E+03  0.25384000762E+03  0.47000000000E+01 0.  1.
         13    1    6    6    0    0  0.44566499447E+01 -0.38430387248E+02  0.13207921975E+02  0.40880381549E+02  0.00000000000E+00 0. -1.
        -14    1    6    6    0    0  0.14562898821E+02  0.34912576173E+02  0.23117737960E+02  0.44332784771E+02  0.00000000000E+00 0.  1.
</event>
<event>
12    1  0.8453150E-002  0.3606111E+03  0.7818608E-02  0.1058653E+00
         21   -1    0    0  501  502  0.00000000000E+00  0.00000000000E+00  0.74341691217E+03  0.74341691217E+03  0.00000000000E+00 0. -1.
         21   -1    0    0  502  503 -0.00000000000E+00 -0.00000000000E+00 -0.23510803117E+03  0.23510803117E+03  0.00000000000E+00 0.  1.
         -6    2    1    2    0  503  0.26102333734E+03  0.17842748286E+03  0.50397902459E+03  0.61788788073E+03  0.16679636284E+03 0.  0.
        -24    2    3    3    0    0  0.88558411342E+02  0.16260587619E+02  0.15076291542E+03  0.19265152013E+03  0.79234794189E+02 0.  0.
          6    2    1    2  501    0 -0.26102333734E+03 -0.17842748286E+03  0.43298564114E+01  0.36063706260E+03  0.17340932497E+03 0.  0.
         24    2    5    5    0    0 -0.26679070048E+03 -0.18375570619E+03 -0.22054166975E+02  0.33271110458E+03  0.72573103889E+02 0.  0.
          5    1    5    5  501    0  0.57673631377E+01  0.53282233301E+01  0.26384023387E+02  0.27925958023E+02  0.47000000000E+01 0. -1.
        -11    1    6    6    0    0 -0.15891859059E+03 -0.65515791599E+02 -0.13740908430E+02  0.17244201909E+03  0.00000000000E+00 0.  1.
         12    1    6    6    0    0 -0.10787210989E+03 -0.11823991459E+03 -0.83132585453E+01  0.16026908549E+03  0.00000000000E+00 0. -1.
         -5    1    3    3    0  503  0.17246492600E+03  0.16216689524E+03  0.35321610916E+03  0.42523636061E+03  0.47000000000E+01 0.  1.
         11    1    4    4    0    0  0.11516044018E+02  0.21302991078E+02  0.93342663136E+02  0.96432823562E+02  0.00000000000E+00 0. -1.
        -12    1    4    4    0    0  0.77042367324E+02 -0.50424034592E+01  0.57420252288E+02  0.96218696564E+02  0.00000000000E+00 0.  1.
</event>
<event>
12    1  0.8453150E-002  0.2245945E+03  0.7818608E-02  0.1130685E+00
         21   -1    0    0  503  502  0.00000000000E+00  0.00000000000E+00  0.15089204748E+04  0.15089204748E+04  0.00000000000E+00 0. -1.
         21   -1    0    0  501  503 -0.00000000000E+00 -0.00000000000E+00 -0.75445252592E+02  0.75445252592E+02  0.00000000000E+00 0.  1.
          6    2    1    2  501    0 -0.12917039725E+03  0.63390454402E+02  0.12381627237E+03  0.25558837002E+03  0.17114790197E+03 0.  0.
         24    2    3    3    0    0 -0.15832015731E+02  0.72016472017E+02  0.48879237567E+02  0.11936191851E+03  0.80131534129E+02 0.  0.
         -6    2    1    2    0  502  0.12917039725E+03 -0.63390454402E+02  0.13096589498E+04  0.13287773573E+04  0.17245103463E+03 0.  0.
        -24    2    5    5    0    0  0.95584362887E+02  0.25840711463E+02  0.63653718666E+03  0.64892059251E+03  0.78193558479E+02 0.  0.
          5    1    3    3  501    0 -0.11333838152E+03 -0.86260176148E+01  0.74937034803E+02  0.13622645150E+03  0.47000000000E+01 0. -1.
        -11    1    4    4    0    0 -0.30764957059E+02  0.80941183777E+02  0.25590776126E+02  0.90293109575E+02  0.00000000000E+00 0.  1.
         12    1    4    4    0    0  0.14932941328E+02 -0.89247117599E+01  0.23288461441E+02  0.29068808937E+02  0.00000000000E+00 0. -1.
         -5    1    5    5    0  502  0.33586034360E+02 -0.89231165865E+02  0.67312176313E+03  0.67985676482E+03  0.47000000000E+01 0.  1.
         11    1    6    6    0    0  0.59545527605E+02 -0.13851558529E+02  0.47017962930E+03  0.47413755319E+03  0.00000000000E+00 0. -1.
        -12    1    6    6    0    0  0.36038835281E+02  0.39692269992E+02  0.16635755736E+03  0.17478303933E+03  0.00000000000E+00 0.  1.
</event>
<event>
12    1  0.8453150E-002  0.2080000E+03  0.7818608E-02  0.1143742E+00
         21   -1    0    0  501  502  0.00000000000E+00  0.00000000000E+00  0.22276820776E+03  0.22276820776E+03  0.00000000000E+00 0.  1.
         21   -1    0    0  502  503 -0.00000000000E+00 -0.00000000000E+00 -0.30327721740E+03  0.30327721740E+03  0.00000000000E+00 0.  1.
         -6    2    1    2    0  503  0.60422168449E+02 -0.93465756903E+02 -0.20008962560E+03  0.28861715428E+03  0.17571942783E+03 0.  0.
        -24    2    3    3    0    0 -0.52296153824E+01 -0.58291931171E+02 -0.18777208828E+03  0.21297876150E+03  0.81708613955E+02 0.  0.
          6    2    1    2  501    0 -0.60422168449E+02  0.93465756903E+02  0.11958061596E+03  0.23742827088E+03  0.17229618087E+03 0.  0.
         24    2    5    5    0    0 -0.10737578487E+03  0.86633877010E+02  0.99504772743E+02  0.18569389006E+03  0.74471693841E+02 0.  0.
          5    1    5    5  501    0  0.46953616421E+02  0.68318798933E+01  0.20075843217E+02  0.51734380819E+02  0.47000000000E+01 0. -1.
        -13    1    6    6    0    0 -0.12463531083E+02  0.49534064583E+02  0.53234194113E+02  0.73775623237E+02  0.00000000000E+00 0.  1.
         14    1    6    6    0    0 -0.94912253787E+02  0.37099812426E+02  0.46270578630E+02  0.11191826682E+03  0.00000000000E+00 0. -1.
         -5    1    3    3    0  503  0.65651783831E+02 -0.35173825732E+02 -0.12317537316E+02  0.75638392780E+02  0.47000000000E+01 0.  1.
         13    1    4    4    0    0 -0.23024658169E+02  0.23282313322E+01 -0.11733802484E+02  0.25946823807E+02  0.00000000000E+00 0. -1.
        -14    1    4    4    0    0  0.17795042786E+02 -0.60620162503E+02 -0.17603828580E+03  0.18703193769E+03  0.00000000000E+00 0.  1.
</event>
<event>
12    1  0.8453150E-002  0.1948606E+03  0.7818608E-02  0.1154336E+00
         21   -1    0    0  501  502  0.00000000000E+00  0.00000000000E+00  0.47220984438E+03  0.47220984438E+03  0.00000000000E+00 0. -1.
         21   -1    0    0  502  503 -0.00000000000E+00 -0.00000000000E+00 -0.82284545319E+02  0.82284545319E+02  0.00000000000E+00 0. -1.
         -6    2    1    2    0  503 -0.13064880930E+02 -0.89037302527E+02  0.24014834849E+03  0.30872253738E+03  0.17187217183E+03 0.  0.
        -24    2    3    3    0    0 -0.52019459510E+02 -0.30786888165E+02  0.20905605408E+03  0.23191504597E+03  0.80164194920E+02 0.  0.
          6    2    1    2  501    0  0.13064880930E+02  0.89037302527E+02  0.14977695057E+03  0.24577185232E+03  0.17283615396E+03 0.  0.
         24    2    5    5    0    0 -0.56846055152E+02  0.27911176239E+02  0.88365846147E+02  0.13433866137E+03  0.78916699297E+02 0.  0.
          5    1    5    5  501    0  0.69910936081E+02  0.61126126288E+02  0.61411104424E+02  0.11143319095E+03  0.47000000000E+01 0. -1.
        -11    1    6    6    0    0 -0.10387651336E+02  0.45036155484E+02  0.21082088367E+02  0.50799734753E+02  0.00000000000E+00 0.  1.
         12    1    6    6    0    0 -0.46458403816E+02 -0.17124979245E+02  0.67283757780E+02  0.83538926617E+02  0.00000000000E+00 0. -1.
         -5    1    3    3    0  503  0.38954578580E+02 -0.58250414362E+02  0.31092294414E+02  0.76807491416E+02  0.47000000000E+01 0.  1.
         11    1    4    4    0    0 -0.57249038819E+02 -0.38785948678E+02  0.95229373781E+02  0.11768787487E+03  0.00000000000E+00 0. -1.
        -12    1    4    4    0    0  0.52295793087E+01  0.79990605130E+01  0.11382668030E+03  0.11422717110E+03  0.00000000000E+00 0.  1.
</event>
<event>
12    1  0.8453150E-002  0.2003639E+03  0.7818608E-02  0.1150422E+00
         21   -1    0    0  503  502  0.00000000000E+00  0.00000000000E+00  0.27068446568E+03  0.27068446568E+03  0.00000000000E+00 0. -1.
         21   -1    0    0  501  503 -0.00000000000E+00 -0.00000000000E+00 -0.26734575432E+03  0.26734575432E+03  0.00000000000E+00 0.  1.
          6    2    1    2  501    0  0.48481897803E+02  0.90600082968E+02 -0.18037684636E+03  0.26959509157E+03  0.17200824761E+03 0.  0.
         24    2    3    3    0    0  0.46600307325E+02  0.45861637038E+02 -0.19626977049E+03  0.22184842713E+03  0.80125048639E+02 0.  0.
         -6    2    1    2    0  502 -0.48481897803E+02 -0.90600082968E+02  0.18371555771E+03  0.26843512844E+03  0.16657473574E+03 0.  0.
        -24    2    5    5    0    0  0.14053154815E+02 -0.26351385717E+02  0.15318215952E+03  0.17360419303E+03  0.76037853429E+02 0.  0.
          5    1    3    3  501    0  0.18815904783E+01  0.44738445930E+02  0.15892924132E+02  0.47746664432E+02  0.47000000000E+01 0. -1.
        -11    1    4    4    0    0 -0.12706894825E+02 -0.41313981539E+01 -0.85988098824E+02  0.87020036578E+02  0.00000000000E+00 0.  1.
         12    1    4    4    0    0  0.59307202149E+02  0.49993035192E+02 -0.11028167167E+03  0.13482839056E+03  0.00000000000E+00 0. -1.
         -5    1    5    5    0  502 -0.62535052618E+02 -0.64248697250E+02  0.30533398192E+02  0.94830935403E+02  0.47000000000E+01 0.  1.
         11    1    6    6    0    0  0.29363923435E+02  0.17583451124E+02  0.52210233665E+02  0.62428569200E+02  0.00000000000E+00 0. -1.
        -12    1    6    6    0    0 -0.15310768620E+02 -0.43934836841E+02  0.10097192586E+03  0.11117562384E+03  0.00000000000E+00 0.  1.
</event>
<event>
12    1  0.8453150E-002  0.2032696E+03  0.7818608E-02  0.1147260E+00
         21   -1    0    0  501  502  0.00000000000E+00  0.00000000000E+00  0.28162733176E+03  0.28162733176E+03  0.00000000000E+00 0.  1.
         21   -1    0    0  502  503 -0.00000000000E+00 -0.00000000000E+00 -0.23273568204E+03  0.23273568204E+03  0.00000000000E+00 0.  1.
         -6    2    1    2    0  503 -0.70648378550E+02 -0.79835076146E+02 -0.13265349753E+03  0.24272509115E+03  0.17307133412E+03 0.  0.
        -24    2    3    3    0    0 -0.24072426708E+02 -0.10551703972E+03 -0.48011324500E+02  0.14264877029E+03  0.79562912122E+02 0.  0.
          6    2    1    2  501    0  0.70648378550E+02  0.79835076146E+02  0.18154514725E+03  0.27163792266E+03  0.17164989881E+03 0.  0.
         24    2    5    5    0    0  0.10038392472E+03  0.10006195996E+03  0.17543831684E+03  0.23485867698E+03  0.65503182858E+02 0.  0.
          5    1    5    5  501    0 -0.29735546170E+02 -0.20226883812E+02  0.61068304051E+01  0.36779245674E+02  0.47000000000E+01 0. -1.
        -11    1    6    6    0    0  0.74035111697E+02  0.63994306736E+02  0.16008551110E+03  0.18762686354E+03  0.00000000000E+00 0.  1.
         12    1    6    6    0    0  0.26348813022E+02  0.36067653221E+02  0.15352805742E+02  0.47231813438E+02  0.00000000000E+00 0. -1.
         -5    1    3    3    0  503 -0.46575951842E+02  0.25681963572E+02 -0.84642173028E+02  0.10007632086E+03  0.47000000000E+01 0.  1.
         11    1    4    4    0    0  0.26560456203E+02 -0.28746727785E+02 -0.51090703794E+00  0.39141962369E+02  0.00000000000E+00 0. -1.
        -12    1    4    4    0    0 -0.50632882911E+02 -0.76770311932E+02 -0.47500417462E+02  0.10350680792E+03  0.00000000000E+00 0.  1.
</event>
<event>
12    1  0.8453150E-002  0.2165059E+03  0.7818608E-02  0.1136802E+00
         21   -1    0    0  503  502  0.00000000000E+00  0.00000000000E+00  0.62805591538E+03  0.62805591538E+03  0.00000000000E+00 0.  1.
         21   -1    0    0  501  503 -0.00000000000E+00 -0.00000000000E+00 -0.10985109609E+03  0.10985109609E+03  0.00000000000E+00 0.  1.
          6    2    1    2  501    0 -0.12972731431E+03  0.32167066303E+02  0.49282698820E+02  0.22204416304E+03  0.17032595136E+03 0.  0.
         24    2    3    3    0    0 -0.63051918544E+02  0.51554724657E+01  0.90998881585E+02  0.13875211956E+03  0.83481919630E+02 0.  0.
         -6    2    1    2    0  502  0.12972731431E+03 -0.32167066303E+02  0.46892212048E+03  0.51586284842E+03  0.16841207522E+03 0.  0.
        -24    2    5    5    0    0  0.76928473659E+02  0.20995880982E+01  0.12148036754E+03  0.16273428422E+03  0.76174597021E+02 0.  0.
          5    1    3    3  501    0 -0.66675395767E+02  0.27011593838E+02 -0.41716182766E+02  0.83292043479E+02  0.47000000000E+01 0. -1.
        -13    1    4    4    0    0 -0.81439891517E+02 -0.76016431058E+00  0.56200618624E+02  0.98952227432E+02  0.00000000000E+00 0.  1.
         14    1    4    4    0    0  0.18387972973E+02  0.59156367763E+01  0.34798262962E+02  0.39799892131E+02  0.00000000000E+00 0. -1.
         -5    1    5    5    0  502  0.52798840652E+02 -0.34266654402E+02  0.34744175293E+03  0.35312856421E+03  0.47000000000E+01 0.  1.
         11    1    6    6    0    0  0.52322227753E+02 -0.24325547117E+02  0.31409489806E+02  0.65695538733E+02  0.00000000000E+00 0. -1.
        -12    1    6    6    0    0  0.24606245907E+02  0.26425135215E+02  0.90070877737E+02  0.97038745483E+02  0.00000000000E+00 0.  1.
</event>
<event>
12    1  0.8453150E-002  0.2080291E+03  0.7818608E-02  0.1144762E+00
         21   -1    0    0  501  502  0.00000000000E+00  0.00000000000E+00  0.19101801870E+04  0.19101801870E+04  0.00000000000E+00 0. -1.
         21   -1    0    0  502  503 -0.00000000000E+00 -0.00000000000E+00 -0.40364873071E+02  0.40364873071E+02  0.00000000000E+00 0. -1.
         -6    2    1    2    0  503  0.18386616964E+02  0.10074333003E+03  0.28337064467E+03  0.35153242135E+03  0.18107687532E+03 0.  0.
        -24    2    3    3    0    0  0.65260882694E+02  0.69927937886E+02  0.26459325797E+03  0.29219048482E+03  0.78846610261E+02 0.  0.
          6    2    1    2  501    0 -0.18386616964E+02 -0.10074333003E+03  0.15864446692E+04  0.15990126387E+04  0.17189369948E+03 0.  0.
         24    2    5    5    0    0 -0.39911072790E+02 -0.14942381394E+02  0.40396699878E+03  0.41322149515E+03  0.75805669015E+02 0.  0.
          5    1    5    5  501    0  0.21524455826E+02 -0.85800948634E+02  0.11824776704E+04  0.11857911435E+04  0.47000000000E+01 0. -1.
        -13    1    6    6    0    0 -0.10765403311E+02  0.27925335919E+02  0.22222809386E+03  0.22423435061E+03  0.00000000000E+00 0.  1.
         14    1    6    6    0    0 -0.29145669479E+02 -0.42867717313E+02  0.18173890492E+03  0.18898714453E+03  0.00000000000E+00 0. -1.
         -5    1    3    3    0  503 -0.46874265730E+02  0.30815392142E+02  0.18777386703E+02  0.59341936537E+02  0.47000000000E+01 0.  1.
         11    1    4    4    0    0 -0.67368694618E+01  0.47341847124E+02  0.88039190588E+02  0.10018749911E+03  0.00000000000E+00 0. -1.
        -12    1    4    4    0    0  0.71997752156E+02  0.22586090762E+02  0.17655406738E+03  0.19200298570E+03  0.00000000000E+00 0.  1.
</event>
<event>
12    1  0.8453150E-002  0.1861920E+03  0.7818608E-02  0.1162293E+00
         21   -1    0    0  501  502  0.00000000000E+00  0.00000000000E+00  0.57928248452E+03  0.57928248452E+03  0.00000000000E+00 0.  1.
         21   -1    0    0  502  503 -0.00000000000E+00 -0.00000000000E+00 -0.15205987980E+03  0.15205987980E+03  0.00000000000E+00 0.  1.
         -6    2    1    2    0  503 -0.52251751643E+02  0.35511092937E+02 -0.71558464769E+02  0.19946947688E+03  0.17514615341E+03 0.  0.
        -24    2    3    3    0    0 -0.66258023381E+02  0.68847796730E+02 -0.82262231822E+00  0.11988831783E+03  0.72404331838E+02 0.  0.
          6    2    1    2  501    0  0.52251751643E+02 -0.35511092937E+02  0.49878106948E+03  0.53187288744E+03  0.17353653751E+03 0.  0.
         24    2    5    5    0    0  0.78591342045E+02  0.20640888590E+01  0.45388901607E+03  0.46750632183E+03  0.79787608888E+02 0.  0.
          5    1    5    5  501    0 -0.26339590403E+02 -0.37575181796E+02  0.44892053410E+02  0.64366565614E+02  0.47000000000E+01 0. -1.
        -13    1    6    6    0    0 -0.28969438598E+01  0.11819939161E+02  0.20652156829E+03  0.20687982360E+03  0.00000000000E+00 0.  1.
         14    1    6    6    0    0  0.81488285905E+02 -0.97558503022E+01  0.24736744778E+03  0.26062649823E+03  0.00000000000E+00 0. -1.
         -5    1    3    3    0  503  0.14006271738E+02 -0.33336703793E+02 -0.70735842450E+02  0.79581159045E+02  0.47000000000E+01 0.  1.
         13    1    4    4    0    0 -0.66915849757E+02  0.43150687469E+02 -0.26145145881E+02  0.83805020321E+02  0.00000000000E+00 0. -1.
        -14    1    4    4    0    0  0.65782637621E+00  0.25697109261E+02  0.25322523563E+02  0.36083297514E+02  0.00000000000E+00 0.  1.
</event>
<event>
12    1  0.8453150E-002  0.1847049E+03  0.7818608E-02  0.1163333E+00
         21   -1    0    0  503  502  0.00000000000E+00  0.00000000000E+00  0.65996656314E+03  0.65996656314E+03  0.00000000000E+00 0.  1.
         21   -1    0    0  501  503 -0.00000000000E+00 -0.00000000000E+00 -0.60333212691E+02  0.60333212691E+02  0.00000000000E+00 0.  1.
          6    2    1    2  501    0 -0.65583469065E+02  0.16538373777E+02  0.16348266826E+03  0.24666269811E+03  0.17187552065E+03 0.  0.
         24    2    3    3    0    0 -0.99357091425E+02  0.13175276241E+02  0.73575534828E+02  0.15044757127E+03  0.84709461426E+02 0.  0.
         -6    2    1    2    0  502  0.65583469065E+02 -0.16538373777E+02  0.43615068220E+03  0.47363707772E+03  0.17184281943E+03 0.  0.
        -24    2    5    5    0    0 -0.23705449624E+02 -0.29175709792E+02  0.27416001558E+03  0.28817743431E+03  0.80432264176E+02 0.  0.
          5    1    3    3  501    0  0.33773622360E+02  0.33630975360E+01  0.89907133428E+02  0.96215126844E+02  0.47000000000E+01 0. -1.
        -13    1    4    4    0    0 -0.24330035614E+02  0.37898136077E+02  0.40559072156E+01  0.45218024442E+02  0.00000000000E+00 0.  1.
         14    1    4    4    0    0 -0.75027055811E+02 -0.24722859836E+02  0.69519627613E+02  0.10522954683E+03  0.00000000000E+00 0. -1.
         -5    1    5    5    0  502  0.89288918689E+02  0.12637336015E+02  0.16199066662E+03  0.18545964341E+03  0.47000000000E+01 0.  1.
         11    1    6    6    0    0 -0.26211141035E+02 -0.51356697987E+02  0.12884505821E+03  0.14115800851E+03  0.00000000000E+00 0. -1.
        -12    1    6    6    0    0  0.25056914109E+01  0.22180988195E+02  0.14531495737E+03  0.14701942580E+03  0.00000000000E+00 0.  1.
</event>
<event>
12    1  0.8453150E-002  0.2429510E+03  0.7818608E-02  0.1118074E+00
         21   -1    0    0  503  502  0.00000000000E+00  0.00000000000E+00  0.28247223110E+02  0.28247223110E+02  0.00000000000E+00 0. -1.
         21   -1    0    0  501  503 -0.00000000000E+00 -0.00000000000E+00 -0.20814115306E+04  0.20814115306E+04  0.00000000000E+00 0. -1.
          6    2    1    2  501    0  0.16821871922E+03  0.20185871086E+02 -0.10692694144E+04  0.10962119949E+04  0.17215879370E+03 0.  0.
         24    2    3    3    0    0  0.45470231764E+02 -0.15303750314E+02 -0.24896258417E+03  0.26599991948E+03  0.80447760062E+02 0.  0.
         -6    2    1    2    0  502 -0.16821871922E+03 -0.20185871086E+02 -0.98389489306E+03  0.10134467588E+04  0.17412686598E+03 0.  0.
        -24    2    5    5    0    0 -0.17661509694E+03  0.25387127724E+02 -0.75698646177E+03  0.78180711719E+03  0.79727451088E+02 0.  0.
          5    1    3    3  501    0  0.12274848746E+03  0.35489621400E+02 -0.82030683025E+03  0.83021207541E+03  0.47000000000E+01 0. -1.
        -11    1    4    4    0    0  0.65185722056E+02  0.45408864249E+01 -0.16342110596E+03  0.17600072694E+03  0.00000000000E+00 0.  1.
         12    1    4    4    0    0 -0.19715490292E+02 -0.19844636739E+02 -0.85541478204E+02  0.89999192541E+02  0.00000000000E+00 0. -1.
         -5    1    5    5    0  502  0.83963777225E+01 -0.45572998810E+02 -0.22690843129E+03  0.23163964162E+03  0.47000000000E+01 0.  1.
         11    1    6    6    0    0 -0.48897026918E+02 -0.20414684534E+02 -0.13151432375E+03  0.14178750276E+03  0.00000000000E+00 0. -1.
        -12    1    6    6    0    0 -0.12771807002E+03  0.45801812258E+02 -0.62547213802E+03  0.64001961443E+03  0.00000000000E+00 0.  1.
</event>
<event>
12    1  0.8453150E-002  0.1875723E+03  0.7818608E-02  0.1160954E+00
         21   -1    0    0  503  502  0.00000000000E+00  0.00000000000E+00  0.11062740320E+03  0.11062740320E+03  0.00000000000E+00 0.  1.
         21   -1    0    0  501  503 -0.00000000000E+00 -0.00000000000E+00 -0.36361451329E+03  0.36361451329E+03  0.00000000000E+00 0.  1.
          6    2    1    2  501    0  0.36123133445E+02 -0.62370151320E+02 -0.21271870566E+03  0.28360646079E+03  0.17317176536E+03 0.  0.
         24    2    3    3    0    0  0.59298301140E+02 -0.85775573801E+02 -0.90665335603E+02  0.15709947545E+03  0.74741584985E+02 0.  0.
         -6    2    1    2    0  502 -0.36123133445E+02  0.62370151320E+02 -0.40268404438E+02  0.19063545570E+03  0.17182961336E+03 0.  0.
        -24    2    5    5    0    0  0.10698770653E+02  0.80566506668E+02 -0.68134592153E+02  0.13299855372E+03  0.80255012023E+02 0.  0.
          5    1    3    3  501    0 -0.23175167695E+02  0.23405422481E+02 -0.12205337006E+03  0.12650698535E+03  0.47000000000E+01 0. -1.
        -11    1    4    4    0    0  0.31075808906E+01 -0.66525954268E+02 -0.62620611874E+02  0.91414991559E+02  0.00000000000E+00 0.  1.
         12    1    4    4    0    0  0.56190720249E+02 -0.19249619534E+02 -0.28044723729E+02  0.65684483886E+02  0.00000000000E+00 0. -1.
         -5    1    5    5    0  502 -0.46821904097E+02 -0.18196355349E+02  0.27866187715E+02  0.57636901973E+02  0.47000000000E+01 0.  1.
         13    1    6    6    0    0  0.38101816290E+01  0.53210160132E+02 -0.84836246033E+02  0.10021490541E+03  0.00000000000E+00 0. -1.
        -14    1    6    6    0    0  0.68885890239E+01  0.27356346537E+02  0.16701653879E+02  0.32783648316E+02  0.00000000000E+00 0.  1.
</event>
<event>
12    1  0.8453150E-002  0.1941245E+03  0.7818608E-02  0.1154867E+00
         21   -1    0    0  501  502  0.00000000000E+00  0.00000000000E+00  0.17085828181E+03  0.17085828181E+03  0.00000000000E+00 0.  1.
         21   -1    0    0  502  503 -0.00000000000E+00 -0.00000000000E+00 -0.22691095424E+03  0.22691095424E+03  0.00000000000E+00 0.  1.
         -6    2    1    2    0  503 -0.78846782416E+02  0.42970860547E+02 -0.62312610794E+02  0.20388029924E+03  0.17210753906E+03 0.  0.
        -24    2    3    3    0    0 -0.10333703277E+03  0.66425265813E+02 -0.77901562519E+02  0.16626398755E+03  0.80524541815E+02 0.  0.
          6    2    1    2  501    0  0.78846782416E+02 -0.42970860547E+02  0.62599383665E+01  0.19388893681E+03  0.17172775849E+03 0.  0.
         24    2    5    5    0    0  0.10297612330E+03 -0.69357050696E+02 -0.80508652747E+01  0.15509015819E+03  0.92594051020E+02 0.  0.
          5    1    5    5  501    0 -0.24129340882E+02  0.26386190149E+02  0.14310803641E+02  0.38798778626E+02  0.47000000000E+01 0. -1.
        -13    1    6    6    0    0  0.18101243598E+02  0.20187662357E+02 -0.15953818071E+02  0.31459832204E+02  0.00000000000E+00 0.  1.
         14    1    6    6    0    0  0.84874879700E+02 -0.89544713054E+02  0.79029527967E+01  0.12363032598E+03  0.00000000000E+00 0. -1.
         -5    1    3    3    0  503  0.24490250355E+02 -0.23454405265E+02  0.15588951725E+02  0.37616311684E+02  0.47000000000E+01 0.  1.
         11    1    4    4    0    0 -0.19396251651E+02  0.58853811490E+02 -0.40693233313E+02  0.74134505748E+02  0.00000000000E+00 0. -1.
        -12    1    4    4    0    0 -0.83940781121E+02  0.75714543220E+01 -0.37208329205E+02  0.92129481807E+02  0.00000000000E+00 0.  1.
</event>
<event>
12    1  0.8453150E-002  0.1762034E+03  0.7818608E-02  0.1173001E+00
         21   -1    0    0  503  502  0.00000000000E+00  0.00000000000E+00  0.30185206604E+03  0.30185206604E+03  0.00000000000E+00 0.  1.
         21   -1    0    0  501  503 -0.00000000000E+00 -0.00000000000E+00 -0.16883229077E+03  0.16883229077E+03  0.00000000000E+00 0.  1.
          6    2    1    2  501    0 -0.10408656301E+02 -0.34630201256E+02 -0.83641966079E+02  0.19504773304E+03  0.17245303334E+03 0.  0.
         24    2    3    3    0    0  0.29171324644E+02 -0.44047554871E+02 -0.11057165072E+03  0.14603182383E+03  0.79423235618E+02 0.  0.
         -6    2    1    2    0  502  0.10408656301E+02  0.34630201256E+02  0.21666174135E+03  0.27563662377E+03  0.16651020159E+03 0.  0.
        -24    2    5    5    0    0 -0.24679201078E+02 -0.21675764251E+02  0.17916809922E+03  0.19928622962E+03  0.80838677722E+02 0.  0.
          5    1    3    3  501    0 -0.39579980945E+02  0.94173536157E+01  0.26929684640E+02  0.49015909209E+02  0.47000000000E+01 0. -1.
        -13    1    4    4    0    0  0.75137548301E+01 -0.49674085507E+02 -0.22296185839E+02  0.54964453837E+02  0.00000000000E+00 0.  1.
         14    1    4    4    0    0  0.21657569814E+02  0.56265306357E+01 -0.88275464880E+02  0.91067369991E+02  0.00000000000E+00 0. -1.
         -5    1    5    5    0  502  0.35087857379E+02  0.56305965507E+02  0.37493642135E+02  0.76350394155E+02  0.47000000000E+01 0.  1.
         11    1    6    6    0    0  0.19291314266E+02  0.17888792904E+02  0.37918998637E+02  0.46152076609E+02  0.00000000000E+00 0. -1.
        -12    1    6    6    0    0 -0.43970515345E+02 -0.39564557155E+02  0.14124910058E+03  0.15313415301E+03  0.00000000000E+00 0.  1.
</event>
<event>
12    1  0.8453150E-002  0.1786399E+03  0.7818608E-02  0.1169465E+00
         21   -1    0    0  501  502  0.00000000000E+00  0.00000000000E+00  0.11028062331E+04  0.11028062331E+04  0.00000000000E+00 0. -1.
         21   -1    0    0  502  503 -0.00000000000E+00 -0.00000000000E+00 -0.80728797636E+02  0.80728797636E+02  0.00000000000E+00 0. -1.
         -6    2    1    2    0  503  0.40801576971E+02 -0.91681462119E+01  0.35326509896E+02  0.18074413142E+03  0.17225462302E+03 0.  0.
        -24    2    3    3    0    0  0.45890126676E+02 -0.40434197008E+02  0.82425803608E+02  0.12378894958E+03  0.69201610694E+02 0.  0.
          6    2    1    2  501    0 -0.40801576971E+02  0.91681462119E+01  0.98675092558E+03  0.10027908993E+04  0.17367606357E+03 0.  0.
         24    2    5    5    0    0  0.17246661458E+02 -0.23516614335E+02  0.79928132910E+03  0.80378127353E+03  0.79769757105E+02 0.  0.
          5    1    5    5  501    0 -0.58048238429E+02  0.32684760547E+02  0.18746959648E+03  0.19900962580E+03  0.47000000000E+01 0. -1.
        -13    1    6    6    0    0  0.39957784974E+02  0.63435714825E+01  0.25311964760E+03  0.25633263834E+03  0.00000000000E+00 0.  1.
         14    1    6    6    0    0 -0.22711123516E+02 -0.29860185818E+02  0.54616168150E+03  0.54744863519E+03  0.00000000000E+00 0. -1.
         -5    1    3    3    0  503 -0.50885497050E+01  0.31266050796E+02 -0.47099293712E+02  0.56955181842E+02  0.47000000000E+01 0.  1.
         11    1    4    4    0    0  0.62020218022E+02 -0.25850955031E+02  0.46217012225E+02  0.81552385241E+02  0.00000000000E+00 0. -1.
        -12    1    4    4    0    0 -0.16130091346E+02 -0.14583241977E+02  0.36208791383E+02  0.42236564335E+02  0.00000000000E+00 0.  1.
</event>
<event>
12    1  0.8453150E-002  0.1822675E+03  0.7818608E-02  0.1166431E+00
         21   -1    0    0  503  502  0.00000000000E+00  0.00000000000E+00  0.49559868966E+03  0.49559868966E+03  0.00000000000E+00 0. -1.
         21   -1    0    0  501  503 -0.00000000000E+00 -0.00000000000E+00 -0.83194838401E+02  0.83194838401E+02  0.00000000000E+00 0. -1.
          6    2    1    2  501    0  0.51827856908E+02  0.62221794500E+01  0.72394705683E+02  0.19301163966E+03  0.17113637067E+03 0.  0.
         24    2    3    3    0    0  0.94004084104E+02  0.30896293466E+02  0.37511055002E+02  0.13279033838E+03  0.80217491499E+02 0.  0.
         -6    2    1    2    0  502 -0.51827856908E+02 -0.62221794500E+01  0.34000914557E+03  0.38578188840E+03  0.17463276918E+03 0.  0.
        -24    2    5    5    0    0 -0.91765102370E+02 -0.30160073081E+02  0.18036696197E+03  0.21942166745E+03  0.79266406226E+02 0.  0.
          5    1    3    3  501    0 -0.42176227195E+02 -0.24674114016E+02  0.34883650681E+02  0.60221301279E+02  0.47000000000E+01 0. -1.
        -11    1    4    4    0    0  0.75489606503E+02  0.52966742667E+02  0.45589056567E+02  0.10287136918E+03  0.00000000000E+00 0.  1.
         12    1    4    4    0    0  0.18514477601E+02 -0.22070449201E+02 -0.80780015650E+01  0.29918969201E+02  0.00000000000E+00 0. -1.
         -5    1    5    5    0  502  0.39937245462E+02  0.23937893631E+02  0.15964218361E+03  0.16636022095E+03  0.47000000000E+01 0.  1.
         13    1    6    6    0    0 -0.84032866050E+02 -0.11597127543E+02  0.18035946698E+03  0.19931270224E+03  0.00000000000E+00 0. -1.
        -14    1    6    6    0    0 -0.77322363205E+01 -0.18562945539E+02  0.74949826030E-02  0.20108965209E+02  0.00000000000E+00 0.  1.
</event>
<event>
12    1  0.8453150E-002  0.1753768E+03  0.7818608E-02  0.1172370E+00
         21   -1    0    0  501  502  0.00000000000E+00  0.00000000000E+00  0.26091270829E+04  0.26091270829E+04  0.00000000000E+00 0.  1.
         21   -1    0    0  502  503 -0.00000000000E+00 -0.00000000000E+00 -0.17416305834E+02  0.17416305834E+02  0.00000000000E+00 0.  1.
         -6    2    1    2    0  503  0.28504022952E+02  0.21589144521E+02  0.54918507635E+03  0.57650783021E+03  0.17169292275E+03 0.  0.
        -24    2    3    3    0    0  0.60346032295E+02 -0.38655238091E+01  0.51073943030E+03  0.52027606517E+03  0.78586464761E+02 0.  0.
          6    2    1    2  501    0 -0.28504022952E+02 -0.21589144521E+02  0.20425257007E+04  0.20500355585E+04  0.17162745305E+03 0.  0.
         24    2    5    5    0    0 -0.20542641977E+02  0.54419983353E+02  0.10441926287E+04  0.10487704669E+04  0.78725546013E+02 0.  0.
          5    1    5    5  501    0 -0.79613809754E+01 -0.76009127874E+02  0.99833307193E+03  0.10012650916E+04  0.47000000000E+01 0. -1.
        -11    1    6    6    0    0 -0.47110745388E+02  0.19017237707E+02  0.68058981543E+03  0.68248338773E+03  0.00000000000E+00 0.  1.
         12    1    6    6    0    0  0.26568103411E+02  0.35402745645E+02  0.36360281331E+03  0.36628707916E+03  0.00000000000E+00 0. -1.
         -5    1    3    3    0  503 -0.31842009343E+02  0.25454668330E+02  0.38445646055E+02  0.56231765038E+02  0.47000000000E+01 0.  1.
         11    1    4    4    0    0 -0.10364582040E+02  0.61460328811E+01  0.14184347358E+02  0.18611662768E+02  0.00000000000E+00 0. -1.
        -12    1    4    4    0    0  0.70710614335E+02 -0.10011556690E+02  0.49655508294E+03  0.50166440240E+03  0.00000000000E+00 0.  1.
</event>
<event>
12    1  0.8453150E-002  0.2054316E+03  0.7818608E-02  0.1145485E+00
         21   -1    0    0  501  502  0.00000000000E+00  0.00000000000E+00  0.32017966491E+03  0.32017966491E+03  0.00000000000E+00 0. -1.
         21   -1    0    0  502  503 -0.00000000000E+00 -0.00000000000E+00 -0.15155082502E+03  0.15155082502E+03  0.00000000000E+00 0. -1.
         -6    2    1    2    0  503 -0.54430954368E+01  0.11022738201E+03 -0.27024608562E+01  0.20422994948E+03  0.17182219280E+03 0.  0.
        -24    2    3    3    0    0 -0.46890603574E+02  0.64496196793E+02  0.49565376451E+02  0.12321603680E+03  0.79793339802E+02 0.  0.
          6    2    1    2  501    0  0.54430954368E+01 -0.11022738201E+03  0.17133130075E+03  0.26750054045E+03  0.17326979394E+03 0.  0.
         24    2    5    5    0    0  0.42341835532E+02 -0.12445197865E+03  0.93465689409E+02  0.18004198112E+03  0.79988460695E+02 0.  0.
          5    1    5    5  501    0 -0.36898740095E+02  0.14224596635E+02  0.77865611340E+02  0.87458559326E+02  0.47000000000E+01 0. -1.
        -11    1    6    6    0    0  0.16190614420E+02  0.31386761230E+01 -0.44687198659E+01  0.17086741654E+02  0.00000000000E+00 0.  1.
         12    1    6    6    0    0  0.26151221112E+02 -0.12759065477E+03  0.97934409274E+02  0.16295523947E+03  0.00000000000E+00 0. -1.
         -5    1    3    3    0  503  0.41447508138E+02  0.45731185218E+02 -0.52267837307E+02  0.81013912688E+02  0.47000000000E+01 0.  1.
         11    1    4    4    0    0 -0.13345784648E+02  0.21532344016E+02 -0.21795795509E+02  0.33418685022E+02  0.00000000000E+00 0. -1.
        -12    1    4    4    0    0 -0.33544818926E+02  0.42963852777E+02  0.71361171960E+02  0.89797351775E+02  0.00000000000E+00 0.  1.
</event>
<event>
12    1  0.8453150E-002  0.2436153E+03  0.7818608E-02  0.1117520E+00
         21   -1    0    0  501  502  0.00000000000E+00  0.00000000000E+00  0.15217717149E+03  0.15217717149E+03  0.00000000000E+00 0.  1.
         21   -1    0    0  502  503 -0.00000000000E+00 -0.00000000000E+00 -0.43838698655E+03  0.43838698655E+03  0.00000000000E+00 0. -1.
         -6    2    1    2    0  503 -0.15406959627E+03  0.74994077215E+02 -0.43711957400E+02  0.24682930443E+03  0.17219877524E+03 0.  0.
        -24    2    3    3    0    0 -0.10044471956E+03  0.10398426177E+02  0.30853547869E+02  0.13444456298E+03  0.83223374985E+02 0.  0.
          6    2    1    2  501    0  0.15406959627E+03 -0.74994077215E+02 -0.24249785766E+03  0.34373485360E+03  0.17316722120E+03 0.  0.
         24    2    5    5    0    0  0.15114314511E+03 -0.66184736261E+02 -0.11561304501E+03  0.21642415379E+03  0.79046622588E+02 0.  0.
          5    1    5    5  501    0  0.29264511672E+01 -0.88093409537E+01 -0.12688481265E+03  0.12731069981E+03  0.47000000000E+01 0. -1.
        -13    1    6    6    0    0 -0.73274838431E+00 -0.43889675579E+01  0.92917869427E+01  0.10302293968E+02  0.00000000000E+00 0.  1.
         14    1    6    6    0    0  0.15187589349E+03 -0.61795768703E+02 -0.12490483195E+03  0.20612185982E+03  0.00000000000E+00 0. -1.
         -5    1    3    3    0  503 -0.53624876712E+02  0.64595651037E+02 -0.74565505269E+02  0.11238474145E+03  0.47000000000E+01 0.  1.
         11    1    4    4    0    0 -0.29524296953E+01 -0.12534108633E+02 -0.18698443025E+02  0.22703578834E+02  0.00000000000E+00 0. -1.
        -12    1    4    4    0    0 -0.97492289866E+02  0.22932534810E+02  0.49551990894E+02  0.11174098415E+03  0.00000000000E+00 0.  1.
</event>
<event>
12    1  0.8453150E-002  0.2084277E+03  0.7818608E-02  0.1142862E+00
         21   -1    0    0  501  502  0.00000000000E+00  0.00000000000E+00  0.40136457841E+02  0.40136457841E+02  0.00000000000E+00 0. -1.
         21   -1    0    0  502  503 -0.00000000000E+00 -0.00000000000E+00 -0.14286552686E+04  0.14286552686E+04  0.00000000000E+00 0.  1.
         -6    2    1    2    0  503  0.10670250027E+03 -0.48212542074E+02 -0.33236987600E+03  0.39231598084E+03  0.17243033832E+03 0.  0.
        -24    2    3    3    0    0  0.45950332089E+02 -0.92644375811E+02 -0.21394509388E+03  0.25191821444E+03  0.83641318650E+02 0.  0.
          6    2    1    2  501    0 -0.10670250027E+03  0.48212542074E+02 -0.10561489347E+04  0.10764757456E+04  0.17216151050E+03 0.  0.
         24    2    5    5    0    0 -0.36661286088E+02  0.88094828679E+02 -0.54622210261E+03  0.56019691337E+03  0.79732349944E+02 0.  0.
          5    1    5    5  501    0 -0.70041214183E+02 -0.39882286605E+02 -0.50992683211E+03  0.51627883220E+03  0.47000000000E+01 0. -1.
        -11    1    6    6    0    0 -0.12602924312E+02  0.17244280633E+02 -0.34255449928E+03  0.34321973121E+03  0.00000000000E+00 0.  1.
         12    1    6    6    0    0 -0.24058361775E+02  0.70850548047E+02 -0.20366760334E+03  0.21697718216E+03  0.00000000000E+00 0. -1.
         -5    1    3    3    0  503  0.60752168182E+02  0.44431833737E+02 -0.11842478212E+03  0.14039776640E+03  0.47000000000E+01 0.  1.
         11    1    4    4    0    0  0.27977349428E+02 -0.24276516945E+02 -0.13586573560E+02  0.39454737828E+02  0.00000000000E+00 0. -1.
        -12    1    4    4    0    0  0.17972982661E+02 -0.68367858866E+02 -0.20035852032E+03  0.21246347661E+03  0.00000000000E+00 0.  1.
</event>
<event>
12    1  0.8453150E-002  0.1876921E+03  0.7818608E-02  0.1160922E+00
         21   -1    0    0  503  502  0.00000000000E+00  0.00000000000E+00  0.31605861965E+03  0.31605861965E+03  0.00000000000E+00 0.  1.
         21   -1    0    0  501  503 -0.00000000000E+00 -0.00000000000E+00 -0.14837588555E+03  0.14837588555E+03  0.00000000000E+00 0.  1.
          6    2    1    2  501    0  0.12236883959E+02 -0.70374175266E+02 -0.33178671840E+02  0.19060211614E+03  0.17356865080E+03 0.  0.
         24    2    3    3    0    0 -0.59769267777E+01 -0.41588670170E+02 -0.87809774905E+02  0.12604984564E+03  0.80079122602E+02 0.  0.
         -6    2    1    2    0  502 -0.12236883959E+02  0.70374175266E+02  0.20086140594E+03  0.27383238906E+03  0.17186217452E+03 0.  0.
        -24    2    5    5    0    0  0.31933718137E+02  0.50744620704E+02  0.20205146582E+03  0.22525391910E+03  0.79496882596E+02 0.  0.
          5    1    3    3  501    0  0.18213810736E+02 -0.28785505096E+02  0.54631103065E+02  0.64552270504E+02  0.47000000000E+01 0. -1.
        -11    1    4    4    0    0  0.16499127026E+02 -0.11241176284E+02 -0.85951645092E+02  0.88239846616E+02  0.00000000000E+00 0.  1.
         12    1    4    4    0    0 -0.22476053803E+02 -0.30347493886E+02 -0.18581298127E+01  0.37809999023E+02  0.00000000000E+00 0. -1.
         -5    1    5    5    0  502 -0.44170602096E+02  0.19629554562E+02 -0.11900598844E+01  0.48578469967E+02  0.47000000000E+01 0.  1.
         13    1    6    6    0    0  0.35052950674E+02 -0.11447201749E+02  0.65295520379E+02  0.74988350831E+02  0.00000000000E+00 0. -1.
        -14    1    6    6    0    0 -0.31192325368E+01  0.62191822453E+02  0.13675594545E+03  0.15026556827E+03  0.00000000000E+00 0.  1.
</event>
<event>
12    1  0.8453150E-002  0.2447072E+03  0.7818608E-02  0.1116761E+00
         21   -1    0    0  501  502  0.00000000000E+00  0.00000000000E+00  0.10540930368E+03  0.10540930368E+03  0.00000000000E+00 0. -1.
         21   -1    0    0  502  503 -0.00000000000E+00 -0.00000000000E+00 -0.11467616680E+04  0.11467616680E+04  0.00000000000E+00 0.  1.
         -6    2    1    2    0  503  0.13801192413E+03 -0.10628398257E+03 -0.96599033638E+03  0.99650336599E+03  0.17186637917E+03 0.  0.
        -24    2    3    3    0    0  0.16151407991E+03 -0.57069601699E+02 -0.71199020720E+03  0.73667156994E+03  0.80070027888E+02 0.  0.
          6    2    1    2  501    0 -0.13801192413E+03  0.10628398257E+03 -0.75362027908E+02  0.25566760567E+03  0.17129773257E+03 0.  0.
         24    2    5    5    0    0 -0.15143732803E+03  0.13074697014E+03 -0.72228447434E+02  0.22719676872E+03  0.79833505345E+02 0.  0.
          5    1    5    5  501    0  0.13425403897E+02 -0.24462987564E+02 -0.31335804745E+01  0.28470836955E+02  0.47000000000E+01 0. -1.
        -13    1    6    6    0    0 -0.13070583174E+03  0.11115508076E+03 -0.89836778014E+02  0.19367527750E+03  0.00000000000E+00 0.  1.
         14    1    6    6    0    0 -0.20731496293E+02  0.19591889374E+02  0.17608330580E+02  0.33521491220E+02  0.00000000000E+00 0. -1.
         -5    1    3    3    0  503 -0.23502155783E+02 -0.49214380875E+02 -0.25400012918E+03  0.25983179604E+03  0.47000000000E+01 0.  1.
         11    1    4    4    0    0 -0.85350692704E+01 -0.97274090932E+00 -0.17880835298E+02  0.19837285683E+02  0.00000000000E+00 0. -1.
        -12    1    4    4    0    0  0.17004914919E+03 -0.56096860790E+02 -0.69410937190E+03  0.71683428426E+03  0.00000000000E+00 0.  1.
</event>
<event>
12    1  0.8453150E-002  0.1785969E+03  0.7818608E-02  0.1169177E+00
         21   -1    0    0  503  502  0.00000000000E+00  0.00000000000E+00  0.16866508092E+03  0.16866508092E+03  0.00000000000E+00 0.  1.
         21   -1    0    0  501  503 -0.00000000000E+00 -0.00000000000E+00 -0.22555966965E+03  0.22555966965E+03  0.00000000000E+00 0.  1.
          6    2    1    2  501    0  0.44836110144E+01 -0.50662738088E+02 -0.10772421476E+03  0.20856975212E+03  0.17120169175E+03 0.  0.
         24    2    3    3    0    0 -0.34939789683E+02  0.22058029657E+02 -0.28722648130E+02  0.94088958476E+02  0.79500918334E+02 0.  0.
         -6    2    1    2    0  502 -0.44836110144E+01  0.50662738088E+02  0.50829626036E+02  0.18565499845E+03  0.17116457509E+03 0.  0.
        -24    2    5    5    0    0 -0.11626600720E+02 -0.33047398529E+02 -0.14615611631E+01  0.86584985159E+02  0.79167639222E+02 0.  0.
          5    1    3    3  501    0  0.39423400698E+02 -0.72720767745E+02 -0.79001566632E+02  0.11448079365E+03  0.47000000000E+01 0. -1.
        -11    1    4    4    0    0  0.17577013835E+02 -0.13813583290E+02 -0.19808260094E+02  0.29868606707E+02  0.00000000000E+00 0.  1.
         12    1    4    4    0    0 -0.52516803518E+02  0.35871612947E+02 -0.89143880358E+01  0.64220351769E+02  0.00000000000E+00 0. -1.
         -5    1    5    5    0  502  0.71429897058E+01  0.83710136616E+02  0.52291187200E+02  0.99070013289E+02  0.47000000000E+01 0.  1.
         11    1    6    6    0    0  0.28943460806E+02 -0.22579921540E+01 -0.16612799563E+02  0.33448580856E+02  0.00000000000E+00 0. -1.
        -12    1    6    6    0    0 -0.40570061526E+02 -0.30789406375E+02  0.15151238400E+02  0.53136404302E+02  0.00000000000E+00 0.  1.
</event>
<event>
12    1  0.8453150E-002  0.2883534E+03  0.7818608E-02  0.1091295E+00
         21   -1    0    0  503  502  0.00000000000E+00  0.00000000000E+00  0.19258367869E+03  0.19258367869E+03  0.00000000000E+00 0.  1.
         21   -1    0    0  501  503 -0.00000000000E+00 -0.00000000000E+00 -0.51249673264E+03  0.51249673264E+03  0.00000000000E+00 0.  1.
          6    2    1    2  501    0 -0.13348522331E+03  0.18751106008E+03 -0.30085900801E+03  0.41672994248E+03  0.17369225589E+03 0.  0.
         24    2    3    3    0    0 -0.35556895464E+02  0.14857687813E+02 -0.13157483900E+03  0.15581163298E+03  0.74028933611E+02 0.  0.
         -6    2    1    2    0  502  0.13348522331E+03 -0.18751106008E+03 -0.19054045934E+02  0.28835046885E+03  0.17263902724E+03 0.  0.
        -24    2    5    5    0    0  0.12451814984E+03 -0.15349649044E+03  0.42639673058E+02  0.21717740992E+03  0.79258712115E+02 0.  0.
          5    1    3    3  501    0 -0.97928327845E+02  0.17265337227E+03 -0.16928416901E+03  0.26091830949E+03  0.47000000000E+01 0. -1.
        -11    1    4    4    0    0  0.76438916670E+01  0.34264243516E+02 -0.68092947605E+02  0.76610162362E+02  0.00000000000E+00 0.  1.
         12    1    4    4    0    0 -0.43200787131E+02 -0.19406555702E+02 -0.63481891398E+02  0.79201470620E+02  0.00000000000E+00 0. -1.
         -5    1    5    5    0  502  0.89670734724E+01 -0.34014569647E+02 -0.61693718991E+02  0.71173058933E+02  0.47000000000E+01 0.  1.
         11    1    6    6    0    0  0.48952891288E+02 -0.90530979777E+01  0.65160674339E+01  0.50207601847E+02  0.00000000000E+00 0. -1.
        -12    1    6    6    0    0  0.75565258548E+02 -0.14444339246E+03  0.36123605624E+02  0.16696980807E+03  0.00000000000E+00 0.  1.
</event>
<event>
12    1  0.8453150E-002  0.2022816E+03  0.7818608E-02  0.1147877E+00
         21   -1    0    0  503  502  0.00000000000E+00  0.00000000000E+00  0.13977507151E+03  0.13977507151E+03  0.00000000000E+00 0.  1.
         21   -1    0    0  501  503 -0.00000000000E+00 -0.00000000000E+00 -0.41114391273E+03  0.41114391273E+03  0.00000000000E+00 0.  1.
          6    2    1    2  501    0  0.77940973046E+02 -0.73850956694E+02  0.12405931722E+02  0.20242802310E+03  0.17115618105E+03 0.  0.
         24    2    3    3    0    0 -0.13367750426E+02 -0.71579559451E+02  0.22493535875E+02  0.11041556751E+03  0.79895608820E+02 0.  0.
         -6    2    1    2    0  502 -0.77940973046E+02  0.73850956694E+02 -0.28377477294E+03  0.34849096113E+03  0.17143240403E+03 0.  0.
        -24    2    5    5    0    0 -0.16384091311E+02 -0.24272500943E+01 -0.52058980928E+02  0.96852504639E+02  0.79974622028E+02 0.  0.
          5    1    3    3  501    0  0.91308723472E+02 -0.22713972435E+01 -0.10087604153E+02  0.92012455598E+02  0.47000000000E+01 0. -1.
        -13    1    4    4    0    0 -0.19415896462E+02  0.12959420478E+02  0.46199902198E+01  0.23796384687E+02  0.00000000000E+00 0.  1.
         14    1    4    4    0    0  0.60481460364E+01 -0.84538979929E+02  0.17873545655E+02  0.86619182818E+02  0.00000000000E+00 0. -1.
         -5    1    5    5    0  502 -0.61556881736E+02  0.76278206789E+02 -0.23171579201E+03  0.25163845649E+03  0.47000000000E+01 0.  1.
         11    1    6    6    0    0 -0.34924721395E+02  0.85569003981E+01  0.45838817575E+01  0.36248705920E+02  0.00000000000E+00 0. -1.
        -12    1    6    6    0    0  0.18540630084E+02 -0.10984150492E+02 -0.56642862686E+02  0.60603798719E+02  0.00000000000E+00 0.  1.
</event>
<event>
12    1  0.8453150E-002  0.2000909E+03  0.7818608E-02  0.1150027E+00
         21   -1    0    0  501  502  0.00000000000E+00  0.00000000000E+00  0.49020203753E+03  0.49020203753E+03  0.00000000000E+00 0.  1.
         21   -1    0    0  502  503 -0.00000000000E+00 -0.00000000000E+00 -0.20044849890E+03  0.20044849890E+03  0.00000000000E+00 0. -1.
         -6    2    1    2    0  503 -0.10107404781E+03 -0.18567928792E+02 -0.12198041376E+03  0.23287196518E+03  0.16967439320E+03 0.  0.
        -24    2    3    3    0    0 -0.64251886272E+02 -0.71540128456E+02 -0.43141112801E+02  0.13089328656E+03  0.77624751104E+02 0.  0.
          6    2    1    2  501    0  0.10107404781E+03  0.18567928792E+02  0.41173395239E+03  0.45777857124E+03  0.17168471573E+03 0.  0.
         24    2    5    5    0    0 -0.66714171032E+01 -0.15426859769E+02  0.11858378424E+03  0.14357506721E+03  0.79178218163E+02 0.  0.
          5    1    5    5  501    0  0.10774546491E+03  0.33994788561E+02  0.29315016816E+03  0.31420350404E+03  0.47000000000E+01 0. -1.
        -13    1    6    6    0    0  0.22807093090E+02 -0.37066653294E+02  0.74684931207E+02  0.86440379632E+02  0.00000000000E+00 0.  1.
         14    1    6    6    0    0 -0.29478510193E+02  0.21639793525E+02  0.43898853030E+02  0.57134687576E+02  0.00000000000E+00 0. -1.
         -5    1    3    3    0  503 -0.36822161536E+02  0.52972199664E+02 -0.78839300962E+02  0.10197867862E+03  0.47000000000E+01 0.  1.
         13    1    4    4    0    0 -0.21798440748E+02 -0.57051064235E+02 -0.57410026288E+02  0.83820684009E+02  0.00000000000E+00 0. -1.
        -14    1    4    4    0    0 -0.42453445524E+02 -0.14489064221E+02  0.14268913487E+02  0.47072602552E+02  0.00000000000E+00 0.  1.
</event>
<event>
12    1  0.8453150E-002  0.2078333E+03  0.7818608E-02  0.1143481E+00
         21   -1    0    0  501  502  0.00000000000E+00  0.00000000000E+00  0.10257655996E+04  0.10257655996E+04  0.00000000000E+00 0. -1.
         21   -1    0    0  502  503 -0.00000000000E+00 -0.00000000000E+00 -0.42095110360E+02  0.42095110360E+02  0.00000000000E+00 0. -1.
         -6    2    1    2    0  503 -0.11106340444E+03  0.25986260345E+02  0.52727830595E+03  0.56676015714E+03  0.17373628942E+03 0.  0.
        -24    2    3    3    0    0 -0.44229962805E+02  0.78878650921E+02  0.34521713305E+03  0.36568138009E+03  0.79811475441E+02 0.  0.
          6    2    1    2  501    0  0.11106340444E+03 -0.25986260345E+02  0.45639218325E+03  0.50110055279E+03  0.17261973681E+03 0.  0.
         24    2    5    5    0    0  0.12963466964E+03 -0.56036519702E+02  0.40947462095E+03  0.44218317308E+03  0.88945231693E+02 0.  0.
          5    1    5    5  501    0 -0.18571265206E+02  0.30050259357E+02  0.46917562307E+02  0.58917379708E+02  0.47000000000E+01 0. -1.
        -13    1    6    6    0    0 -0.39404869263E+01 -0.63931875370E+01  0.11289789865E+03  0.11314740741E+03  0.00000000000E+00 0.  1.
         14    1    6    6    0    0  0.13357515657E+03 -0.49643332165E+02  0.29657672230E+03  0.32903576567E+03  0.00000000000E+00 0. -1.
         -5    1    3    3    0  503 -0.66833441632E+02 -0.52892390576E+02  0.18206117290E+03  0.20107877704E+03  0.47000000000E+01 0.  1.
         11    1    4    4    0    0 -0.56773459054E+02  0.60865659088E+02  0.17201879720E+03  0.19109767319E+03  0.00000000000E+00 0. -1.
        -12    1    4    4    0    0  0.12543496249E+02  0.18012991832E+02  0.17319833585E+03  0.17458370690E+03  0.00000000000E+00 0.  1.
</event>
<event>
12    1  0.8453150E-002  0.2344831E+03  0.7818608E-02  0.1123872E+00
         21   -1    0    0  501  502  0.00000000000E+00  0.00000000000E+00  0.21454385665E+03  0.21454385665E+03  0.00000000000E+00 0.  1.
         21   -1    0    0  502  503 -0.00000000000E+00 -0.00000000000E+00 -0.25963967670E+03  0.25963967670E+03  0.00000000000E+00 0.  1.
         -6    2    1    2    0  503  0.13926197409E+03 -0.70379187996E+02 -0.57178719894E+02  0.23938936937E+03  0.17231000153E+03 0.  0.
        -24    2    3    3    0    0  0.15847927974E+03 -0.85135409532E+02 -0.73534041864E+02  0.20978130514E+03  0.78976076193E+02 0.  0.
          6    2    1    2  501    0 -0.13926197409E+03  0.70379187996E+02  0.12082899841E+02  0.23479416398E+03  0.17502907027E+03 0.  0.
         24    2    5    5    0    0 -0.80453740611E+02  0.21348044025E+02 -0.59394376732E+02  0.12994402106E+03  0.80182374994E+02 0.  0.
          5    1    5    5  501    0 -0.58808233478E+02  0.49031143972E+02  0.71477276573E+02  0.10485014292E+03  0.47000000000E+01 0. -1.
        -13    1    6    6    0    0 -0.63309539837E+02 -0.21393815481E+02 -0.21183539705E+02  0.70103748328E+02  0.00000000000E+00 0.  1.
         14    1    6    6    0    0 -0.17144200774E+02  0.42741859506E+02 -0.38210837027E+02  0.59840272731E+02  0.00000000000E+00 0. -1.
         -5    1    3    3    0  503 -0.19217305652E+02  0.14756221535E+02  0.16355321970E+02  0.29608064227E+02  0.47000000000E+01 0.  1.
         11    1    4    4    0    0  0.96414033169E+01  0.11250382176E+02  0.52857346908E+01  0.15731075877E+02  0.00000000000E+00 0. -1.
        -12    1    4    4    0    0  0.14883787642E+03 -0.96385791708E+02 -0.78819776555E+02  0.19405022926E+03  0.00000000000E+00 0.  1.
</event>
<event>
12    1  0.8453150E-002  0.1865225E+03  0.7818608E-02  0.1162649E+00
         21   -1    0    0  501  502  0.00000000000E+00  0.00000000000E+00  0.38851559787E+03  0.38851559787E+03  0.00000000000E+00 0.  1.
         21   -1    0    0  502  503 -0.00000000000E+00 -0.00000000000E+00 -0.51039434265E+03  0.51039434265E+03  0.00000000000E+00 0.  1.
         -6    2    1    2    0  503 -0.36768800498E+02  0.49745968653E+02 -0.47018512677E+03  0.50583068377E+03  0.17596596582E+03 0.  0.
        -24    2    3    3    0    0  0.42251371503E+02  0.42052665680E+02 -0.19004660244E+03  0.21462103883E+03  0.79942942949E+02 0.  0.
          6    2    1    2  501    0  0.36768800498E+02 -0.49745968653E+02  0.34830638199E+03  0.39307925674E+03  0.17136907615E+03 0.  0.
         24    2    5    5    0    0  0.17725631341E+02  0.21383303161E+02  0.28053198363E+03  0.29289205859E+03  0.79474023964E+02 0.  0.
          5    1    5    5  501    0  0.19043169156E+02 -0.71129271814E+02  0.67774398354E+02  0.10018719815E+03  0.47000000000E+01 0. -1.
        -13    1    6    6    0    0  0.49551551327E+02  0.13369416085E+02  0.17574133615E+03  0.18308226227E+03  0.00000000000E+00 0.  1.
         14    1    6    6    0    0 -0.31825919985E+02  0.80138870757E+01  0.10479064749E+03  0.10980979633E+03  0.00000000000E+00 0. -1.
         -5    1    3    3    0  503 -0.79020172001E+02  0.76933029733E+01 -0.28013852433E+03  0.29120964494E+03  0.47000000000E+01 0.  1.
         11    1    4    4    0    0  0.43130609939E+01  0.26980938707E+02 -0.86089137467E+01  0.28647634188E+02  0.00000000000E+00 0. -1.
        -12    1    4    4    0    0  0.37938310509E+02  0.15071726973E+02 -0.18143768869E+03  0.18597340465E+03  0.00000000000E+00 0.  1.
</event>
<event>
12    1  0.8453150E-002  0.1807470E+03  0.7818608E-02  0.1167753E+00
         21   -1    0    0  503  502  0.00000000000E+00  0.00000000000E+00  0.11962142027E+04  0.11962142027E+04  0.00000000000E+00 0.  1.
         21   -1    0    0  501  503 -0.00000000000E+00 -0.00000000000E+00 -0.54404587944E+02  0.54404587944E+02  0.00000000000E+00 0.  1.
          6    2    1    2  501    0  0.35816521840E+02  0.30918144926E+02  0.12408499692E+03  0.21696852962E+03  0.17157943193E+03 0.  0.
         24    2    3    3    0    0  0.20426853402E+02  0.76220291648E+02  0.39454230067E+02  0.11963619640E+03  0.80804665827E+02 0.  0.
         -6    2    1    2    0  502 -0.35816521840E+02 -0.30918144926E+02  0.10177246179E+04  0.10336502611E+04  0.17444400089E+03 0.  0.
        -24    2    5    5    0    0 -0.61064517429E+02  0.10116768984E+02  0.90936067644E+03  0.91496513460E+03  0.79957072043E+02 0.  0.
          5    1    3    3  501    0  0.15389668439E+02 -0.45302146722E+02  0.84630766852E+02  0.97332333221E+02  0.47000000000E+01 0. -1.
        -11    1    4    4    0    0  0.45969792707E+02  0.61990032892E+02  0.94673520773E+01  0.77753564386E+02  0.00000000000E+00 0.  1.
         12    1    4    4    0    0 -0.25542939305E+02  0.14230258756E+02  0.29986877989E+02  0.41882632011E+02  0.00000000000E+00 0. -1.
         -5    1    5    5    0  502  0.25247995588E+02 -0.41034913910E+02  0.10836394143E+03  0.11868512646E+03  0.47000000000E+01 0.  1.
         11    1    6    6    0    0  0.80880232190E+00  0.12771503134E+01 -0.14011711880E+01  0.20612022747E+01  0.00000000000E+00 0. -1.
        -12    1    6    6    0    0 -0.61873319751E+02  0.88396186708E+01  0.91076184763E+03  0.91290393232E+03  0.00000000000E+00 0.  1.
</event>
<event>
12    1  0.8453150E-002  0.1773537E+03  0.7818608E-02  0.1170529E+00
         21   -1    0    0  501  502  0.00000000000E+00  0.00000000000E+00  0.78472199836E+02  0.78472199836E+02  0.00000000000E+00 0. -1.
         21   -1    0    0  502  503 -0.00000000000E+00 -0.00000000000E+00 -0.50944820511E+03  0.50944820511E+03  0.00000000000E+00 0. -1.
         -6    2    1    2    0  503 -0.44643007429E+02  0.20832851549E+01 -0.35174484051E+03  0.39367332100E+03  0.17104652189E+03 0.  0.
        -24    2    3    3    0    0 -0.92211144943E+01 -0.47689287834E+02 -0.11715608772E+03  0.15121509272E+03  0.82347788386E+02 0.  0.
          6    2    1    2  501    0  0.44643007429E+02 -0.20832851549E+01 -0.79231164764E+02  0.19424708395E+03  0.17163045756E+03 0.  0.
         24    2    5    5    0    0 -0.10033354235E+02 -0.18506082115E+02 -0.10334034183E+03  0.13209762535E+03  0.79545038198E+02 0.  0.
          5    1    5    5  501    0  0.54676361664E+02  0.16422796960E+02  0.24109177064E+02  0.62149458594E+02  0.47000000000E+01 0. -1.
        -13    1    6    6    0    0 -0.25545053548E+02 -0.40872596179E+02 -0.38205594483E+02  0.61504360243E+02  0.00000000000E+00 0.  1.
         14    1    6    6    0    0  0.15511699313E+02  0.22366514064E+02 -0.65134747346E+02  0.70593265109E+02  0.00000000000E+00 0. -1.
         -5    1    3    3    0  503 -0.35421892935E+02  0.49772572989E+02 -0.23458875280E+03  0.24245822828E+03  0.47000000000E+01 0.  1.
         11    1    4    4    0    0 -0.42635054863E+02 -0.14003690095E+02 -0.76692567578E+02  0.88857195326E+02  0.00000000000E+00 0. -1.
        -12    1    4    4    0    0  0.33413940369E+02 -0.33685597739E+02 -0.40463520138E+02  0.62357897399E+02  0.00000000000E+00 0.  1.
</event>
<event>
12    1  0.8453150E-002  0.1907047E+03  0.7818608E-02  0.1158095E+00
         21   -1    0    0  501  502  0.00000000000E+00  0.00000000000E+00  0.74809401054E+03  0.74809401054E+03  0.00000000000E+00 0.  1.
         21   -1    0    0  502  503 -0.00000000000E+00 -0.00000000000E+00 -0.66770125387E+02  0.66770125387E+02  0.00000000000E+00 0.  1.
         -6    2    1    2    0  503  0.30806465838E+02 -0.69464369578E+02  0.12721339146E+03  0.22924121731E+03  0.17491126827E+03 0.  0.
        -24    2    3    3    0    0 -0.26565694094E+02 -0.26254946033E+02  0.13195191898E+03  0.15710826602E+03  0.76659246248E+02 0.  0.
          6    2    1    2  501    0 -0.30806465838E+02  0.69464369578E+02  0.55411049370E+03  0.58562291862E+03  0.17361286419E+03 0.  0.
         24    2    5    5    0    0  0.81977202819E+01  0.46355830529E+02  0.52101279333E+03  0.52929460530E+03  0.80513245775E+02 0.  0.
          5    1    5    5  501    0 -0.39004186119E+02  0.23108539049E+02  0.33097700365E+02  0.56328313318E+02  0.47000000000E+01 0. -1.
        -13    1    6    6    0    0 -0.31476982560E+02  0.32177373709E+02  0.36227002719E+03  0.36505582643E+03  0.00000000000E+00 0.  1.
         14    1    6    6    0    0  0.39674702842E+02  0.14178456819E+02  0.15874276614E+03  0.16423877888E+03  0.00000000000E+00 0. -1.
         -5    1    3    3    0  503  0.57372159931E+02 -0.43209423545E+02 -0.47385275230E+01  0.72132951287E+02  0.47000000000E+01 0.  1.
         11    1    4    4    0    0 -0.28496149600E+02  0.21779676292E+02  0.42978052204E+02  0.55977654583E+02  0.00000000000E+00 0. -1.
        -12    1    4    4    0    0  0.19304555060E+01 -0.48034622325E+02  0.88973866778E+02  0.10113061144E+03  0.00000000000E+00 0.  1.
</event>
<event>
12    1  0.8453150E-002  0.2985134E+03  0.7818608E-02  0.1085994E+00
         21   -1    0    0  503  502  0.00000000000E+00  0.00000000000E+00  0.39211529890E+03  0.39211529890E+03  0.00000000000E+00 0.  1.
         21   -1    0    0  501  503 -0.00000000000E+00 -0.00000000000E+00 -0.30004556651E+03  0.30004556651E+03  0.00000000000E+00 0. -1.
          6    2    1    2  501    0 -0.12887944388E+02  0.24422167363E+03 -0.12448323124E+03  0.32337175699E+03  0.17106400374E+03 0.  0.
         24    2    3    3    0    0 -0.62426175203E+02  0.90651837095E+02 -0.71128038625E+02  0.15335235343E+03  0.79642724122E+02 0.  0.
         -6    2    1    2    0  502  0.12887944388E+02 -0.24422167363E+03  0.21655296363E+03  0.36878910842E+03  0.17117212231E+03 0.  0.
        -24    2    5    5    0    0 -0.18816991645E+02 -0.25235550337E+03  0.18957918592E+03  0.32611550020E+03  0.79835283422E+02 0.  0.
          5    1    3    3  501    0  0.49538230815E+02  0.15356983653E+03 -0.53355192619E+02  0.17001940355E+03  0.47000000000E+01 0. -1.
        -11    1    4    4    0    0 -0.60497515730E+02  0.68418149459E+02 -0.14483936971E+02  0.92470411565E+02  0.00000000000E+00 0.  1.
         12    1    4    4    0    0 -0.19286594727E+01  0.22233687636E+02 -0.56644101655E+02  0.60881941867E+02  0.00000000000E+00 0. -1.
         -5    1    5    5    0  502  0.31704936033E+02  0.81338297422E+01  0.26973777710E+02  0.42673608226E+02  0.47000000000E+01 0.  1.
         11    1    6    6    0    0 -0.37796582660E+02 -0.66713594613E+02  0.74301776942E+02  0.10677096714E+03  0.00000000000E+00 0. -1.
        -12    1    6    6    0    0  0.18979591015E+02 -0.18564190876E+03  0.11527740898E+03  0.21934453306E+03  0.00000000000E+00 0.  1.
</event>
<event>
12    1  0.8453150E-002  0.3437407E+03  0.7818608E-02  0.1065858E+00
         21   -1    0    0  501  502  0.00000000000E+00  0.00000000000E+00  0.22937101740E+03  0.22937101740E+03  0.00000000000E+00 0. -1.
         21   -1    0    0  502  503 -0.00000000000E+00 -0.00000000000E+00 -0.11385099809E+04  0.11385099809E+04  0.00000000000E+00 0.  1.
         -6    2    1    2    0  503 -0.18612268094E+03 -0.22336926748E+03 -0.96611567179E+03  0.10254448698E+04  0.18336359411E+03 0.  0.
        -24    2    3    3    0    0 -0.20566342615E+03 -0.18446760829E+03 -0.71595990839E+03  0.77148586566E+03  0.79158746293E+02 0.  0.
          6    2    1    2  501    0  0.18612268094E+03  0.22336926748E+03  0.56976708297E+02  0.34243612851E+03  0.17169937334E+03 0.  0.
         24    2    5    5    0    0  0.47778270402E+02  0.15724959135E+03  0.49590820251E+02  0.18885348352E+03  0.78715892194E+02 0.  0.
          5    1    5    5  501    0  0.13834441054E+03  0.66119676134E+02  0.73858880463E+01  0.15358264499E+03  0.47000000000E+01 0. -1.
        -11    1    6    6    0    0 -0.29777269917E+01  0.17474870667E+02 -0.18216917296E+02  0.25418379937E+02  0.00000000000E+00 0.  1.
         12    1    6    6    0    0  0.50755997394E+02  0.13977472068E+03  0.67807737547E+02  0.16343510359E+03  0.00000000000E+00 0. -1.
         -5    1    3    3    0  503  0.19540745207E+02 -0.38901659193E+02 -0.25015576339E+03  0.25395900411E+03  0.47000000000E+01 0.  1.
         13    1    4    4    0    0 -0.10202387672E+03 -0.42103132797E+02 -0.24627524605E+03  0.26987597527E+03  0.00000000000E+00 0. -1.
        -14    1    4    4    0    0 -0.10363954943E+03 -0.14236447549E+03 -0.46968466235E+03  0.50160989039E+03  0.00000000000E+00 0.  1.
</event>
<event>
12    1  0.8453150E-002  0.2102470E+03  0.7818608E-02  0.1141728E+00
         21   -1    0    0  503  502  0.00000000000E+00  0.00000000000E+00  0.44848265161E+02  0.44848265161E+02  0.00000000000E+00 0.  1.
         21   -1    0    0  501  503 -0.00000000000E+00 -0.00000000000E+00 -0.12803456779E+04  0.12803456779E+04  0.00000000000E+00 0.  1.
          6    2    1    2  501    0 -0.11541641656E+03 -0.14789749248E+02 -0.94218245632E+03  0.96535566718E+03  0.17511167084E+03 0.  0.
         24    2    3    3    0    0 -0.10846976458E+03 -0.39845824843E+02 -0.92145714576E+03  0.93177455052E+03  0.75941832667E+02 0.  0.
         -6    2    1    2    0  502  0.11541641656E+03  0.14789749248E+02 -0.29331495641E+03  0.35983827587E+03  0.17294575807E+03 0.  0.
        -24    2    5    5    0    0  0.65096186695E+02 -0.62584659815E+02 -0.19193143311E+03  0.22265360651E+03  0.67694906074E+02 0.  0.
          5    1    3    3  501    0 -0.69466519882E+01  0.25056075595E+02 -0.20725310563E+02  0.33581116658E+02  0.47000000000E+01 0. -1.
        -11    1    4    4    0    0 -0.14612416437E+02  0.11404997761E+02 -0.42904487870E+02  0.46737477118E+02  0.00000000000E+00 0.  1.
         12    1    4    4    0    0 -0.93857348138E+02 -0.51250822604E+02 -0.87855265789E+03  0.88503707340E+03  0.00000000000E+00 0. -1.
         -5    1    5    5    0  502  0.50320229869E+02  0.77374409063E+02 -0.10138352330E+03  0.13718466936E+03  0.47000000000E+01 0.  1.
         11    1    6    6    0    0 -0.33879160175E+01 -0.17572293969E+01 -0.70231472212E+02  0.70335094506E+02  0.00000000000E+00 0. -1.
        -12    1    6    6    0    0  0.68484102712E+02 -0.60827430419E+02 -0.12169996090E+03  0.15231851200E+03  0.00000000000E+00 0.  1.
</event>
<event>
12    1  0.8453150E-002  0.2035281E+03  0.7818608E-02  0.1147103E+00
         21   -1    0    0  503  502  0.00000000000E+00  0.00000000000E+00  0.37702600249E+03  0.37702600249E+03  0.00000000000E+00 0. -1.
         21   -1    0    0  501  503 -0.00000000000E+00 -0.00000000000E+00 -0.15076105768E+03  0.15076105768E+03  0.00000000000E+00 0. -1.
          6    2    1    2  501    0  0.90446497233E+02 -0.55814937578E+02 -0.25340178277E+02  0.20509946884E+03  0.17357359063E+03 0.  0.
         24    2    3    3    0    0  0.78572216990E+02  0.15077082089E+02  0.27036996507E+02  0.11603693226E+03  0.79578004376E+02 0.  0.
         -6    2    1    2    0  502 -0.90446497233E+02  0.55814937578E+02  0.25160512309E+03  0.32268759134E+03  0.17183209107E+03 0.  0.
        -24    2    5    5    0    0 -0.86433773348E+02  0.93480215361E+02  0.23917939094E+03  0.28254703924E+03  0.80104310083E+02 0.  0.
          5    1    3    3  501    0  0.11874280243E+02 -0.70892019666E+02 -0.52377174785E+02  0.89062536580E+02  0.47000000000E+01 0. -1.
        -11    1    4    4    0    0 -0.30144707178E+01 -0.12152119167E+01  0.32498242817E+02  0.32660366806E+02  0.00000000000E+00 0.  1.
         12    1    4    4    0    0  0.81586687707E+02  0.16292294005E+02 -0.54612463098E+01  0.83376565450E+02  0.00000000000E+00 0. -1.
         -5    1    5    5    0  502 -0.40127238845E+01 -0.37665277784E+02  0.12425732149E+02  0.40140552100E+02  0.47000000000E+01 0.  1.
         11    1    6    6    0    0  0.12180392993E+01  0.52450056078E+02  0.10147844249E+03  0.11423819980E+03  0.00000000000E+00 0. -1.
        -12    1    6    6    0    0 -0.87651812647E+02  0.41030159283E+02  0.13770094845E+03  0.16830883944E+03  0.00000000000E+00 0.  1.
</event>
<event>
12    1  0.8453150E-002  0.2311122E+03  0.7818608E-02  0.1125966E+00
         21   -1    0    0  503  502  0.00000000000E+00  0.00000000000E+00  0.63863861331E+03  0.63863861331E+03  0.00000000000E+00 0.  1.
         21   -1    0    0  501  503 -0.00000000000E+00 -0.00000000000E+00 -0.83829022188E+02  0.83829022188E+02  0.00000000000E+00 0. -1.
          6    2    1    2  501    0 -0.17117371655E+02  0.15260333463E+03  0.25242015202E+03  0.34224082383E+03  0.17271961730E+03 0.  0.
         24    2    3    3    0    0 -0.59085459721E+02  0.12571814789E+03  0.11816238414E+03  0.19895309959E+03  0.79522591460E+02 0.  0.
         -6    2    1    2    0  502  0.17117371655E+02 -0.15260333463E+03  0.30238943910E+03  0.38022681166E+03  0.17190774641E+03 0.  0.
        -24    2    5    5    0    0  0.41282963100E+02 -0.28735999321E+02  0.18960919858E+03  0.21090887044E+03  0.77465235740E+02 0.  0.
          5    1    3    3  501    0  0.41968088066E+02  0.26885186738E+02  0.13425776788E+03  0.14328772424E+03  0.47000000000E+01 0. -1.
        -13    1    4    4    0    0 -0.44179933803E+02  0.18057162800E+02  0.56615099061E+02  0.74048613227E+02  0.00000000000E+00 0.  1.
         14    1    4    4    0    0 -0.14905525918E+02  0.10766098509E+03  0.61547285081E+02  0.12490448637E+03  0.00000000000E+00 0. -1.
         -5    1    5    5    0  502 -0.24165591445E+02 -0.12386733531E+03  0.11278024052E+03  0.16931794122E+03  0.47000000000E+01 0.  1.
         11    1    6    6    0    0  0.35121467045E+01 -0.43461481197E+02  0.54203860266E+02  0.69565034248E+02  0.00000000000E+00 0. -1.
        -12    1    6    6    0    0  0.37770816395E+02  0.14725481876E+02  0.13540533831E+03  0.14134383620E+03  0.00000000000E+00 0.  1.
</event>
<event>
12    1  0.8453150E-002  0.1901348E+03  0.7818608E-02  0.1158639E+00
         21   -1    0    0  503  502  0.00000000000E+00  0.00000000000E+00  0.17787695110E+03  0.17787695110E+03  0.00000000000E+00 0.  1.
         21   -1    0    0  501  503 -0.00000000000E+00 -0.00000000000E+00 -0.21917096452E+03  0.21917096452E+03  0.00000000000E+00 0.  1.
          6    2    1    2  501    0 -0.36898780965E+02 -0.72073601482E+02 -0.76559255515E+02  0.20496964958E+03  0.17203230388E+03 0.  0.
         24    2    3    3    0    0  0.16166374796E+02 -0.80390945030E+02 -0.34944315891E+01  0.11416410209E+03  0.79354744265E+02 0.  0.
         -6    2    1    2    0  502  0.36898780965E+02  0.72073601482E+02  0.35265242099E+02  0.19207826604E+03  0.17057051010E+03 0.  0.
        -24    2    5    5    0    0  0.22478411365E+02  0.99601780583E+02  0.68343460574E+02  0.14644925946E+03  0.79691676606E+02 0.  0.
          5    1    3    3  501    0 -0.53065155761E+02  0.83173435480E+01 -0.73064823926E+02  0.90805547491E+02  0.47000000000E+01 0. -1.
        -13    1    4    4    0    0  0.64433744169E+01  0.96140784736E+01  0.17737101959E+02  0.21179054858E+02  0.00000000000E+00 0.  1.
         14    1    4    4    0    0  0.97230003792E+01 -0.90005023503E+02 -0.21231533548E+02  0.92985047234E+02  0.00000000000E+00 0. -1.
         -5    1    5    5    0  502  0.14420369600E+02 -0.27528179101E+02 -0.33078218474E+02  0.45629006580E+02  0.47000000000E+01 0.  1.
         13    1    6    6    0    0 -0.68081479474E+00  0.10559570436E+03  0.56173510281E+02  0.11960927867E+03  0.00000000000E+00 0. -1.
        -14    1    6    6    0    0  0.23159226160E+02 -0.59939237729E+01  0.12169950293E+02  0.26839980787E+02  0.00000000000E+00 0.  1.
</event>
<event>
12    1  0.8453150E-002  0.2850246E+03  0.7818608E-02  0.1092998E+00
         21   -1    0    0  501  502  0.00000000000E+00  0.00000000000E+00  0.31828000218E+03  0.31828000218E+03  0.00000000000E+00 0.  1.
         21   -1    0    0  502  503 -0.00000000000E+00 -0.00000000000E+00 -0.48392603547E+03  0.48392603547E+03  0.00000000000E+00 0. -1.
         -6    2    1    2    0  503  0.17392663271E+03  0.14626666035E+03 -0.35865433554E+03  0.45811784520E+03  0.17203086408E+03 0.  0.
        -24    2    3    3    0    0  0.99954291681E+02  0.82947771793E+02 -0.31488493160E+03  0.35125793875E+03  0.85781269044E+02 0.  0.
          6    2    1    2  501    0 -0.17392663271E+03 -0.14626666035E+03  0.19300830225E+03  0.34408819244E+03  0.17175584400E+03 0.  0.
         24    2    5    5    0    0 -0.20108786206E+03 -0.13439299412E+03  0.17772763937E+03  0.31040874786E+03  0.79174944327E+02 0.  0.
          5    1    5    5  501    0  0.27161229358E+02 -0.11873666224E+02  0.15280662875E+02  0.33679444588E+02  0.47000000000E+01 0. -1.
        -13    1    6    6    0    0 -0.50111141252E+02 -0.71986664276E+02  0.86997444663E+02  0.12353850286E+03  0.00000000000E+00 0.  1.
         14    1    6    6    0    0 -0.15097672081E+03 -0.62406329845E+02  0.90730194710E+02  0.18687024499E+03  0.00000000000E+00 0. -1.
         -5    1    3    3    0  503  0.73972341025E+02  0.63318888553E+02 -0.43769403941E+02  0.10685990645E+03  0.47000000000E+01 0.  1.
         11    1    4    4    0    0  0.76639525613E+02  0.93668070625E+02 -0.20189781300E+03  0.23539339676E+03  0.00000000000E+00 0. -1.
        -12    1    4    4    0    0  0.23314766068E+02 -0.10720298833E+02 -0.11298711860E+03  0.11586454200E+03  0.00000000000E+00 0.  1.
</event>
<event>
12    1  0.8453150E-002  0.1893819E+03  0.7818608E-02  0.1159370E+00
         21   -1    0    0  501  502  0.00000000000E+00  0.00000000000E+00  0.15444865038E+04  0.15444865038E+04  0.00000000000E+00 0. -1.
         21   -1    0    0  502  503 -0.00000000000E+00 -0.00000000000E+00 -0.26576214972E+02  0.26576214972E+02  0.00000000000E+00 0. -1.
         -6    2    1    2    0  503  0.55181110497E+02 -0.49215411043E+02  0.46946582372E+03  0.50565138913E+03  0.17267905504E+03 0.  0.
        -24    2    3    3    0    0  0.35857718895E+02 -0.48750706938E+02  0.47496558225E+03  0.48501291155E+03  0.77348643289E+02 0.  0.
          6    2    1    2  501    0 -0.55181110497E+02  0.49215411043E+02  0.10484444651E+04  0.10654113297E+04  0.17435135008E+03 0.  0.
         24    2    5    5    0    0  0.61899058992E+01  0.62686653149E+02  0.37996100655E+03  0.39396505451E+03  0.82886466096E+02 0.  0.
          5    1    5    5  501    0 -0.61371016396E+02 -0.13471242105E+02  0.66848345860E+03  0.67144627517E+03  0.47000000000E+01 0. -1.
        -11    1    6    6    0    0  0.22997815357E+02 -0.45630378446E+01  0.19565106796E+03  0.19705091023E+03  0.00000000000E+00 0.  1.
         12    1    6    6    0    0 -0.16807909458E+02  0.67249690993E+02  0.18430993858E+03  0.19691414428E+03  0.00000000000E+00 0. -1.
         -5    1    3    3    0  503  0.19323391601E+02 -0.46470410542E+00 -0.54997585294E+01  0.20638477579E+02  0.47000000000E+01 0.  1.
         13    1    4    4    0    0 -0.15455215309E+02 -0.30579665665E+02  0.91535919751E+02  0.97738448100E+02  0.00000000000E+00 0. -1.
        -14    1    4    4    0    0  0.51312934204E+02 -0.18171041273E+02  0.38342966250E+03  0.38727446345E+03  0.00000000000E+00 0.  1.
</event>
<event>
12    1  0.8453150E-002  0.2069013E+03  0.7818608E-02  0.1145347E+00
         21   -1    0    0  501  502  0.00000000000E+00  0.00000000000E+00  0.55122667170E+03  0.55122667170E+03  0.00000000000E+00 0. -1.
         21   -1    0    0  502  503 -0.00000000000E+00 -0.00000000000E+00 -0.78616436810E+02  0.78616436810E+02  0.00000000000E+00 0. -1.
         -6    2    1    2    0  503  0.97594241489E+02 -0.16856302689E+02  0.29750176724E+03  0.35878756346E+03  0.17439163762E+03 0.  0.
        -24    2    3    3    0    0 -0.13172882238E+02  0.10689684080E+02  0.86309040561E+02  0.11867801578E+03  0.79670739766E+02 0.  0.
          6    2    1    2  501    0 -0.97594241489E+02  0.16856302689E+02  0.17510846766E+03  0.27105554505E+03  0.18165726561E+03 0.  0.
         24    2    5    5    0    0 -0.25663372942E+02 -0.58759614201E+02  0.91416650592E+02  0.13719656336E+03  0.79715694942E+02 0.  0.
          5    1    5    5  501    0 -0.71930868548E+02  0.75615916889E+02  0.83691817064E+02  0.13385898170E+03  0.47000000000E+01 0. -1.
        -11    1    6    6    0    0  0.16961035767E+01  0.89722219374E+01 -0.91319629947E+01  0.12913956867E+02  0.00000000000E+00 0.  1.
         12    1    6    6    0    0 -0.27359476518E+02 -0.67731836138E+02  0.10054861359E+03  0.12428260649E+03  0.00000000000E+00 0. -1.
         -5    1    3    3    0  503  0.11076712373E+03 -0.27545986769E+02  0.21119272667E+03  0.24010954768E+03  0.47000000000E+01 0.  1.
         13    1    4    4    0    0  0.20238060044E+02  0.27928246222E+02  0.14086247941E+02  0.37255716238E+02  0.00000000000E+00 0. -1.
        -14    1    4    4    0    0 -0.33410942282E+02 -0.17238562142E+02  0.72222792620E+02  0.81422299542E+02  0.00000000000E+00 0.  1.
</event>
<event>
12    1  0.8453150E-002  0.1788368E+03  0.7818608E-02  0.1169291E+00
         21   -1    0    0  503  502  0.00000000000E+00  0.00000000000E+00  0.77934634931E+03  0.77934634931E+03  0.00000000000E+00 0. -1.
         21   -1    0    0  501  503 -0.00000000000E+00 -0.00000000000E+00 -0.46275905704E+02  0.46275905704E+02  0.00000000000E+00 0. -1.
          6    2    1    2  501    0  0.39406401693E+02  0.66481046045E+01  0.22460817560E+03  0.28710872180E+03  0.17431443943E+03 0.  0.
         24    2    3    3    0    0  0.48997431729E+02 -0.41066890339E+02  0.21380729338E+03  0.23703420077E+03  0.79902539584E+02 0.  0.
         -6    2    1    2    0  502 -0.39406401693E+02 -0.66481046045E+01  0.50846226801E+03  0.53851353322E+03  0.17281749242E+03 0.  0.
        -24    2    5    5    0    0 -0.62828451901E+02  0.29953200789E+02  0.19413805031E+03  0.22116506257E+03  0.79873610901E+02 0.  0.
          5    1    3    3  501    0 -0.95910300362E+01  0.47714994943E+02  0.10800882222E+02  0.50074521030E+02  0.47000000000E+01 0. -1.
        -13    1    4    4    0    0 -0.29650616790E+00 -0.36636965748E+02  0.15908905187E+03  0.16325342753E+03  0.00000000000E+00 0.  1.
         14    1    4    4    0    0  0.49293937897E+02 -0.44299245908E+01  0.54718241505E+02  0.73780773232E+02  0.00000000000E+00 0. -1.
         -5    1    5    5    0  502  0.23422050208E+02 -0.36601305393E+02  0.31432421769E+03  0.31734847065E+03  0.47000000000E+01 0.  1.
         13    1    6    6    0    0 -0.14690859646E+02  0.34375583198E+02  0.15357921256E+03  0.15806352080E+03  0.00000000000E+00 0. -1.
        -14    1    6    6    0    0 -0.48137592256E+02 -0.44223824096E+01  0.40558837752E+02  0.63101541773E+02  0.00000000000E+00 0.  1.
</event>
<event>
12    1  0.8453150E-002  0.1955605E+03  0.7818608E-02  0.1153970E+00
         21   -1    0    0  501  502  0.00000000000E+00  0.00000000000E+00  0.70985173738E+02  0.70985173738E+02  0.00000000000E+00 0. -1.
         21   -1    0    0  502  503 -0.00000000000E+00 -0.00000000000E+00 -0.76732034130E+03  0.76732034130E+03  0.00000000000E+00 0. -1.
         -6    2    1    2    0  503  0.87241563907E+02 -0.21965881771E+01 -0.57839849856E+03  0.60993526799E+03  0.17280130939E+03 0.  0.
        -24    2    3    3    0    0  0.75903053777E+02  0.61298546360E+02 -0.42380971724E+03  0.44236446136E+03  0.80949705958E+02 0.  0.
          6    2    1    2  501    0 -0.87241563907E+02  0.21965881771E+01 -0.11793666900E+03  0.22837024704E+03  0.17500856084E+03 0.  0.
         24    2    5    5    0    0 -0.67015419471E+02  0.24751482602E+02 -0.14957394803E+03  0.18431542204E+03  0.80598427632E+02 0.  0.
          5    1    5    5  501    0 -0.20226144436E+02 -0.22554894425E+02  0.31637279031E+02  0.44054825000E+02  0.47000000000E+01 0. -1.
        -11    1    6    6    0    0  0.18882346417E+02  0.45971543306E+01 -0.28915567959E+02  0.34839444665E+02  0.00000000000E+00 0.  1.
         12    1    6    6    0    0 -0.85897765888E+02  0.20154328272E+02 -0.12065838007E+03  0.14947597738E+03  0.00000000000E+00 0. -1.
         -5    1    3    3    0  503  0.11338510130E+02 -0.63495134537E+02 -0.15458878133E+03  0.16757080663E+03  0.47000000000E+01 0.  1.
         11    1    4    4    0    0  0.75899107457E+02  0.70227941744E+02 -0.28347778173E+03  0.30174872170E+03  0.00000000000E+00 0. -1.
        -12    1    4    4    0    0  0.39463194639E-02 -0.89293953836E+01 -0.14033193551E+03  0.14061573966E+03  0.00000000000E+00 0.  1.
</event>
<event>
12    1  0.8453150E-002  0.1925944E+03  0.7818608E-02  0.1156157E+00
         21   -1    0    0  501  502  0.00000000000E+00  0.00000000000E+00  0.40311132030E+03  0.40311132030E+03  0.00000000000E+00 0. -1.
         21   -1    0    0  502  503 -0.00000000000E+00 -0.00000000000E+00 -0.13993465793E+03  0.13993465793E+03  0.00000000000E+00 0. -1.
         -6    2    1    2    0  503  0.37634206448E+02 -0.77294448880E+02 -0.27341622043E+02  0.19452544432E+03  0.17234215639E+03 0.  0.
        -24    2    3    3    0    0  0.59240135733E+02  0.68523217150E+00  0.20649882036E+02  0.10032925915E+03  0.78292269019E+02 0.  0.
          6    2    1    2  501    0 -0.37634206448E+02  0.77294448880E+02  0.29051828442E+03  0.34852053391E+03  0.17226411018E+03 0.  0.
         24    2    5    5    0    0  0.14534727891E+02 -0.12281254466E+02  0.11198094124E+03  0.14201853090E+03  0.85249307278E+02 0.  0.
          5    1    5    5  501    0 -0.52168934339E+02  0.89575703346E+02  0.17853734318E+03  0.20650200301E+03  0.47000000000E+01 0. -1.
        -13    1    6    6    0    0  0.12472375245E+01  0.72910183424E+01 -0.12925089588E+02  0.14892027759E+02  0.00000000000E+00 0.  1.
         14    1    6    6    0    0  0.13287490367E+02 -0.19572272808E+02  0.12490603083E+03  0.12712650314E+03  0.00000000000E+00 0. -1.
         -5    1    3    3    0  503 -0.21605929285E+02 -0.77979681051E+02 -0.47991504078E+02  0.94196185171E+02  0.47000000000E+01 0.  1.
         13    1    4    4    0    0  0.14194186958E+02 -0.66732848534E+01 -0.28949030478E+02  0.32924975927E+02  0.00000000000E+00 0. -1.
        -14    1    4    4    0    0  0.45045948775E+02  0.73585170249E+01  0.49598912514E+02  0.67404283220E+02  0.00000000000E+00 0.  1.
</event>
<event>
12    1  0.8453150E-002  0.2029120E+03  0.7818608E-02  0.1147377E+00
         21   -1    0    0  503  502  0.00000000000E+00  0.00000000000E+00  0.10650939086E+03  0.10650939086E+03  0.00000000000E+00 0. -1.
         21   -1    0    0  501  503 -0.00000000000E+00 -0.00000000000E+00 -0.48346625551E+03  0.48346625551E+03  0.00000000000E+00 0. -1.
          6    2    1    2  501    0 -0.70813075736E+02  0.80945678020E+02 -0.32112017515E+03  0.37985715711E+03  0.17206568058E+03 0.  0.
         24    2    3    3    0    0 -0.10970265942E+03  0.57846382920E+02 -0.28737570063E+03  0.32322892463E+03  0.80692421622E+02 0.  0.
         -6    2    1    2    0  502  0.70813075736E+02 -0.80945678020E+02 -0.55836689499E+02  0.21011848926E+03  0.17165473821E+03 0.  0.
        -24    2    5    5    0    0  0.56030880674E+02 -0.11832173362E+02 -0.88142031086E+02  0.13226661124E+03  0.80286853774E+02 0.  0.
          5    1    3    3  501    0  0.38889583681E+02  0.23099295101E+02 -0.33744474525E+02  0.56628232482E+02  0.47000000000E+01 0. -1.
        -11    1    4    4    0    0 -0.18821838672E+02  0.50312076723E+02 -0.13962532812E+03  0.14960213544E+03  0.00000000000E+00 0.  1.
         12    1    4    4    0    0 -0.90880820745E+02  0.75343061963E+01 -0.14775037250E+03  0.17362678919E+03  0.00000000000E+00 0. -1.
         -5    1    5    5    0  502  0.14782195062E+02 -0.69113504658E+02  0.32305341587E+02  0.77851878025E+02  0.47000000000E+01 0.  1.
         13    1    6    6    0    0  0.34490834844E+02  0.14229626253E+02  0.58526386728E+00  0.37315445667E+02  0.00000000000E+00 0. -1.
        -14    1    6    6    0    0  0.21540045830E+02 -0.26061799616E+02 -0.88727294953E+02  0.94951165571E+02  0.00000000000E+00 0.  1.
</event>
<event>
12    1  0.8453150E-002  0.3280171E+03  0.7818608E-02  0.1072093E+00
         21   -1    0    0  501  502  0.00000000000E+00  0.00000000000E+00  0.72392240323E+03  0.72392240323E+03  0.00000000000E+00 0. -1.
         21   -1    0    0  502  503 -0.00000000000E+00 -0.00000000000E+00 -0.23357448473E+03  0.23357448473E+03  0.00000000000E+00 0. -1.
         -6    2    1    2    0  503  0.25405856771E+03 -0.11533636107E+03 -0.43896677755E+02  0.33094131337E+03  0.17247319376E+03 0.  0.
        -24    2    3    3    0    0  0.23835270039E+03 -0.14774589141E+03 -0.37147433095E+02  0.29399954529E+03  0.80093337007E+02 0.  0.
          6    2    1    2  501    0 -0.25405856771E+03  0.11533636107E+03  0.53424459625E+03  0.62655557460E+03  0.17119102613E+03 0.  0.
         24    2    5    5    0    0 -0.16934966486E+03  0.11034190507E+03  0.25544390503E+03  0.33508952471E+03  0.78605063137E+02 0.  0.
          5    1    5    5  501    0 -0.84708902848E+02  0.49944559973E+01  0.27880069122E+03  0.29146604988E+03  0.47000000000E+01 0. -1.
        -11    1    6    6    0    0 -0.14573455121E+03  0.62334287818E+02  0.21904997100E+03  0.27038308499E+03  0.00000000000E+00 0.  1.
         12    1    6    6    0    0 -0.23615113647E+02  0.48007617252E+02  0.36393934032E+02  0.64706439719E+02  0.00000000000E+00 0. -1.
         -5    1    3    3    0  503  0.15705867315E+02  0.32409530343E+02 -0.67492446602E+01  0.36941768077E+02  0.47000000000E+01 0.  1.
         13    1    4    4    0    0  0.30943090523E+02 -0.38602485810E+02 -0.33221924145E+02  0.59592977822E+02  0.00000000000E+00 0. -1.
        -14    1    4    4    0    0  0.20740960987E+03 -0.10914340560E+03 -0.39255089499E+01  0.23440656747E+03  0.00000000000E+00 0.  1.
</event>
<event>
12    1  0.8453150E-002  0.2913705E+03  0.7818608E-02  0.1089649E+00
         21   -1    0    0  501  502  0.00000000000E+00  0.00000000000E+00  0.84037946529E+03  0.84037946529E+03  0.00000000000E+00 0.  1.
         21   -1    0    0  502  503 -0.00000000000E+00 -0.00000000000E+00 -0.10190654024E+03  0.10190654024E+03  0.00000000000E+00 0. -1.
         -6    2    1    2    0  503  0.22779505244E+03 -0.58427826040E+02  0.41393835558E+03  0.50614443059E+03  0.17185117290E+03 0.  0.
        -24    2    3    3    0    0  0.10437021536E+03 -0.93132703990E+02  0.20512303959E+03  0.26106475955E+03  0.80700092352E+02 0.  0.
          6    2    1    2  501    0 -0.22779505244E+03  0.58427826040E+02  0.32453456948E+03  0.43614157494E+03  0.17202438731E+03 0.  0.
         24    2    5    5    0    0 -0.23637312673E+03  0.82962628399E+02  0.30964608546E+03  0.40582166660E+03  0.77816926748E+02 0.  0.
          5    1    5    5  501    0  0.85780742917E+01 -0.24534802358E+02  0.14888484022E+02  0.30319908341E+02  0.47000000000E+01 0. -1.
        -11    1    6    6    0    0 -0.13750346367E+03  0.89455215048E+01  0.18105086960E+03  0.22752283898E+03  0.00000000000E+00 0.  1.
         12    1    6    6    0    0 -0.98869663058E+02  0.74017106894E+02  0.12859521586E+03  0.17829882761E+03  0.00000000000E+00 0. -1.
         -5    1    3    3    0  503  0.12342483709E+03  0.34704877950E+02  0.20881531599E+03  0.24507967104E+03  0.47000000000E+01 0.  1.
         13    1    4    4    0    0  0.51971172862E+01 -0.32226043076E+02  0.10484378520E+02  0.34284837369E+02  0.00000000000E+00 0. -1.
        -14    1    4    4    0    0  0.99173098069E+02 -0.60906660914E+02  0.19463866107E+03  0.22677992218E+03  0.00000000000E+00 0.  1.
</event>
<event>
12    1  0.8453150E-002  0.1788998E+03  0.7818608E-02  0.1169037E+00
         21   -1    0    0  501  502  0.00000000000E+00  0.00000000000E+00  0.96493175689E+03  0.96493175689E+03  0.00000000000E+00 0. -1.
         21   -1    0    0  502  503 -0.00000000000E+00 -0.00000000000E+00 -0.49044886409E+02  0.49044886409E+02  0.00000000000E+00 0. -1.
         -6    2    1    2    0  503 -0.34961290239E+02  0.31346375586E+02  0.16777040070E+03  0.24476704498E+03  0.17192763559E+03 0.  0.
        -24    2    3    3    0    0 -0.67163428345E+02  0.47610500020E+02  0.17385173890E+03  0.20788111112E+03  0.78819054960E+02 0.  0.
          6    2    1    2  501    0  0.34961290239E+02 -0.31346375586E+02  0.74811646978E+03  0.76920959832E+03  0.17262753754E+03 0.  0.
         24    2    5    5    0    0 -0.34775685311E+02  0.20201050398E+02  0.30265782161E+03  0.31536394162E+03  0.78963459666E+02 0.  0.
          5    1    5    5  501    0  0.69736975550E+02 -0.51547425984E+02  0.44545864817E+03  0.45384565670E+03  0.47000000000E+01 0. -1.
        -11    1    6    6    0    0 -0.25411666871E+02 -0.15356833577E+02  0.38299644990E+02  0.48460787830E+02  0.00000000000E+00 0.  1.
         12    1    6    6    0    0 -0.93640184400E+01  0.35557883976E+02  0.26435817662E+03  0.26690315379E+03  0.00000000000E+00 0. -1.
         -5    1    3    3    0  503  0.32202138105E+02 -0.16264124434E+02 -0.60813381948E+01  0.36885933856E+02  0.47000000000E+01 0.  1.
         11    1    4    4    0    0 -0.50267307774E+02  0.52510110956E+02  0.64681996982E+02  0.97303004666E+02  0.00000000000E+00 0. -1.
        -12    1    4    4    0    0 -0.16896120571E+02 -0.48996109354E+01  0.10916974192E+03  0.11057810646E+03  0.00000000000E+00 0.  1.
</event>
<event>
12    1  0.8453150E-002  0.2218162E+03  0.7818608E-02  0.1133334E+00
         21   -1    0    0  501  502  0.00000000000E+00  0.00000000000E+00  0.56954025844E+03  0.56954025844E+03  0.00000000000E+00 0. -1.
         21   -1    0    0  502  503 -0.00000000000E+00 -0.00000000000E+00 -0.87707553229E+02  0.87707553229E+02  0.00000000000E+00 0. -1.
         -6    2    1    2    0  503 -0.12477909879E+03 -0.45543107651E+02  0.18264320862E+03  0.28733421689E+03  0.17764687555E+03 0.  0.
        -24    2    3    3    0    0 -0.13714682286E+03 -0.43575579631E+02  0.81091975246E+02  0.18490582842E+03  0.83103398098E+02 0.  0.
          6    2    1    2  501    0  0.12477909879E+03  0.45543107651E+02  0.29918949659E+03  0.36991359478E+03  0.17227221070E+03 0.  0.
         24    2    5    5    0    0  0.11966702177E+03 -0.14619511212E+02  0.26017348477E+03  0.29787184841E+03  0.80644092745E+02 0.  0.
          5    1    5    5  501    0  0.51120770191E+01  0.60162618863E+02  0.39016011826E+02  0.72041746361E+02  0.47000000000E+01 0. -1.
        -11    1    6    6    0    0 -0.41779575361E+01  0.38025889443E+01 -0.30257928728E+01  0.64086218770E+01  0.00000000000E+00 0.  1.
         12    1    6    6    0    0  0.12384497931E+03 -0.18422100156E+02  0.26319927764E+03  0.29146322654E+03  0.00000000000E+00 0. -1.
         -5    1    3    3    0  503  0.12367724065E+02 -0.19675280201E+01  0.10155123337E+03  0.10242838847E+03  0.47000000000E+01 0.  1.
         13    1    4    4    0    0 -0.89786420178E+02 -0.43964996462E+02  0.92486921548E+02  0.13619233760E+03  0.00000000000E+00 0. -1.
        -14    1    4    4    0    0 -0.47360402679E+02  0.38941683117E+00 -0.11394946302E+02  0.48713490828E+02  0.00000000000E+00 0.  1.
</event>
<event>
12    1  0.8453150E-002  0.1874151E+03  0.7818608E-02  0.1161593E+00
         21   -1    0    0  501  502  0.00000000000E+00  0.00000000000E+00  0.25741533723E+03  0.25741533723E+03  0.00000000000E+00 0.  1.
         21   -1    0    0  502  503 -0.00000000000E+00 -0.00000000000E+00 -0.26093313222E+03  0.26093313222E+03  0.00000000000E+00 0.  1.
         -6    2    1    2    0  503 -0.57596695791E+02 -0.45568831735E+02 -0.18250300000E+03  0.25919580007E+03  0.16876379935E+03 0.  0.
        -24    2    3    3    0    0 -0.54155756316E+02 -0.24487071115E+01 -0.19195534068E+03  0.21466915685E+03  0.79354596448E+02 0.  0.
          6    2    1    2  501    0  0.57596695791E+02  0.45568831735E+02  0.17898520501E+03  0.25915266939E+03  0.17242535964E+03 0.  0.
         24    2    5    5    0    0  0.18679897525E+02  0.81731888270E+02  0.67343048018E+02  0.13542577230E+03  0.82316544842E+02 0.  0.
          5    1    5    5  501    0  0.38916798266E+02 -0.36163056535E+02  0.11164215699E+03  0.12372689709E+03  0.47000000000E+01 0. -1.
        -11    1    6    6    0    0  0.36644761030E+02  0.78948671269E+02  0.75760583620E+02  0.11539236212E+03  0.00000000000E+00 0.  1.
         12    1    6    6    0    0 -0.17964863505E+02  0.27832170015E+01 -0.84175356025E+01  0.20033410175E+02  0.00000000000E+00 0. -1.
         -5    1    3    3    0  503 -0.34409394749E+01 -0.43120124624E+02  0.94523406776E+01  0.44526643219E+02  0.47000000000E+01 0.  1.
         11    1    4    4    0    0  0.15061816130E+02 -0.28843494542E+01 -0.90875649770E+02  0.92160520279E+02  0.00000000000E+00 0. -1.
        -12    1    4    4    0    0 -0.69217572445E+02  0.43564234264E+00 -0.10107969091E+03  0.12250863657E+03  0.00000000000E+00 0.  1.
</event>
<event>
12    1  0.8453150E-002  0.1994386E+03  0.7818608E-02  0.1150365E+00
         21   -1    0    0  503  502  0.00000000000E+00  0.00000000000E+00  0.16990322181E+04  0.16990322181E+04  0.00000000000E+00 0. -1.
         21   -1    0    0  501  503 -0.00000000000E+00 -0.00000000000E+00 -0.27978528596E+02  0.27978528596E+02  0.00000000000E+00 0.  1.
          6    2    1    2  501    0  0.99665082673E+02 -0.74516483993E+01  0.11888660334E+04  0.12054784166E+04  0.17258943123E+03 0.  0.
         24    2    3    3    0    0  0.11576200185E+03  0.14628910260E+02  0.63211129467E+03  0.64803371893E+03  0.82268863659E+02 0.  0.
         -6    2    1    2    0  502 -0.99665082673E+02  0.74516483993E+01  0.48218765608E+03  0.52153233006E+03  0.17176256826E+03 0.  0.
        -24    2    5    5    0    0 -0.31271424132E+02  0.93079517454E+01  0.42022629791E+03  0.42910701807E+03  0.80486965209E+02 0.  0.
          5    1    3    3  501    0 -0.16096919175E+02 -0.22080558659E+02  0.55675473876E+03  0.55744469772E+03  0.47000000000E+01 0. -1.
        -13    1    4    4    0    0  0.31137244958E+02  0.41777828895E+02  0.18624194134E+03  0.19339331872E+03  0.00000000000E+00 0.  1.
         14    1    4    4    0    0  0.84624756891E+02 -0.27148918635E+02  0.44586935333E+03  0.45464040020E+03  0.00000000000E+00 0. -1.
         -5    1    5    5    0  502 -0.68393658541E+02 -0.18563033461E+01  0.61961358173E+02  0.92425311995E+02  0.47000000000E+01 0.  1.
         13    1    6    6    0    0  0.19041315732E+02 -0.13384719958E+02  0.22585969367E+03  0.22705577213E+03  0.00000000000E+00 0. -1.
        -14    1    6    6    0    0 -0.50312739864E+02  0.22692671703E+02  0.19436660424E+03  0.20205124594E+03  0.00000000000E+00 0.  1.
</event>
<event>
12    1  0.8453150E-002  0.2050714E+03  0.7818608E-02  0.1145731E+00
         21   -1    0    0  503  502  0.00000000000E+00  0.00000000000E+00  0.25478000159E+03  0.25478000159E+03  0.00000000000E+00 0.  1.
         21   -1    0    0  501  503 -0.00000000000E+00 -0.00000000000E+00 -0.16747995111E+03  0.16747995111E+03  0.00000000000E+00 0. -1.
          6    2    1    2  501    0 -0.99100137796E+02  0.48608833965E+02  0.14528082640E+02  0.20558540515E+03  0.17283124016E+03 0.  0.
         24    2    3    3    0    0 -0.62369162287E+01  0.73111103033E+02  0.38596071313E+01  0.10883911076E+03  0.80292732874E+02 0.  0.
         -6    2    1    2    0  502  0.99100137796E+02 -0.48608833965E+02  0.72771967837E+02  0.21667454755E+03  0.17166375332E+03 0.  0.
        -24    2    5    5    0    0 -0.21079179249E+02 -0.28397950656E+02  0.43899265629E+02  0.91345895671E+02  0.71875946838E+02 0.  0.
          5    1    3    3  501    0 -0.92863221568E+02 -0.24502269069E+02  0.10668475509E+02  0.96746294395E+02  0.47000000000E+01 0. -1.
        -13    1    4    4    0    0 -0.42905486354E+02  0.44584629336E+02  0.70231531755E+01  0.62273546654E+02  0.00000000000E+00 0.  1.
         14    1    4    4    0    0  0.36668570126E+02  0.28526473698E+02 -0.31635460442E+01  0.46565564103E+02  0.00000000000E+00 0. -1.
         -5    1    5    5    0  502  0.12017931705E+03 -0.20210883309E+02  0.28872702208E+02  0.12532865188E+03  0.47000000000E+01 0.  1.
         11    1    6    6    0    0  0.18175154705E+02 -0.16934779364E+01 -0.89273345715E+01  0.20319975852E+02  0.00000000000E+00 0. -1.
        -12    1    6    6    0    0 -0.39254333954E+02 -0.26704472719E+02  0.52826600201E+02  0.71025919819E+02  0.00000000000E+00 0.  1.
</event>
<event>
12    1  0.8453150E-002  0.1726644E+03  0.7818608E-02  0.1175161E+00
         21   -1    0    0  503  502  0.00000000000E+00  0.00000000000E+00  0.12614528138E+03  0.12614528138E+03  0.00000000000E+00 0. -1.
         21   -1    0    0  501  503 -0.00000000000E+00 -0.00000000000E+00 -0.23609155164E+03  0.23609155164E+03  0.00000000000E+00 0. -1.
          6    2    1    2  501    0 -0.15149252974E+02 -0.39511149497E+01 -0.58608162296E+02  0.18234014285E+03  0.17195319081E+03 0.  0.
         24    2    3    3    0    0  0.34128467538E+02 -0.51016311497E+02 -0.16856809872E+02  0.10228583694E+03  0.80067621823E+02 0.  0.
         -6    2    1    2    0  502  0.15149252974E+02  0.39511149497E+01 -0.51338107964E+02  0.17989669018E+03  0.17170354287E+03 0.  0.
        -24    2    5    5    0    0 -0.20818591152E+01 -0.26293235339E+01 -0.10065872089E+03  0.12703057387E+03  0.77416672157E+02 0.  0.
          5    1    3    3  501    0 -0.49277720512E+02  0.47065196548E+02 -0.41751352424E+02  0.80054305906E+02  0.47000000000E+01 0. -1.
        -13    1    4    4    0    0  0.17268565721E+02 -0.67136981168E+02 -0.29972989781E+02  0.75524550438E+02  0.00000000000E+00 0.  1.
         14    1    4    4    0    0  0.16859901817E+02  0.16120669671E+02  0.13116179908E+02  0.26761286503E+02  0.00000000000E+00 0. -1.
         -5    1    5    5    0  502  0.17231112089E+02  0.65804384836E+01  0.49320612924E+02  0.52866116310E+02  0.47000000000E+01 0.  1.
         11    1    6    6    0    0 -0.38403280105E+02 -0.11489289301E+02 -0.50723101555E+02  0.64650202806E+02  0.00000000000E+00 0. -1.
        -12    1    6    6    0    0  0.36321420990E+02  0.88599657675E+01 -0.49935619333E+02  0.62380371066E+02  0.00000000000E+00 0.  1.
</event>
<event>
12    1  0.8453150E-002  0.1809665E+03  0.7818608E-02  0.1166923E+00
         21   -1    0    0  503  502  0.00000000000E+00  0.00000000000E+00  0.69613716231E+02  0.69613716231E+02  0.00000000000E+00 0. -1.
         21   -1    0    0  501  503 -0.00000000000E+00 -0.00000000000E+00 -0.54999282655E+03  0.54999282655E+03  0.00000000000E+00 0.  1.
          6    2    1    2  501    0 -0.46922878821E+02 -0.31161269605E+02 -0.35831206964E+03  0.40131948390E+03  0.17174692902E+03 0.  0.
         24    2    3    3    0    0 -0.69554705270E+02 -0.71229499084E+02 -0.30564415886E+03  0.33122197034E+03  0.79863278317E+02 0.  0.
         -6    2    1    2    0  502  0.46922878821E+02  0.31161269605E+02 -0.12206704068E+03  0.21828705888E+03  0.17197702281E+03 0.  0.
        -24    2    5    5    0    0  0.94636111415E+01 -0.12010324077E+02  0.23280409303E+01  0.81308193486E+02  0.79823522430E+02 0.  0.
          5    1    3    3  501    0  0.22631826449E+02  0.40068229479E+02 -0.52667910784E+02  0.70097513567E+02  0.47000000000E+01 0. -1.
        -11    1    4    4    0    0 -0.13301135306E+02 -0.20450506281E+02 -0.19845833505E+03  0.19995212966E+03  0.00000000000E+00 0.  1.
         12    1    4    4    0    0 -0.56253569964E+02 -0.50778992802E+02 -0.10718582381E+03  0.13126984067E+03  0.00000000000E+00 0. -1.
         -5    1    5    5    0  502  0.37459267680E+02  0.43171593682E+02 -0.12439508161E+03  0.13697886539E+03  0.47000000000E+01 0.  1.
         11    1    6    6    0    0  0.28183502639E+02  0.19118762968E+02 -0.19187931710E+02  0.39089815064E+02  0.00000000000E+00 0. -1.
        -12    1    6    6    0    0 -0.18719891498E+02 -0.31129087045E+02  0.21515972640E+02  0.42218378422E+02  0.00000000000E+00 0.  1.
</event>
<event>
12    1  0.8453150E-002  0.1905515E+03  0.7818608E-02  0.1159222E+00
         21   -1    0    0  501  502  0.00000000000E+00  0.00000000000E+00  0.53227393650E+03  0.53227393650E+03  0.00000000000E+00 0.  1.
         21   -1    0    0  502  503 -0.00000000000E+00 -0.00000000000E+00 -0.71302384481E+02  0.71302384481E+02  0.00000000000E+00 0.  1.
         -6    2    1    2    0  503  0.68691501576E+02 -0.44520338854E+02  0.30759794809E+03  0.35896777265E+03  0.16595415383E+03 0.  0.
        -24    2    3    3    0    0  0.77458850729E+02 -0.90619573483E+02  0.21159870210E+03  0.25201006571E+03  0.67255347975E+02 0.  0.
          6    2    1    2  501    0 -0.68691501576E+02  0.44520338854E+02  0.15337360392E+03  0.24460854833E+03  0.17207352084E+03 0.  0.
         24    2    5    5    0    0 -0.63133106348E+02 -0.26659861297E+01  0.16637723623E+03  0.19512491996E+03  0.79996581513E+02 0.  0.
          5    1    5    5  501    0 -0.55583952283E+01  0.47186324983E+02 -0.13003632310E+02  0.49483628365E+02  0.47000000000E+01 0. -1.
        -11    1    6    6    0    0 -0.64664716067E+02  0.21396230644E+02  0.78169244795E+02  0.10368102537E+03  0.00000000000E+00 0.  1.
         12    1    6    6    0    0  0.15316097193E+01 -0.24062216774E+02  0.88207991440E+02  0.91443894593E+02  0.00000000000E+00 0. -1.
         -5    1    3    3    0  503 -0.87673491532E+01  0.46099234630E+02  0.95999245990E+02  0.10695770695E+03  0.47000000000E+01 0.  1.
         13    1    4    4    0    0  0.27577413869E+02 -0.60025757029E+02  0.58974568334E+02  0.88552837181E+02  0.00000000000E+00 0. -1.
        -14    1    4    4    0    0  0.49881436860E+02 -0.30593816454E+02  0.15262413377E+03  0.16345722853E+03  0.00000000000E+00 0.  1.
</event>
<event>
12    1  0.8453150E-002  0.2914351E+03  0.7818608E-02  0.1089968E+00
         21   -1    0    0  503  502  0.00000000000E+00  0.00000000000E+00  0.16525147028E+03  0.16525147028E+03  0.00000000000E+00 0.  1.
         21   -1    0    0  501  503 -0.00000000000E+00 -0.00000000000E+00 -0.55343920393E+03  0.55343920393E+03  0.00000000000E+00 0. -1.
          6    2    1    2  501    0  0.32080820816E+01 -0.23494042081E+03 -0.91453077370E+02  0.30277495595E+03  0.16763566287E+03 0.  0.
         24    2    3    3    0    0 -0.22056479262E+02 -0.70863910784E+02  0.57831088093E+01  0.11032661196E+03  0.81426867981E+02 0.  0.
         -6    2    1    2    0  502 -0.32080820816E+01  0.23494042081E+03 -0.29673465627E+03  0.41591571826E+03  0.17241558903E+03 0.  0.
        -24    2    5    5    0    0  0.23860643046E+02  0.35845198375E+02 -0.81262814733E+02  0.12126027885E+03  0.79032914884E+02 0.  0.
          5    1    3    3  501    0  0.25264561344E+02 -0.16407651003E+03 -0.97236186179E+02  0.19244834400E+03  0.47000000000E+01 0. -1.
        -11    1    4    4    0    0 -0.10287179820E+02 -0.80458504685E+02 -0.17068606664E+02  0.82889893101E+02  0.00000000000E+00 0.  1.
         12    1    4    4    0    0 -0.11769299443E+02  0.95945939011E+01  0.22851715473E+02  0.27436718855E+02  0.00000000000E+00 0. -1.
         -5    1    5    5    0  502 -0.27068725127E+02  0.19909522244E+03 -0.21547184154E+03  0.29465543941E+03  0.47000000000E+01 0.  1.
         11    1    6    6    0    0  0.19846052084E+02  0.28974745117E+02 -0.97252780426E+02  0.10339973374E+03  0.00000000000E+00 0. -1.
        -12    1    6    6    0    0  0.40145909619E+01  0.68704532575E+01  0.15989965693E+02  0.17860545104E+02  0.00000000000E+00 0.  1.
</event>
<event>
12    1  0.8453150E-002  0.1745415E+03  0.7818608E-02  0.1173980E+00
         21   -1    0    0  501  502  0.00000000000E+00  0.00000000000E+00  0.81224371093E+03  0.81224371093E+03  0.00000000000E+00 0.  1.
         21   -1    0    0  502  503 -0.00000000000E+00 -0.00000000000E+00 -0.41527209088E+02  0.41527209088E+02  0.00000000000E+00 0.  1.
         -6    2    1    2    0  503  0.38979905578E+01  0.49339452437E+01  0.52564170675E+03  0.55289485956E+03  0.17133004320E+03 0.  0.
        -24    2    3    3    0    0 -0.40560877805E+02  0.11425192767E+02  0.15552660924E+03  0.18003295124E+03  0.80297057927E+02 0.  0.
          6    2    1    2  501    0 -0.38979905578E+01 -0.49339452437E+01  0.24507479509E+03  0.30087606046E+03  0.17442823861E+03 0.  0.
         24    2    5    5    0    0 -0.51368426793E+02  0.33819979278E+02  0.20216144100E+03  0.22591637169E+03  0.79915283262E+02 0.  0.
          5    1    5    5  501    0  0.47470436235E+02 -0.38753924522E+02  0.42913354095E+02  0.74959688779E+02  0.47000000000E+01 0. -1.
        -11    1    6    6    0    0 -0.50744976562E+02 -0.10398059693E+02  0.73906816026E+02  0.90251812983E+02  0.00000000000E+00 0.  1.
         12    1    6    6    0    0 -0.62345023058E+00  0.44218038971E+02  0.12825462497E+03  0.13566455870E+03  0.00000000000E+00 0. -1.
         -5    1    3    3    0  503  0.44458868362E+02 -0.64912475237E+01  0.37011509751E+03  0.37286190832E+03  0.47000000000E+01 0.  1.
         11    1    4    4    0    0 -0.49759767855E+02 -0.18656136299E+02  0.12658757268E+03  0.13728983749E+03  0.00000000000E+00 0. -1.
        -12    1    4    4    0    0  0.91988900505E+01  0.30081329066E+02  0.28939036558E+02  0.42743113755E+02  0.00000000000E+00 0.  1.
</event>
<event>
12    1  0.8453150E-002  0.1748372E+03  0.7818608E-02  0.1174152E+00
         21   -1    0    0  503  502  0.00000000000E+00  0.00000000000E+00  0.14324875399E+04  0.14324875399E+04  0.00000000000E+00 0.  1.
         21   -1    0    0  501  503 -0.00000000000E+00 -0.00000000000E+00 -0.55632266622E+02  0.55632266622E+02  0.00000000000E+00 0.  1.
          6    2    1    2  501    0  0.25959863708E+02  0.13770386214E+02  0.10287377657E+03  0.20285726210E+03  0.17234998353E+03 0.  0.
         24    2    3    3    0    0 -0.39525149336E+02 -0.33606174293E+02  0.41159228101E+02  0.10105548947E+03  0.76331628526E+02 0.  0.
         -6    2    1    2    0  502 -0.25959863708E+02 -0.13770386214E+02  0.12739814967E+04  0.12852625445E+04  0.16735416357E+03 0.  0.
        -24    2    5    5    0    0 -0.50442242187E+01 -0.55602916571E+02  0.47385675197E+03  0.48375825764E+03  0.79779081982E+02 0.  0.
          5    1    3    3  501    0  0.65485013044E+02  0.47376560507E+02  0.61714548466E+02  0.10180177263E+03  0.47000000000E+01 0. -1.
        -13    1    4    4    0    0 -0.30923963345E+02 -0.11523713235E+02 -0.17811446855E+02  0.37501134847E+02  0.00000000000E+00 0.  1.
         14    1    4    4    0    0 -0.86011859912E+01 -0.22082461057E+02  0.58970674956E+02  0.63554354623E+02  0.00000000000E+00 0. -1.
         -5    1    5    5    0  502 -0.20915639489E+02  0.41832530357E+02  0.80012474478E+03  0.80150428681E+03  0.47000000000E+01 0.  1.
         13    1    6    6    0    0  0.31842223403E+02 -0.14565951153E+02  0.10229995091E+03  0.10812665758E+03  0.00000000000E+00 0. -1.
        -14    1    6    6    0    0 -0.36886447622E+02 -0.41036965418E+02  0.37155680106E+03  0.37563160006E+03  0.00000000000E+00 0.  1.
</event>
<event>
12    1  0.8453150E-002  0.1816469E+03  0.7818608E-02  0.1167314E+00
         21   -1    0    0  501  502  0.00000000000E+00  0.00000000000E+00  0.14298367442E+03  0.14298367442E+03  0.00000000000E+00 0.  1.
         21   -1    0    0  502  503 -0.00000000000E+00 -0.00000000000E+00 -0.23002194967E+03  0.23002194967E+03  0.00000000000E+00 0.  1.
         -6    2    1    2    0  503  0.48539337177E+02  0.27341213042E+02 -0.70370758707E+02  0.19059567170E+03  0.16813999288E+03 0.  0.
        -24    2    3    3    0    0  0.48850357001E+02  0.80336204936E+02 -0.58129426072E+02  0.13600165990E+03  0.79228518338E+02 0.  0.
          6    2    1    2  501    0 -0.48539337177E+02 -0.27341213042E+02 -0.16667516539E+02  0.18240995239E+03  0.17289295949E+03 0.  0.
         24    2    5    5    0    0 -0.91629465636E+02  0.11480422476E+02 -0.10035312679E+02  0.12384413743E+03  0.81907898282E+02 0.  0.
          5    1    5    5  501    0  0.43090128459E+02 -0.38821635518E+02 -0.66322038608E+01  0.58565814969E+02  0.47000000000E+01 0. -1.
        -11    1    6    6    0    0 -0.25130895985E+02  0.71886131610E+01 -0.42364128548E+02  0.49779086771E+02  0.00000000000E+00 0.  1.
         12    1    6    6    0    0 -0.66498569651E+02  0.42918093154E+01  0.32328815869E+02  0.74065050654E+02  0.00000000000E+00 0. -1.
         -5    1    3    3    0  503 -0.31101982414E+00 -0.52994991894E+02 -0.12241332635E+02  0.54594011795E+02  0.47000000000E+01 0.  1.
         11    1    4    4    0    0 -0.78218658111E+00  0.15924877093E+02  0.18393209300E+02  0.24341809189E+02  0.00000000000E+00 0. -1.
        -12    1    4    4    0    0  0.49632543582E+02  0.64411327843E+02 -0.76522635372E+02  0.11165985071E+03  0.00000000000E+00 0.  1.
</event>
<event>
12    1  0.8453150E-002  0.2382342E+03  0.7818608E-02  0.1121212E+00
         21   -1    0    0  501  502  0.00000000000E+00  0.00000000000E+00  0.45626695643E+02  0.45626695643E+02  0.00000000000E+00 0. -1.
         21   -1    0    0  502  503 -0.00000000000E+00 -0.00000000000E+00 -0.14305884086E+04  0.14305884086E+04  0.00000000000E+00 0. -1.
         -6    2    1    2    0  503  0.90125977869E+02 -0.13769089193E+03 -0.96607379544E+03  0.99501462518E+03  0.17226158154E+03 0.  0.
        -24    2    3    3    0    0  0.84122476133E+02 -0.16927079261E+03 -0.81837272050E+03  0.84378291654E+03  0.80662930555E+02 0.  0.
          6    2    1    2  501    0 -0.90125977869E+02  0.13769089193E+03 -0.41888791751E+03  0.48120047905E+03  0.17030954172E+03 0.  0.
         24    2    5    5    0    0 -0.25795154814E+02  0.14074422039E+03 -0.35033812208E+03  0.38702541833E+03  0.81102090393E+02 0.  0.
          5    1    5    5  501    0 -0.64330823055E+02 -0.30533284508E+01 -0.68549795424E+02  0.94175060723E+02  0.47000000000E+01 0. -1.
        -11    1    6    6    0    0 -0.13006591108E+01 -0.10590915038E+02 -0.31225393578E+02  0.32998248432E+02  0.00000000000E+00 0.  1.
         12    1    6    6    0    0 -0.24494495703E+02  0.15133513542E+03 -0.31911272850E+03  0.35402716990E+03  0.00000000000E+00 0. -1.
         -5    1    3    3    0  503  0.60035017362E+01  0.31579900670E+02 -0.14770107494E+03  0.15123170864E+03  0.47000000000E+01 0.  1.
         13    1    4    4    0    0  0.89205311362E+02 -0.14297310451E+03 -0.58227705437E+03  0.60617280064E+03  0.00000000000E+00 0. -1.
        -14    1    4    4    0    0 -0.50828352297E+01 -0.26297688097E+02 -0.23609566613E+03  0.23761011590E+03  0.00000000000E+00 0.  1.
</event>
<event>
12    1  0.8453150E-002  0.2964623E+03  0.7818608E-02  0.1087024E+00
         21   -1    0    0  503  502  0.00000000000E+00  0.00000000000E+00  0.90609345578E+02  0.90609345578E+02  0.00000000000E+00 0.  1.
         21   -1    0    0  501  503 -0.00000000000E+00 -0.00000000000E+00 -0.10807689270E+04  0.10807689270E+04  0.00000000000E+00 0. -1.
          6    2    1    2  501    0  0.56601250719E+02 -0.23523954166E+03 -0.30753602890E+03  0.42716309557E+03  0.17131420723E+03 0.  0.
         24    2    3    3    0    0  0.91149915963E+02 -0.19629943224E+03 -0.23327976664E+03  0.33635546991E+03  0.10896686808E+03 0.  0.
         -6    2    1    2    0  502 -0.56601250719E+02  0.23523954166E+03 -0.68262355249E+03  0.74421517698E+03  0.17128914643E+03 0.  0.
        -24    2    5    5    0    0  0.12880642688E+02  0.20281951187E+03 -0.47854757697E+03  0.52616040031E+03  0.80841314186E+02 0.  0.
          5    1    3    3  501    0 -0.34548665244E+02 -0.38940109427E+02 -0.74256262255E+02  0.90807625651E+02  0.47000000000E+01 0. -1.
        -11    1    4    4    0    0  0.46733049656E+01 -0.54678174048E+02 -0.63707389561E+01  0.55246075076E+02  0.00000000000E+00 0.  1.
         12    1    4    4    0    0  0.86476610998E+02 -0.14162125819E+03 -0.22690902769E+03  0.28110939484E+03  0.00000000000E+00 0. -1.
         -5    1    5    5    0  502 -0.69481893407E+02  0.32420029792E+02 -0.20407597553E+03  0.21805477667E+03  0.47000000000E+01 0.  1.
         11    1    6    6    0    0 -0.26989201638E+02  0.73360769948E+02 -0.23251039231E+03  0.24529839401E+03  0.00000000000E+00 0. -1.
        -12    1    6    6    0    0  0.39869844326E+02  0.12945874192E+03 -0.24603718466E+03  0.28086200630E+03  0.00000000000E+00 0.  1.
</event>
<event>
12    1  0.8453150E-002  0.2592517E+03  0.7818608E-02  0.1108654E+00
         21   -1    0    0  503  502  0.00000000000E+00  0.00000000000E+00  0.86564162275E+03  0.86564162275E+03  0.00000000000E+00 0.  1.
         21   -1    0    0  501  503 -0.00000000000E+00 -0.00000000000E+00 -0.13087301009E+03  0.13087301009E+03  0.00000000000E+00 0.  1.
          6    2    1    2  501    0 -0.14315917311E+03  0.12899192878E+03  0.40669595429E+02  0.25557949463E+03  0.16289074728E+03 0.  0.
         24    2    3    3    0    0 -0.15784804998E+03  0.80852647913E+02  0.62134231816E+02  0.20066160974E+03  0.70365199536E+02 0.  0.
         -6    2    1    2    0  502  0.14315917311E+03 -0.12899192878E+03  0.69409901723E+03  0.74093513820E+03  0.17343000539E+03 0.  0.
        -24    2    5    5    0    0  0.42213561924E+02 -0.96853718296E+02  0.24276231076E+03  0.27730835555E+03  0.82484889354E+02 0.  0.
          5    1    3    3  501    0  0.14688876865E+02  0.48139280862E+02 -0.21464636387E+02  0.54917884889E+02  0.47000000000E+01 0. -1.
        -13    1    4    4    0    0 -0.11534845584E+03  0.71025518603E+02  0.14759906583E+02  0.13626351456E+03  0.00000000000E+00 0.  1.
         14    1    4    4    0    0 -0.42499594135E+02  0.98271293102E+01  0.47374325232E+02  0.64398095184E+02  0.00000000000E+00 0. -1.
         -5    1    5    5    0  502  0.10094561119E+03 -0.32138210479E+02  0.45133670647E+03  0.46362678266E+03  0.47000000000E+01 0.  1.
         11    1    6    6    0    0  0.33926038397E+02 -0.11025799500E+03  0.19034873756E+03  0.22257682591E+03  0.00000000000E+00 0. -1.
        -12    1    6    6    0    0  0.82875235275E+01  0.13404276706E+02  0.52413573199E+02  0.54731529631E+02  0.00000000000E+00 0.  1.
</event>
<event>
12    1  0.8453150E-002  0.1879216E+03  0.7818608E-02  0.1162467E+00
         21   -1    0    0  501  502  0.00000000000E+00  0.00000000000E+00  0.15782094963E+03  0.15782094963E+03  0.00000000000E+00 0.  1.
         21   -1    0    0  502  503 -0.00000000000E+00 -0.00000000000E+00 -0.21546272971E+03  0.21546272971E+03  0.00000000000E+00 0.  1.
         -6    2    1    2    0  503 -0.11372436249E+02 -0.74694175006E+02 -0.48841278965E+02  0.19416488375E+03  0.17206388193E+03 0.  0.
        -24    2    3    3    0    0 -0.43422616419E+01 -0.11237873329E+03 -0.14547876576E+02  0.14251532678E+03  0.86320001863E+02 0.  0.
          6    2    1    2  501    0  0.11372436249E+02  0.74694175006E+02 -0.88005011178E+01  0.17911879559E+03  0.16216516898E+03 0.  0.
         24    2    5    5    0    0 -0.94664031513E+00  0.60002482651E+02  0.55946067195E+02  0.11142970061E+03  0.75401735331E+02 0.  0.
          5    1    5    5  501    0  0.12319076564E+02  0.14691692355E+02 -0.64746568313E+02  0.67689094985E+02  0.47000000000E+01 0. -1.
        -13    1    6    6    0    0  0.20551411750E+02  0.66345184664E+02  0.26308875174E+02  0.74271131444E+02  0.00000000000E+00 0.  1.
         14    1    6    6    0    0 -0.21498052065E+02 -0.63427020133E+01  0.29637192021E+02  0.37158569164E+02  0.00000000000E+00 0. -1.
         -5    1    3    3    0  503 -0.70301746074E+01  0.37684558282E+02 -0.34293402389E+02  0.51649556971E+02  0.47000000000E+01 0.  1.
         11    1    4    4    0    0  0.37642675887E+02 -0.26245419171E+02 -0.27594360108E+01  0.45971812695E+02  0.00000000000E+00 0. -1.
        -12    1    4    4    0    0 -0.41984937529E+02 -0.86133314117E+02 -0.11788440566E+02  0.96543514081E+02  0.00000000000E+00 0.  1.
</event>
<event>
12    1  0.8453150E-002  0.2166607E+03  0.7818608E-02  0.1136786E+00
         21   -1    0    0  501  502  0.00000000000E+00  0.00000000000E+00  0.99060597631E+02  0.99060597631E+02  0.00000000000E+00 0. -1.
         21   -1    0    0  502  503 -0.00000000000E+00 -0.00000000000E+00 -0.50934413554E+03  0.50934413554E+03  0.00000000000E+00 0.  1.
         -6    2    1    2    0  503 -0.10779973324E+03 -0.71770252971E+02 -0.11909715573E+03  0.24545656776E+03  0.17115210327E+03 0.  0.
        -24    2    3    3    0    0 -0.36060680412E+01 -0.42968583832E+02 -0.10450838812E+02  0.92120439617E+02  0.80731979042E+02 0.  0.
          6    2    1    2  501    0  0.10779973324E+03  0.71770252971E+02 -0.29118638217E+03  0.36294816541E+03  0.17369545161E+03 0.  0.
         24    2    5    5    0    0  0.95412292848E+02  0.77927533625E+02 -0.30753619382E+03  0.34102176293E+03  0.80877228910E+02 0.  0.
          5    1    5    5  501    0  0.12387440396E+02 -0.61572806535E+01  0.16349811652E+02  0.21926402479E+02  0.47000000000E+01 0. -1.
        -11    1    6    6    0    0 -0.46259451862E+01  0.30508015156E+02 -0.33909294958E+02  0.45847340622E+02  0.00000000000E+00 0.  1.
         12    1    6    6    0    0  0.10003823803E+03  0.47419518469E+02 -0.27362689887E+03  0.29517442231E+03  0.00000000000E+00 0. -1.
         -5    1    3    3    0  503 -0.10419366520E+03 -0.28801669139E+02 -0.10864631692E+03  0.15333612814E+03  0.47000000000E+01 0.  1.
         13    1    4    4    0    0 -0.35700096592E+02 -0.68013387860E+01  0.12716878957E+02  0.38502910492E+02  0.00000000000E+00 0. -1.
        -14    1    4    4    0    0  0.32094028550E+02 -0.36167245046E+02 -0.23167717769E+02  0.53617529125E+02  0.00000000000E+00 0.  1.
</event>
<event>
12    1  0.8453150E-002  0.2056633E+03  0.7818608E-02  0.1145078E+00
         21   -1    0    0  503  502  0.00000000000E+00  0.00000000000E+00  0.10825724603E+03  0.10825724603E+03  0.00000000000E+00 0.  1.
         21   -1    0    0  501  503 -0.00000000000E+00 -0.00000000000E+00 -0.42462910576E+03  0.42462910576E+03  0.00000000000E+00 0.  1.
          6    2    1    2  501    0 -0.73253155476E+01 -0.11156772364E+03 -0.23386514166E+03  0.31143265438E+03  0.17261626958E+03 0.  0.
         24    2    3    3    0    0  0.21456920842E+02 -0.11779523898E+03 -0.10242353008E+03  0.17665065880E+03  0.79867126905E+02 0.  0.
         -6    2    1    2    0  502  0.73253155476E+01  0.11156772364E+03 -0.82506718063E+02  0.22145369741E+03  0.17243365207E+03 0.  0.
        -24    2    5    5    0    0 -0.37401116168E+02  0.19055270189E+02 -0.33347985709E+01  0.91648880191E+02  0.81403006985E+02 0.  0.
          5    1    3    3  501    0 -0.28782236390E+02  0.62275153419E+01 -0.13144161158E+03  0.13478199559E+03  0.47000000000E+01 0. -1.
        -13    1    4    4    0    0 -0.26817276324E+02 -0.31444425379E+02 -0.49403844050E+02  0.64410076881E+02  0.00000000000E+00 0.  1.
         14    1    4    4    0    0  0.48274197166E+02 -0.86350813602E+02 -0.53019686030E+02  0.11224058191E+03  0.00000000000E+00 0. -1.
         -5    1    5    5    0  502  0.44726431715E+02  0.92512453451E+02 -0.79171919492E+02  0.12980481722E+03  0.47000000000E+01 0.  1.
         11    1    6    6    0    0  0.10370187141E+02  0.23423138860E+02  0.25116962887E+02  0.35875423900E+02  0.00000000000E+00 0. -1.
        -12    1    6    6    0    0 -0.47771303309E+02 -0.43678686709E+01 -0.28451761457E+02  0.55773456291E+02  0.00000000000E+00 0.  1.
</event>
<event>
12    1  0.8453150E-002  0.1853079E+03  0.7818608E-02  0.1163215E+00
         21   -1    0    0  501  502  0.00000000000E+00  0.00000000000E+00  0.21396543799E+03  0.21396543799E+03  0.00000000000E+00 0. -1.
         21   -1    0    0  502  503 -0.00000000000E+00 -0.00000000000E+00 -0.18427883367E+03  0.18427883367E+03  0.00000000000E+00 0. -1.
         -6    2    1    2    0  503 -0.31320546283E+02  0.60645627052E+02 -0.59098894282E+02  0.19450371734E+03  0.17227927344E+03 0.  0.
        -24    2    3    3    0    0  0.60428958231E+01  0.56166204849E+02 -0.99375164333E+02  0.13918319711E+03  0.79406422383E+02 0.  0.
          6    2    1    2  501    0  0.31320546283E+02 -0.60645627052E+02  0.88785498598E+02  0.20374055432E+03  0.17020129263E+03 0.  0.
         24    2    5    5    0    0  0.72354023289E+02 -0.82288195929E+02  0.73439523104E+02  0.15465149254E+03  0.80729602469E+02 0.  0.
          5    1    5    5  501    0 -0.41033477007E+02  0.21642568877E+02  0.15345975495E+02  0.49089061783E+02  0.47000000000E+01 0. -1.
        -11    1    6    6    0    0  0.64504270932E+02 -0.12489678304E+02  0.39255709905E+02  0.76536290691E+02  0.00000000000E+00 0.  1.
         12    1    6    6    0    0  0.78497523578E+01 -0.69798517624E+02  0.34183813198E+02  0.78115201846E+02  0.00000000000E+00 0. -1.
         -5    1    3    3    0  503 -0.37363442106E+02  0.44794222030E+01  0.40276270051E+02  0.55320520230E+02  0.47000000000E+01 0.  1.
         11    1    4    4    0    0 -0.23134444744E+02  0.20290014256E+02 -0.85552919458E+02  0.90918585778E+02  0.00000000000E+00 0. -1.
        -12    1    4    4    0    0  0.29177340567E+02  0.35876190594E+02 -0.13822244875E+02  0.48264611336E+02  0.00000000000E+00 0.  1.
</event>
<event>
12    1  0.8453150E-002  0.2129480E+03  0.7818608E-02  0.1139364E+00
         21   -1    0    0  503  502  0.00000000000E+00  0.00000000000E+00  0.21851361092E+03  0.21851361092E+03  0.00000000000E+00 0. -1.
         21   -1    0    0  501  503 -0.00000000000E+00 -0.00000000000E+00 -0.64838474313E+03  0.64838474313E+03  0.00000000000E+00 0. -1.
          6    2    1    2  501    0  0.12533706832E+03 -0.51577770724E+01 -0.57266808048E+03  0.61097920379E+03  0.17207810351E+03 0.  0.
         24    2    3    3    0    0  0.13039046234E+03  0.12743319379E+02 -0.29683684327E+03  0.33448155920E+03  0.81251074245E+02 0.  0.
         -6    2    1    2    0  502 -0.12533706832E+03  0.51577770724E+01  0.14279694826E+03  0.25591915025E+03  0.17136994974E+03 0.  0.
        -24    2    5    5    0    0 -0.15891592003E+03 -0.15344613458E+01  0.12679813581E+03  0.21783533037E+03  0.78216620357E+02 0.  0.
          5    1    3    3  501    0 -0.50533940135E+01 -0.17901096451E+02 -0.27583123721E+03  0.27649764459E+03  0.47000000000E+01 0. -1.
        -13    1    4    4    0    0  0.94073533164E+02 -0.28896176327E+02 -0.17693757162E+03  0.20246412743E+03  0.00000000000E+00 0.  1.
         14    1    4    4    0    0  0.36316929172E+02  0.41639495706E+02 -0.11989927166E+03  0.13201743177E+03  0.00000000000E+00 0. -1.
         -5    1    5    5    0  502  0.33578851710E+02  0.66922384182E+01  0.15998812456E+02  0.38083819888E+02  0.47000000000E+01 0.  1.
         13    1    6    6    0    0 -0.14472025577E+03 -0.64274380664E+01  0.73460471561E+02  0.16242446020E+03  0.00000000000E+00 0. -1.
        -14    1    6    6    0    0 -0.14195664263E+02  0.48929767206E+01  0.53337664246E+02  0.55410870164E+02  0.00000000000E+00 0.  1.
</event>
<event>
12    1  0.8453150E-002  0.1873526E+03  0.7818608E-02  0.1162089E+00
         21   -1    0    0  503  502  0.00000000000E+00  0.00000000000E+00  0.32614237267E+03  0.32614237267E+03  0.00000000000E+00 0.  1.
         21   -1    0    0  501  503 -0.00000000000E+00 -0.00000000000E+00 -0.11159100551E+03  0.11159100551E+03  0.00000000000E+00 0.  1.
          6    2    1    2  501    0 -0.35558636569E+02 -0.47359228578E+02  0.51256549847E+02  0.18920530679E+03  0.17223269449E+03 0.  0.
         24    2    3    3    0    0 -0.11210570781E+02 -0.32732409792E+02  0.98793626181E+02  0.13362981074E+03  0.83064181183E+02 0.  0.
         -6    2    1    2    0  502  0.35558636569E+02  0.47359228578E+02  0.16329481732E+03  0.24852807139E+03  0.17774614410E+03 0.  0.
        -24    2    5    5    0    0  0.34893820123E+02  0.85610216701E+02  0.54270297299E+02  0.13289063784E+03  0.78536415567E+02 0.  0.
          5    1    3    3  501    0 -0.24348065789E+02 -0.14626818786E+02 -0.47537076334E+02  0.55575496056E+02  0.47000000000E+01 0. -1.
        -13    1    4    4    0    0 -0.20314920175E+02 -0.28193953095E+02  0.44179621938E+00  0.34753275483E+02  0.00000000000E+00 0.  1.
         14    1    4    4    0    0  0.91043493945E+01 -0.45384566970E+01  0.98351829962E+02  0.98876535254E+02  0.00000000000E+00 0. -1.
         -5    1    5    5    0  502  0.66481644613E+00 -0.38250988123E+02  0.10902452002E+03  0.11563743355E+03  0.47000000000E+01 0.  1.
         11    1    6    6    0    0  0.45457368172E+02  0.20375669065E+02  0.42226617952E+01  0.49993710441E+02  0.00000000000E+00 0. -1.
        -12    1    6    6    0    0 -0.10563548049E+02  0.65234547636E+02  0.50047635504E+02  0.82896927399E+02  0.00000000000E+00 0.  1.
</event>
<event>
12    1  0.8453150E-002  0.2841950E+03  0.7818608E-02  0.1093483E+00
         21   -1    0    0  501  502  0.00000000000E+00  0.00000000000E+00  0.37516870676E+03  0.37516870676E+03  0.00000000000E+00 0.  1.
         21   -1    0    0  502  503 -0.00000000000E+00 -0.00000000000E+00 -0.23392345958E+03  0.23392345958E+03  0.00000000000E+00 0.  1.
         -6    2    1    2    0  503  0.14900851916E+03 -0.16952167718E+03 -0.16121777103E+02  0.28465189870E+03  0.17270105361E+03 0.  0.
        -24    2    3    3    0    0  0.17800664284E+03 -0.13492455672E+03 -0.20535983065E+01  0.23713500090E+03  0.79610241071E+02 0.  0.
          6    2    1    2  501    0 -0.14900851916E+03  0.16952167718E+03  0.15736702429E+03  0.32444026764E+03  0.17191849556E+03 0.  0.
         24    2    5    5    0    0 -0.12104836893E+03  0.65035601346E+02  0.13694449891E+03  0.21426640692E+03  0.90961312037E+02 0.  0.
          5    1    5    5  501    0 -0.27960150230E+02  0.10448607583E+03  0.20422525378E+02  0.11017386073E+03  0.47000000000E+01 0. -1.
        -13    1    6    6    0    0 -0.35932159426E+01  0.29022278090E+02  0.66510265972E+02  0.72655483661E+02  0.00000000000E+00 0.  1.
         14    1    6    6    0    0 -0.11745515299E+03  0.36013323257E+02  0.70434232940E+02  0.14161092326E+03  0.00000000000E+00 0. -1.
         -5    1    3    3    0  503 -0.28998123683E+02 -0.34597120459E+02 -0.14068178797E+02  0.47516897793E+02  0.47000000000E+01 0.  1.
         11    1    4    4    0    0  0.38184579963E+02  0.42020594121E+01  0.94242611038E+01  0.39554217823E+02  0.00000000000E+00 0. -1.
        -12    1    4    4    0    0  0.13982206288E+03 -0.13912661613E+03 -0.11477859410E+02  0.19758078308E+03  0.00000000000E+00 0.  1.
</event>
<event>
12    1  0.8453150E-002  0.1727596E+03  0.7818608E-02  0.1175264E+00
         21   -1    0    0  503  502  0.00000000000E+00  0.00000000000E+00  0.16375806349E+03  0.16375806349E+03  0.00000000000E+00 0.  1.
         21   -1    0    0  501  503 -0.00000000000E+00 -0.00000000000E+00 -0.35254462227E+03  0.35254462227E+03  0.00000000000E+00 0.  1.
          6    2    1    2  501    0 -0.10211777254E+02  0.88062119110E+00 -0.27452485881E+03  0.32436055137E+03  0.17245525010E+03 0.  0.
         24    2    3    3    0    0 -0.59716181084E+02 -0.27838385218E+02 -0.22867609866E+03  0.25087813078E+03  0.79410833212E+02 0.  0.
         -6    2    1    2    0  502  0.10211777254E+02 -0.88062119110E+00  0.85738300034E+02  0.19194213439E+03  0.17142249261E+03 0.  0.
        -24    2    5    5    0    0  0.24885260034E+02 -0.18890229150E+02 -0.15502936083E+02  0.87963603110E+02  0.80753560421E+02 0.  0.
          5    1    3    3  501    0  0.49504403830E+02  0.28719006409E+02 -0.45848760158E+02  0.73482420590E+02  0.47000000000E+01 0. -1.
        -11    1    4    4    0    0 -0.56390278143E+02  0.13784129974E+02 -0.10036498215E+03  0.11594393193E+03  0.00000000000E+00 0.  1.
         12    1    4    4    0    0 -0.33259029413E+01 -0.41622515192E+02 -0.12831111650E+03  0.13493419885E+03  0.00000000000E+00 0. -1.
         -5    1    5    5    0  502 -0.14673482780E+02  0.18009607959E+02  0.10124123612E+03  0.10397853128E+03  0.47000000000E+01 0.  1.
         13    1    6    6    0    0  0.51332469314E+02 -0.19386203817E+02  0.41233618013E+01  0.55025897692E+02  0.00000000000E+00 0. -1.
        -14    1    6    6    0    0 -0.26447209280E+02  0.49597466712E+00 -0.19626297884E+02  0.32937705418E+02  0.00000000000E+00 0.  1.
</event>
<event>
12    1  0.8453150E-002  0.1889414E+03  0.7818608E-02  0.1162533E+00
         21   -1    0    0  501  502  0.00000000000E+00  0.00000000000E+00  0.39636744636E+03  0.39636744636E+03  0.00000000000E+00 0.  1.
         21   -1    0    0  502  503 -0.00000000000E+00 -0.00000000000E+00 -0.14155366866E+03  0.14155366866E+03  0.00000000000E+00 0.  1.
         -6    2    1    2    0  503 -0.10488518022E+02  0.13387232594E+02 -0.41462696115E+02  0.19343739148E+03  0.18817449946E+03 0.  0.
        -24    2    3    3    0    0 -0.16280003990E+02 -0.48068582892E+02  0.28212182269E+02  0.10023311452E+03  0.81701424871E+02 0.  0.
          6    2    1    2  501    0  0.10488518022E+02 -0.13387232594E+02  0.29627647381E+03  0.34448372353E+03  0.17492872788E+03 0.  0.
         24    2    5    5    0    0 -0.57078978648E+02 -0.38596596551E+02  0.17091033521E+03  0.19977837690E+03  0.77157955681E+02 0.  0.
          5    1    5    5  501    0  0.67567496670E+02  0.25209363957E+02  0.12536613860E+03  0.14470534663E+03  0.47000000000E+01 0. -1.
        -11    1    6    6    0    0 -0.47287418292E+01 -0.29988734651E+02  0.12797923998E+03  0.13153087497E+03  0.00000000000E+00 0.  1.
         12    1    6    6    0    0 -0.52350236819E+02 -0.86078619005E+01  0.42931095239E+02  0.68247501932E+02  0.00000000000E+00 0. -1.
         -5    1    3    3    0  503  0.57914859684E+01  0.61455815486E+02 -0.69674878384E+02  0.93204276965E+02  0.47000000000E+01 0.  1.
         13    1    4    4    0    0 -0.84885128158E+01  0.21633464087E+02  0.17919554022E+02  0.29345732817E+02  0.00000000000E+00 0. -1.
        -14    1    4    4    0    0 -0.77914911744E+01 -0.69702046979E+02  0.10292628247E+02  0.70887381698E+02  0.00000000000E+00 0.  1.
</event>
<event>
12    1  0.8453150E-002  0.1729886E+03  0.7818608E-02  0.1175073E+00
         21   -1    0    0  503  502  0.00000000000E+00  0.00000000000E+00  0.42866063935E+02  0.42866063935E+02  0.00000000000E+00 0. -1.
         21   -1    0    0  501  503 -0.00000000000E+00 -0.00000000000E+00 -0.69771325782E+03  0.69771325782E+03  0.00000000000E+00 0. -1.
          6    2    1    2  501    0 -0.30123656104E+01 -0.69277915652E+01 -0.29903647854E+03  0.34546762309E+03  0.17282359349E+03 0.  0.
         24    2    3    3    0    0  0.13876699122E+02  0.13624943202E+02 -0.30598053380E+03  0.31757559345E+03  0.82776618902E+02 0.  0.
         -6    2    1    2    0  502  0.30123656104E+01  0.69277915652E+01 -0.35581071535E+03  0.39511169867E+03  0.17162435906E+03 0.  0.
        -24    2    5    5    0    0  0.13114408629E+02 -0.17782417797E+02 -0.35818886347E+03  0.36790156621E+03  0.81019123727E+02 0.  0.
          5    1    3    3  501    0 -0.16889064732E+02 -0.20552734767E+02  0.69440552610E+01  0.27892029640E+02  0.47000000000E+01 0. -1.
        -11    1    4    4    0    0  0.25886160716E+02 -0.29947269093E+02 -0.15503717118E+03  0.16001080179E+03  0.00000000000E+00 0.  1.
         12    1    4    4    0    0 -0.12009461594E+02  0.43572212295E+02 -0.15094336262E+03  0.15756479166E+03  0.00000000000E+00 0. -1.
         -5    1    5    5    0  502 -0.10102043019E+02  0.24710209362E+02  0.23781481194E+01  0.27210132457E+02  0.47000000000E+01 0.  1.
         11    1    6    6    0    0 -0.22909667178E+02 -0.36681293264E+02 -0.19089229948E+03  0.19573001846E+03  0.00000000000E+00 0. -1.
        -12    1    6    6    0    0  0.36024075807E+02  0.18898875467E+02 -0.16729656399E+03  0.17217154775E+03  0.00000000000E+00 0.  1.
</event>
<event>
12    1  0.8453150E-002  0.2062247E+03  0.7818608E-02  0.1145082E+00
         21   -1    0    0  501  502  0.00000000000E+00  0.00000000000E+00  0.34781796102E+03  0.34781796102E+03  0.00000000000E+00 0. -1.
         21   -1    0    0  502  503 -0.00000000000E+00 -0.00000000000E+00 -0.13689147796E+03  0.13689147796E+03  0.00000000000E+00 0. -1.
         -6    2    1    2    0  503  0.61478863312E+02  0.94049916286E+02  0.21953228093E+02  0.20499614064E+03  0.17004833449E+03 0.  0.
        -24    2    3    3    0    0  0.82053692574E+02  0.28282674709E+02  0.53199035120E+02  0.12918687919E+03  0.79538633783E+02 0.  0.
          6    2    1    2  501    0 -0.61478863312E+02 -0.94049916286E+02  0.18897325497E+03  0.27971329834E+03  0.17292657629E+03 0.  0.
         24    2    5    5    0    0 -0.16579792237E+02 -0.72395955600E+02  0.20255698260E+03  0.22783432135E+03  0.73233072350E+02 0.  0.
          5    1    5    5  501    0 -0.44899071076E+02 -0.21653960686E+02 -0.13583727636E+02  0.51878976988E+02  0.47000000000E+01 0. -1.
        -13    1    6    6    0    0 -0.22332285971E+02  0.57727049282E+01  0.71488678826E+02  0.75117816256E+02  0.00000000000E+00 0.  1.
         14    1    6    6    0    0  0.57524937341E+01 -0.78168660528E+02  0.13106830378E+03  0.15271650509E+03  0.00000000000E+00 0. -1.
         -5    1    3    3    0  503 -0.20574829262E+02  0.65767241577E+02 -0.31245807027E+02  0.75809261443E+02  0.47000000000E+01 0.  1.
         13    1    4    4    0    0  0.69702522848E+02  0.10998780685E+02 -0.14229587666E+01  0.70579314814E+02  0.00000000000E+00 0. -1.
        -14    1    4    4    0    0  0.12351169726E+02  0.17283894024E+02  0.54621993887E+02  0.58607564378E+02  0.00000000000E+00 0.  1.
</event>
<event>
12    1  0.8453150E-002  0.1989359E+03  0.7818608E-02  0.1151165E+00
         21   -1    0    0  501  502  0.00000000000E+00  0.00000000000E+00  0.12073669459E+03  0.12073669459E+03  0.00000000000E+00 0. -1.
         21   -1    0    0  502  503 -0.00000000000E+00 -0.00000000000E+00 -0.50168309856E+03  0.50168309856E+03  0.00000000000E+00 0. -1.
         -6    2    1    2    0  503  0.81641577231E+02  0.49685363761E+02 -0.37657592978E+03  0.42589308904E+03  0.17447495494E+03 0.  0.
        -24    2    3    3    0    0  0.72012468093E+02 -0.33384507099E+02 -0.24234030111E+03  0.26766977473E+03  0.81350881297E+02 0.  0.
          6    2    1    2  501    0 -0.81641577231E+02 -0.49685363761E+02 -0.43704741864E+01  0.19652670411E+03  0.17166729996E+03 0.  0.
         24    2    5    5    0    0 -0.97771628385E+02 -0.81758332359E+02 -0.28817051862E+02  0.15283941734E+03  0.79282714302E+02 0.  0.
          5    1    5    5  501    0  0.16130051155E+02  0.32072968599E+02  0.24446577676E+02  0.43687286767E+02  0.47000000000E+01 0. -1.
        -11    1    6    6    0    0 -0.52077790785E+02 -0.88031721587E+02 -0.30353968476E+02  0.10669134783E+03  0.00000000000E+00 0.  1.
         12    1    6    6    0    0 -0.45693837601E+02  0.62733892281E+01  0.15369166141E+01  0.46148069513E+02  0.00000000000E+00 0. -1.
         -5    1    3    3    0  503  0.96291091379E+01  0.83069870859E+02 -0.13423562867E+03  0.15822331431E+03  0.47000000000E+01 0.  1.
         11    1    4    4    0    0  0.30757795512E+02 -0.54319590583E+01 -0.19957032757E+03  0.20199966290E+03  0.00000000000E+00 0. -1.
        -12    1    4    4    0    0  0.41254672581E+02 -0.27952548040E+02 -0.42769973536E+02  0.65670111832E+02  0.00000000000E+00 0.  1.
</event>
<event>
12    1  0.8453150E-002  0.2061118E+03  0.7818608E-02  0.1144806E+00
         21   -1    0    0  503  502  0.00000000000E+00  0.00000000000E+00  0.27312291668E+03  0.27312291668E+03  0.00000000000E+00 0. -1.
         21   -1    0    0  501  503 -0.00000000000E+00 -0.00000000000E+00 -0.21406173196E+03  0.21406173196E+03  0.00000000000E+00 0. -1.
          6    2    1    2  501    0  0.32442549736E+02 -0.10898582725E+03 -0.98363462118E+02  0.22783048796E+03  0.17117514711E+03 0.  0.
         24    2    3    3    0    0  0.18463226623E+02 -0.41359618354E+01  0.19732252409E+01  0.81959117966E+02  0.79720803322E+02 0.  0.
         -6    2    1    2    0  502 -0.32442549736E+02  0.10898582725E+03  0.15742464684E+03  0.25935416069E+03  0.17190588024E+03 0.  0.
        -24    2    5    5    0    0 -0.37572247388E+02  0.93057501613E+02  0.31580882407E+02  0.13231570824E+03  0.80241648363E+02 0.  0.
          5    1    3    3  501    0  0.13979323114E+02 -0.10484986542E+03 -0.10033668736E+03  0.14587136999E+03  0.47000000000E+01 0. -1.
        -13    1    4    4    0    0 -0.13782211472E+02 -0.16790381872E+02  0.30251450441E+02  0.37242670826E+02  0.00000000000E+00 0.  1.
         14    1    4    4    0    0  0.32245438094E+02  0.12654420037E+02 -0.28278225200E+02  0.44716447140E+02  0.00000000000E+00 0. -1.
         -5    1    5    5    0  502  0.51296976517E+01  0.15928325639E+02  0.12584376443E+03  0.12703845245E+03  0.47000000000E+01 0.  1.
         11    1    6    6    0    0 -0.62488290053E+02  0.74072989684E+02  0.27430111443E+02  0.10071745235E+03  0.00000000000E+00 0. -1.
        -12    1    6    6    0    0  0.24916042665E+02  0.18984511929E+02  0.41507709633E+01  0.31598255884E+02  0.00000000000E+00 0.  1.
</event>
<event>
12    1  0.8453150E-002  0.2992017E+03  0.7818608E-02  0.1085711E+00
         21   -1    0    0  501  502  0.00000000000E+00  0.00000000000E+00  0.55482148709E+03  0.55482148709E+03  0.00000000000E+00 0.  1.
         21   -1    0    0  502  503 -0.00000000000E+00 -0.00000000000E+00 -0.23575522594E+03  0.23575522594E+03  0.00000000000E+00 0. -1.
         -6    2    1    2    0  503  0.24465153409E+03  0.44090755150E+01 -0.62882838257E+02  0.30573832922E+03  0.17218554389E+03 0.  0.
        -24    2    3    3    0    0  0.22687996877E+03  0.45384280445E+02 -0.81022398789E+02  0.25730353171E+03  0.78142339254E+02 0.  0.
          6    2    1    2  501    0 -0.24465153409E+03 -0.44090755150E+01  0.38194909941E+03  0.48483838381E+03  0.17119968106E+03 0.  0.
         24    2    5    5    0    0 -0.11674787334E+03 -0.19783769601E+02  0.29935700955E+03  0.33173949107E+03  0.80093740680E+02 0.  0.
          5    1    5    5  501    0 -0.12790366076E+03  0.15374694086E+02  0.82592089860E+02  0.15309889275E+03  0.47000000000E+01 0. -1.
        -13    1    6    6    0    0 -0.12496122173E+03 -0.31207824932E+02  0.26628043999E+03  0.29579470582E+03  0.00000000000E+00 0.  1.
         14    1    6    6    0    0  0.82133483912E+01  0.11424055331E+02  0.33076569566E+02  0.35944785244E+02  0.00000000000E+00 0. -1.
         -5    1    3    3    0  503  0.17771565319E+02 -0.40975204930E+02  0.18139560532E+02  0.48434797504E+02  0.47000000000E+01 0.  1.
         11    1    4    4    0    0  0.80711252652E+02  0.19791167445E+02 -0.69730780240E+02  0.10848215672E+03  0.00000000000E+00 0. -1.
        -12    1    4    4    0    0  0.14616871612E+03  0.25593113000E+02 -0.11291618549E+02  0.14882137499E+03  0.00000000000E+00 0.  1.
</event>
<event>
12    1  0.8453150E-002  0.1987013E+03  0.7818608E-02  0.1151162E+00
         21   -1    0    0  503  502  0.00000000000E+00  0.00000000000E+00  0.41552906323E+03  0.41552906323E+03  0.00000000000E+00 0.  1.
         21   -1    0    0  501  503 -0.00000000000E+00 -0.00000000000E+00 -0.19227345316E+03  0.19227345316E+03  0.00000000000E+00 0.  1.
          6    2    1    2  501    0  0.10474975886E+02  0.10053850214E+03 -0.10510156141E+03  0.22478555669E+03  0.17106867848E+03 0.  0.
         24    2    3    3    0    0 -0.57776476334E+01  0.64620727163E+01  0.23331220252E+01  0.80984223082E+02  0.80485162197E+02 0.  0.
         -6    2    1    2    0  502 -0.10474975886E+02 -0.10053850214E+03  0.32835717148E+03  0.38301695970E+03  0.16930990468E+03 0.  0.
        -24    2    5    5    0    0 -0.44713755423E+02 -0.65315301535E+02  0.31103665539E+03  0.33071917616E+03  0.79786991105E+02 0.  0.
          5    1    3    3  501    0  0.16252623519E+02  0.94076429420E+02 -0.10743468343E+03  0.14380133361E+03  0.47000000000E+01 0. -1.
        -11    1    4    4    0    0 -0.37201075401E+02 -0.13664559296E+02 -0.11372138984E+02  0.41230640752E+02  0.00000000000E+00 0.  1.
         12    1    4    4    0    0  0.31423427767E+02  0.20126632012E+02  0.13705261009E+02  0.39753582331E+02  0.00000000000E+00 0. -1.
         -5    1    5    5    0  502  0.34238779537E+02 -0.35223200601E+02  0.17320516094E+02  0.52297783534E+02  0.47000000000E+01 0.  1.
         13    1    6    6    0    0  0.18677668099E+02  0.32995690677E+01  0.51133094633E+02  0.54537471599E+02  0.00000000000E+00 0. -1.
        -14    1    6    6    0    0 -0.63391423522E+02 -0.68614870602E+02  0.25990356075E+03  0.27618170456E+03  0.00000000000E+00 0.  1.
</event>
<event>
12    1  0.8453150E-002  0.1894849E+03  0.7818608E-02  0.1161573E+00
         21   -1    0    0  503  502  0.00000000000E+00  0.00000000000E+00  0.11058329744E+04  0.11058329744E+04  0.00000000000E+00 0.  1.
         21   -1    0    0  501  503 -0.00000000000E+00 -0.00000000000E+00 -0.32642520221E+02  0.32642520221E+02  0.00000000000E+00 0.  1.
          6    2    1    2  501    0 -0.32122507903E+02  0.75708568298E+02  0.40828175830E+03  0.45010946579E+03  0.17070704206E+03 0.  0.
         24    2    3    3    0    0 -0.72231202973E+02  0.68253755123E+02  0.20846170320E+03  0.24611332348E+03  0.85085630523E+02 0.  0.
         -6    2    1    2    0  502  0.32122507903E+02 -0.75708568298E+02  0.66490869592E+03  0.68836602887E+03  0.15805243738E+03 0.  0.
        -24    2    5    5    0    0 -0.16230336073E+02 -0.32308224637E+02  0.54585136474E+03  0.55265189748E+03  0.78505810056E+02 0.  0.
          5    1    3    3  501    0  0.40108695070E+02  0.74548131746E+01  0.19982005510E+03  0.20399614231E+03  0.47000000000E+01 0. -1.
        -11    1    4    4    0    0  0.18353595919E+02  0.12413724319E+02  0.20854915813E+02  0.30428318196E+02  0.00000000000E+00 0.  1.
         12    1    4    4    0    0 -0.90584798892E+02  0.55840030804E+02  0.18760678739E+03  0.21568500528E+03  0.00000000000E+00 0. -1.
         -5    1    5    5    0  502  0.48352843975E+02 -0.43400343660E+02  0.11905733118E+03  0.13571413139E+03  0.47000000000E+01 0.  1.
         13    1    6    6    0    0 -0.10235946009E+02  0.12084843675E+02  0.23234307916E+02  0.28118518839E+02  0.00000000000E+00 0. -1.
        -14    1    6    6    0    0 -0.59943900638E+01 -0.44393068313E+02  0.52261705683E+03  0.52453337864E+03  0.00000000000E+00 0.  1.
</event>
<event>
12    1  0.8453150E-002  0.2307491E+03  0.7818608E-02  0.1127555E+00
         21   -1    0    0  503  502  0.00000000000E+00  0.00000000000E+00  0.12231898033E+03  0.12231898033E+03  0.00000000000E+00 0.  1.
         21   -1    0    0  501  503 -0.00000000000E+00 -0.00000000000E+00 -0.66556294851E+03  0.66556294851E+03  0.00000000000E+00 0.  1.
          6    2    1    2  501    0 -0.61325962961E+02  0.12656112602E+03 -0.50773296585E+03  0.55441638098E+03  0.17264462499E+03 0.  0.
         24    2    3    3    0    0  0.13141825966E+02  0.15805478806E+02 -0.26017109619E+03  0.27313141110E+03  0.80555866836E+02 0.  0.
         -6    2    1    2    0  502  0.61325962961E+02 -0.12656112602E+03 -0.35511002326E+02  0.23346554786E+03  0.18293861921E+03 0.  0.
        -24    2    5    5    0    0  0.26254406159E+02 -0.30562036104E+01  0.31332102560E+02  0.88642999107E+02  0.78595460535E+02 0.  0.
          5    1    3    3  501    0 -0.74467788927E+02  0.11075564721E+03 -0.24756186965E+03  0.28128496989E+03  0.47000000000E+01 0. -1.
        -11    1    4    4    0    0 -0.30090199672E+02  0.24749579014E+02 -0.12554033016E+03  0.13144708545E+03  0.00000000000E+00 0.  1.
         12    1    4    4    0    0  0.43232025638E+02 -0.89441002084E+01 -0.13463076604E+03  0.14168432565E+03  0.00000000000E+00 0. -1.
         -5    1    5    5    0  502  0.35071556803E+02 -0.12350492241E+03 -0.66843104886E+02  0.14482254875E+03  0.47000000000E+01 0.  1.
         11    1    6    6    0    0  0.11229859284E+02  0.30489934660E+02 -0.93541107644E+01  0.33811909785E+02  0.00000000000E+00 0. -1.
        -12    1    6    6    0    0  0.15024546875E+02 -0.33546138270E+02  0.40686213324E+02  0.54831089322E+02  0.00000000000E+00 0.  1.
</event>
<event>
12    1  0.8453150E-002  0.3195690E+03  0.7818608E-02  0.1075996E+00
         21   -1    0    0  501  502  0.00000000000E+00  0.00000000000E+00  0.13679597775E+03  0.13679597775E+03  0.00000000000E+00 0.  1.
         21   -1    0    0  502  503 -0.00000000000E+00 -0.00000000000E+00 -0.93047045435E+03  0.93047045435E+03  0.00000000000E+00 0. -1.
         -6    2    1    2    0  503  0.31688947177E+01  0.26803660433E+03 -0.63665505972E+03  0.71235808472E+03  0.17398480580E+03 0.  0.
        -24    2    3    3    0    0 -0.60781031949E+02  0.19982441692E+03 -0.44220945072E+03  0.49654872327E+03  0.85949431834E+02 0.  0.
          6    2    1    2  501    0 -0.31688947177E+01 -0.26803660433E+03 -0.15701941688E+03  0.35490834737E+03  0.17161344528E+03 0.  0.
         24    2    5    5    0    0 -0.60174512172E+02 -0.21487109914E+03 -0.13977595883E+03  0.27493561321E+03  0.79130977400E+02 0.  0.
          5    1    5    5  501    0  0.57005617454E+02 -0.53165505196E+02 -0.17243458055E+02  0.79972734164E+02  0.47000000000E+01 0. -1.
        -11    1    6    6    0    0 -0.39134392932E+02 -0.14368553526E+03 -0.13425124392E+03  0.20050044950E+03  0.00000000000E+00 0.  1.
         12    1    6    6    0    0 -0.21040119240E+02 -0.71185563872E+02 -0.55247149030E+01  0.74435163707E+02  0.00000000000E+00 0. -1.
         -5    1    3    3    0  503  0.63949926666E+02  0.68212187416E+02 -0.19444560900E+03  0.21580936145E+03  0.47000000000E+01 0.  1.
         11    1    4    4    0    0 -0.45774549785E+02  0.68727337753E+02 -0.99427266762E+02  0.12924603568E+03  0.00000000000E+00 0. -1.
        -12    1    4    4    0    0 -0.15006482163E+02  0.13109707916E+03 -0.34278218396E+03  0.36730268759E+03  0.00000000000E+00 0.  1.
</event>
<event>
12    1  0.8453150E-002  0.1926277E+03  0.7818608E-02  0.1156188E+00
         21   -1    0    0  503  502  0.00000000000E+00  0.00000000000E+00  0.47796061975E+03  0.47796061975E+03  0.00000000000E+00 0.  1.
         21   -1    0    0  501  503 -0.00000000000E+00 -0.00000000000E+00 -0.29805752701E+03  0.29805752701E+03  0.00000000000E+00 0.  1.
          6    2    1    2  501    0  0.10418744712E+03  0.34493591073E+02 -0.24384594841E+03  0.31054130437E+03  0.15789307521E+03 0.  0.
         24    2    3    3    0    0  0.11580171932E+03  0.20062481708E+01 -0.23903718991E+03  0.27539115606E+03  0.72714836523E+02 0.  0.
         -6    2    1    2    0  502 -0.10418744712E+03 -0.34493591073E+02  0.42374904115E+03  0.46547684240E+03  0.15830542939E+03 0.  0.
        -24    2    5    5    0    0 -0.26072625122E+02  0.26389095266E+02  0.14016613476E+03  0.16506049513E+03  0.78881275279E+02 0.  0.
          5    1    3    3  501    0 -0.11614272195E+02  0.32487342902E+02 -0.48087585016E+01  0.35150148304E+02  0.47000000000E+01 0. -1.
        -11    1    4    4    0    0  0.24767579117E+02 -0.23007849183E+02 -0.11279762340E+03  0.11775439670E+03  0.00000000000E+00 0.  1.
         12    1    4    4    0    0  0.91034140200E+02  0.25014097353E+02 -0.12623956651E+03  0.15763675936E+03  0.00000000000E+00 0. -1.
         -5    1    5    5    0  502 -0.78114822000E+02 -0.60882686340E+02  0.28358290639E+03  0.30041634727E+03  0.47000000000E+01 0.  1.
         13    1    6    6    0    0  0.38328467301E+01 -0.24156919818E+02  0.21120431521E+02  0.32315942146E+02  0.00000000000E+00 0. -1.
        -14    1    6    6    0    0 -0.29905471852E+02  0.50546015084E+02  0.11904570324E+03  0.13274455298E+03  0.00000000000E+00 0.  1.
</event>
<event>
12    1  0.8453150E-002  0.1948858E+03  0.7818608E-02  0.1154229E+00
         21   -1    0    0  501  502  0.00000000000E+00  0.00000000000E+00  0.64069696179E+03  0.64069696179E+03  0.00000000000E+00 0. -1.
         21   -1    0    0  502  503 -0.00000000000E+00 -0.00000000000E+00 -0.12571737114E+03  0.12571737114E+03  0.00000000000E+00 0.  1.
         -6    2    1    2    0  503  0.46988174999E+02 -0.78623954390E+02 -0.21238131541E+02  0.19603963155E+03  0.17201995266E+03 0.  0.
        -24    2    3    3    0    0  0.71122358943E+02 -0.96779265859E+02  0.99048001040E+01  0.15240425186E+03  0.93297023948E+02 0.  0.
          6    2    1    2  501    0 -0.46988174999E+02  0.78623954390E+02  0.53621772220E+03  0.57037470138E+03  0.17148830743E+03 0.  0.
         24    2    5    5    0    0 -0.16573142544E+02  0.11832938137E+03  0.39877168898E+03  0.42403572101E+03  0.80690279497E+02 0.  0.
          5    1    5    5  501    0 -0.30415032456E+02 -0.39705426983E+02  0.13744603322E+03  0.14633898038E+03  0.47000000000E+01 0. -1.
        -11    1    6    6    0    0  0.10782187034E+02  0.17409178257E+02  0.12794169792E+02  0.24145927720E+02  0.00000000000E+00 0.  1.
         12    1    6    6    0    0 -0.27355329578E+02  0.10092020312E+03  0.38597751919E+03  0.39988979329E+03  0.00000000000E+00 0. -1.
         -5    1    3    3    0  503 -0.24134183944E+02  0.18155311468E+02 -0.31142931645E+02  0.43635379689E+02  0.47000000000E+01 0.  1.
         11    1    4    4    0    0 -0.19876372279E+02 -0.10393446947E+02 -0.11360584254E+02  0.25142728353E+02  0.00000000000E+00 0. -1.
        -12    1    4    4    0    0  0.90998731222E+02 -0.86385818912E+02  0.21265384358E+02  0.12726152351E+03  0.00000000000E+00 0.  1.
</event>
<event>
12    1  0.8453150E-002  0.2238510E+03  0.7818608E-02  0.1131183E+00
         21   -1    0    0  503  502  0.00000000000E+00  0.00000000000E+00  0.64663060007E+03  0.64663060007E+03  0.00000000000E+00 0. -1.
         21   -1    0    0  501  503 -0.00000000000E+00 -0.00000000000E+00 -0.79907889472E+02  0.79907889472E+02  0.00000000000E+00 0.  1.
          6    2    1    2  501    0  0.12126299808E+03  0.73441524424E+02  0.21732344780E+03  0.31199161312E+03  0.17323658240E+03 0.  0.
         24    2    3    3    0    0  0.10584360156E+03 -0.55195393581E+00  0.77721547137E+02  0.15317230291E+03  0.78853933595E+02 0.  0.
         -6    2    1    2    0  502 -0.12126299808E+03 -0.73441524424E+02  0.34939926280E+03  0.41454687642E+03  0.17225241854E+03 0.  0.
        -24    2    5    5    0    0 -0.12102994657E+03 -0.65197349385E+02  0.36372177004E+03  0.39736418313E+03  0.81889106145E+02 0.  0.
          5    1    3    3  501    0  0.15419396520E+02  0.73993478360E+02  0.13960190066E+03  0.15881931021E+03  0.47000000000E+01 0. -1.
        -13    1    4    4    0    0  0.74678154976E+02  0.25021739243E+02  0.17463075180E+02  0.80671390593E+02  0.00000000000E+00 0.  1.
         14    1    4    4    0    0  0.31165446584E+02 -0.25573693179E+02  0.60258471957E+02  0.72500912313E+02  0.00000000000E+00 0. -1.
         -5    1    5    5    0  502 -0.23305151185E+00 -0.82441750389E+01 -0.14322507237E+02  0.17182693288E+02  0.47000000000E+01 0.  1.
         13    1    6    6    0    0 -0.32475993407E+02  0.11630006559E+02  0.14669906979E+03  0.15070024644E+03  0.00000000000E+00 0. -1.
        -14    1    6    6    0    0 -0.88553953161E+02 -0.76827355944E+02  0.21702270025E+03  0.24666393669E+03  0.00000000000E+00 0.  1.
</event>
<event>
12    1  0.8453150E-002  0.2696132E+03  0.7818608E-02  0.1101622E+00
         21   -1    0    0  503  502  0.00000000000E+00  0.00000000000E+00  0.10800620894E+03  0.10800620894E+03  0.00000000000E+00 0. -1.
         21   -1    0    0  501  503 -0.00000000000E+00 -0.00000000000E+00 -0.68843231243E+03  0.68843231243E+03  0.00000000000E+00 0.  1.
          6    2    1    2  501    0  0.12715768591E+03  0.16389591265E+03 -0.35414690961E+03  0.44509698075E+03  0.17222177974E+03 0.  0.
         24    2    3    3    0    0  0.74858942431E+02  0.46280886821E+02 -0.25932033459E+03  0.28515129559E+03  0.79488638805E+02 0.  0.
         -6    2    1    2    0  502 -0.12715768591E+03 -0.16389591265E+03 -0.22627919388E+03  0.35134154062E+03  0.17090247896E+03 0.  0.
        -24    2    5    5    0    0 -0.14785926805E+03 -0.10183382255E+03 -0.20307786786E+03  0.28176676028E+03  0.76937612516E+02 0.  0.
          5    1    3    3  501    0  0.52298743482E+02  0.11761502583E+03 -0.94826575021E+02  0.15994568516E+03  0.47000000000E+01 0. -1.
        -11    1    4    4    0    0 -0.98962163570E+01 -0.76708128312E+01 -0.67093341037E+02  0.68251687739E+02  0.00000000000E+00 0.  1.
         12    1    4    4    0    0  0.84755158788E+02  0.53951699653E+02 -0.19222699356E+03  0.21689960786E+03  0.00000000000E+00 0. -1.
         -5    1    5    5    0  502  0.20701582142E+02 -0.62062090103E+02 -0.23201326019E+02  0.69574780345E+02  0.47000000000E+01 0.  1.
         11    1    6    6    0    0 -0.10681714738E+03 -0.70218291204E+02 -0.86927695589E+02  0.15458633722E+03  0.00000000000E+00 0. -1.
        -12    1    6    6    0    0 -0.41042120673E+02 -0.31615531342E+02 -0.11615017227E+03  0.12718042306E+03  0.00000000000E+00 0.  1.
</event>
<event>
12    1  0.8453150E-002  0.2317602E+03  0.7818608E-02  0.1125775E+00
         21   -1    0    0  501  502  0.00000000000E+00  0.00000000000E+00  0.10508128687E+03  0.10508128687E+03  0.00000000000E+00 0. -1.
         21   -1    0    0  502  503 -0.00000000000E+00 -0.00000000000E+00 -0.75650616481E+03  0.75650616481E+03  0.00000000000E+00 0. -1.
         -6    2    1    2    0  503  0.98144549018E+02  0.11700778312E+03 -0.57433743436E+03  0.61933536893E+03  0.17432623695E+03 0.  0.
        -24    2    3    3    0    0  0.98994153805E+02  0.14390534530E+02 -0.29697540510E+03  0.32356044300E+03  0.80560778704E+02 0.  0.
          6    2    1    2  501    0 -0.98144549018E+02 -0.11700778312E+03 -0.77087443585E+02  0.24225208275E+03  0.17152382875E+03 0.  0.
         24    2    5    5    0    0 -0.80658060056E+02 -0.37361677259E+02  0.13692522491E+02  0.12013586059E+03  0.79646231851E+02 0.  0.
          5    1    5    5  501    0 -0.17486488962E+02 -0.79646105861E+02 -0.90779966076E+02  0.12211622216E+03  0.47000000000E+01 0. -1.
        -13    1    6    6    0    0  0.24845833231E+01  0.14966544368E+02  0.15758860708E+02  0.21874923895E+02  0.00000000000E+00 0.  1.
         14    1    6    6    0    0 -0.83142643379E+02 -0.52328221627E+02 -0.20663382169E+01  0.98260936695E+02  0.00000000000E+00 0. -1.
         -5    1    3    3    0  503 -0.84960478727E+00  0.10261724859E+03 -0.27736202926E+03  0.29577492593E+03  0.47000000000E+01 0.  1.
         11    1    4    4    0    0  0.29971719703E+02 -0.83121405676E+01 -0.19989306868E+03  0.20229838005E+03  0.00000000000E+00 0. -1.
        -12    1    4    4    0    0  0.69022434102E+02  0.22702675097E+02 -0.97082336418E+02  0.12126206295E+03  0.00000000000E+00 0.  1.
</event>
<event>
12    1  0.8453150E-002  0.2588157E+03  0.7818608E-02  0.1108010E+00
         21   -1    0    0  503  502  0.00000000000E+00  0.00000000000E+00  0.96317933686E+03  0.96317933686E+03  0.00000000000E+00 0. -1.
         21   -1    0    0  501  503 -0.00000000000E+00 -0.00000000000E+00 -0.69429379338E+02  0.69429379338E+02  0.00000000000E+00 0.  1.
          6    2    1    2  501    0 -0.40883853416E+01  0.19287287779E+03  0.42167003792E+03  0.49423615589E+03  0.17101782079E+03 0.  0.
         24    2    3    3    0    0  0.43147677119E+02  0.50616394754E+02  0.21577527911E+03  0.23951494698E+03  0.79904300851E+02 0.  0.
         -6    2    1    2    0  502  0.40883853416E+01 -0.19287287779E+03  0.47207991961E+03  0.53837256031E+03  0.17253666660E+03 0.  0.
        -24    2    5    5    0    0 -0.41338023894E+02 -0.18542440039E+03  0.42731707424E+03  0.47399212231E+03  0.77315002417E+02 0.  0.
          5    1    3    3  501    0 -0.47236062461E+02  0.14225648303E+03  0.20589475881E+03  0.25472120891E+03  0.47000000000E+01 0. -1.
        -13    1    4    4    0    0  0.96757380220E+01  0.66267388065E+02  0.14233642067E+03  0.15730430152E+03  0.00000000000E+00 0.  1.
         14    1    4    4    0    0  0.33471939097E+02 -0.15650993312E+02  0.73438858434E+02  0.82210645459E+02  0.00000000000E+00 0. -1.
         -5    1    5    5    0  502  0.45426409236E+02 -0.74484773981E+01  0.44762845366E+02  0.64380437999E+02  0.47000000000E+01 0.  1.
         13    1    6    6    0    0 -0.42208604019E+02 -0.15393721539E+03  0.27084277994E+03  0.31437882242E+03  0.00000000000E+00 0. -1.
        -14    1    6    6    0    0  0.87058012428E+00 -0.31487184999E+02  0.15647429430E+03  0.15961329990E+03  0.00000000000E+00 0.  1.
</event>
<event>
12    1  0.8453150E-002  0.2479296E+03  0.7818608E-02  0.1114802E+00
         21   -1    0    0  501  502  0.00000000000E+00  0.00000000000E+00  0.29784585808E+03  0.29784585808E+03  0.00000000000E+00 0. -1.
         21   -1    0    0  502  503 -0.00000000000E+00 -0.00000000000E+00 -0.25812483996E+03  0.25812483996E+03  0.00000000000E+00 0. -1.
         -6    2    1    2    0  503 -0.37579986215E+02  0.17458394117E+03  0.14541574220E+03  0.28645175361E+03  0.17034394966E+03 0.  0.
        -24    2    3    3    0    0  0.31258814338E+02  0.49608529131E+02  0.33094339832E+02  0.10480423365E+03  0.80315455711E+02 0.  0.
          6    2    1    2  501    0  0.37579986215E+02 -0.17458394117E+03 -0.10569472408E+03  0.26951894443E+03  0.17198046060E+03 0.  0.
         24    2    5    5    0    0 -0.21045583433E+02 -0.67472174077E+02 -0.56961227437E+02  0.13796313208E+03  0.10389337575E+03 0.  0.
          5    1    5    5  501    0  0.58625569649E+02 -0.10711176710E+03 -0.48733496644E+02  0.13155581235E+03  0.47000000000E+01 0. -1.
        -11    1    6    6    0    0  0.58739724962E+01 -0.73356194167E+02  0.12042205856E+01  0.73600848655E+02  0.00000000000E+00 0.  1.
         12    1    6    6    0    0 -0.26919555930E+02  0.58840200904E+01 -0.58165448022E+02  0.64362283424E+02  0.00000000000E+00 0. -1.
         -5    1    3    3    0  503 -0.68838800554E+02  0.12497541204E+03  0.11232140237E+03  0.18164751996E+03  0.47000000000E+01 0.  1.
         13    1    4    4    0    0  0.44824644558E+02  0.51767979885E+02  0.48688808235E+02  0.84022452644E+02  0.00000000000E+00 0. -1.
        -14    1    4    4    0    0 -0.13565830219E+02 -0.21594507533E+01 -0.15594468403E+02  0.20781781008E+02  0.00000000000E+00 0.  1.
</event>
<event>
12    1  0.8453150E-002  0.1818562E+03  0.7818608E-02  0.1168258E+00
         21   -1    0    0  501  502  0.00000000000E+00  0.00000000000E+00  0.11336539144E+03  0.11336539144E+03  0.00000000000E+00 0. -1.
         21   -1    0    0  502  503 -0.00000000000E+00 -0.00000000000E+00 -0.33861509765E+03  0.33861509765E+03  0.00000000000E+00 0. -1.
         -6    2    1    2    0  503  0.58787271341E+01 -0.33516898527E+02 -0.14090097490E+02  0.17330492823E+03  0.16934617026E+03 0.  0.
        -24    2    3    3    0    0  0.23172688981E+02 -0.76150839016E+02  0.15469223956E+02  0.11841797639E+03  0.86299457960E+02 0.  0.
          6    2    1    2  501    0 -0.58787271341E+01  0.33516898527E+02 -0.21115960872E+03  0.27867556087E+03  0.17864418812E+03 0.  0.
         24    2    5    5    0    0  0.43016322295E+02  0.26022154750E+02 -0.20690481718E+03  0.22880482502E+03  0.83752540612E+02 0.  0.
          5    1    5    5  501    0 -0.48895049429E+02  0.74947437762E+01 -0.42547915486E+01  0.49870735849E+02  0.47000000000E+01 0. -1.
        -11    1    6    6    0    0  0.44522103507E+02  0.55868037545E+01 -0.38401461593E+02  0.59060158562E+02  0.00000000000E+00 0.  1.
         12    1    6    6    0    0 -0.15057812118E+01  0.20435350996E+02 -0.16850335558E+03  0.16974466646E+03  0.00000000000E+00 0. -1.
         -5    1    3    3    0  503 -0.17293961847E+02  0.42633940489E+02 -0.29559321446E+02  0.54886951841E+02  0.47000000000E+01 0.  1.
         11    1    4    4    0    0  0.15309036381E+02 -0.15810264673E+02  0.45512955705E+02  0.50554527007E+02  0.00000000000E+00 0. -1.
        -12    1    4    4    0    0  0.78636525997E+01 -0.60340574343E+02 -0.30043731749E+02  0.67863449379E+02  0.00000000000E+00 0.  1.
</event>
<event>
12    1  0.8453150E-002  0.1891712E+03  0.7818608E-02  0.1160103E+00
         21   -1    0    0  501  502  0.00000000000E+00  0.00000000000E+00  0.19987924011E+03  0.19987924011E+03  0.00000000000E+00 0. -1.
         21   -1    0    0  502  503 -0.00000000000E+00 -0.00000000000E+00 -0.18166388723E+03  0.18166388723E+03  0.00000000000E+00 0. -1.
         -6    2    1    2    0  503 -0.71113229572E+02  0.35165719480E+02  0.44689915556E+02  0.19437832972E+03  0.17173242928E+03 0.  0.
        -24    2    3    3    0    0 -0.59938062594E+02  0.39654493491E+01  0.92993646403E+02  0.13561029737E+03  0.78320101790E+02 0.  0.
          6    2    1    2  501    0  0.71113229572E+02 -0.35165719480E+02 -0.26474562677E+02  0.18716479761E+03  0.16743966003E+03 0.  0.
         24    2    5    5    0    0  0.84887587432E+02  0.27015096008E+02 -0.28488084339E+02  0.12327167577E+03  0.80303282533E+02 0.  0.
          5    1    5    5  501    0 -0.13774357860E+02 -0.62180815488E+02  0.20135216619E+01  0.63893121841E+02  0.47000000000E+01 0. -1.
        -13    1    6    6    0    0  0.35991019322E+01  0.60059415870E+01  0.23499150975E+02  0.24520093100E+02  0.00000000000E+00 0.  1.
         14    1    6    6    0    0  0.81288485500E+02  0.21009154421E+02 -0.51987235314E+02  0.98751582670E+02  0.00000000000E+00 0. -1.
         -5    1    3    3    0  503 -0.11175166977E+02  0.31200270131E+02 -0.48303730847E+02  0.58768032355E+02  0.47000000000E+01 0.  1.
         11    1    4    4    0    0 -0.52092156654E+02  0.30760920306E+02  0.31793732166E+02  0.68342288577E+02  0.00000000000E+00 0. -1.
        -12    1    4    4    0    0 -0.78459059398E+01 -0.26795470957E+02  0.61199914238E+02  0.67268008789E+02  0.00000000000E+00 0.  1.
</event>
<event>
12    1  0.8453150E-002  0.2107349E+03  0.7818608E-02  0.1141853E+00
         21   -1    0    0  503  502  0.00000000000E+00  0.00000000000E+00  0.12692747041E+03  0.12692747041E+03  0.00000000000E+00 0.  1.
         21   -1    0    0  501  503 -0.00000000000E+00 -0.00000000000E+00 -0.35210221459E+03  0.35210221459E+03  0.00000000000E+00 0. -1.
          6    2    1    2  501    0  0.62037674952E+02 -0.95640740630E+02 -0.15060364167E+03  0.25548984869E+03  0.17204005789E+03 0.  0.
         24    2    3    3    0    0  0.70845364325E+02 -0.28733018126E+02 -0.27380513879E+02  0.11491869964E+03  0.81313977952E+02 0.  0.
         -6    2    1    2    0  502 -0.62037674952E+02  0.95640740630E+02 -0.74571102521E+02  0.22353983631E+03  0.17723821457E+03 0.  0.
        -24    2    5    5    0    0 -0.10890856090E+03  0.46513902601E+02 -0.41140876347E+02  0.14771110702E+03  0.78111341414E+02 0.  0.
          5    1    3    3  501    0 -0.88076893732E+01 -0.66907722504E+02 -0.12322312779E+03  0.14057114905E+03  0.47000000000E+01 0. -1.
        -11    1    4    4    0    0  0.29400989586E+01 -0.12181898572E+01  0.24777967719E+02  0.24981510217E+02  0.00000000000E+00 0.  1.
         12    1    4    4    0    0  0.67905265366E+02 -0.27514828269E+02 -0.52158481599E+02  0.89937189426E+02  0.00000000000E+00 0. -1.
         -5    1    5    5    0  502  0.46870885948E+02  0.49126838029E+02 -0.33430226175E+02  0.75828729294E+02  0.47000000000E+01 0.  1.
         13    1    6    6    0    0  0.10549527820E+02  0.76533506222E+01 -0.14124306231E+02  0.19218801718E+02  0.00000000000E+00 0. -1.
        -14    1    6    6    0    0 -0.11945808872E+03  0.38860551979E+02 -0.27016570116E+02  0.12849230530E+03  0.00000000000E+00 0.  1.
</event>
<event>
12    1  0.8453150E-002  0.3537574E+03  0.7818608E-02  0.1061189E+00
         21   -1    0    0  501  502  0.00000000000E+00  0.00000000000E+00  0.35766134857E+03  0.35766134857E+03  0.00000000000E+00 0. -1.
         21   -1    0    0  502  503 -0.00000000000E+00 -0.00000000000E+00 -0.36293861257E+03  0.36293861257E+03  0.00000000000E+00 0.  1.
         -6    2    1    2    0  503 -0.79185128356E+01 -0.30809086782E+03  0.68321171739E+02  0.35926766988E+03  0.17153072739E+03 0.  0.
        -24    2    3    3    0    0  0.70213068476E+01 -0.31904834137E+03  0.77750883603E+02  0.33795396761E+03  0.79539558973E+02 0.  0.
          6    2    1    2  501    0  0.79185128356E+01  0.30809086782E+03 -0.73598435739E+02  0.36133229126E+03  0.17367097997E+03 0.  0.
         24    2    5    5    0    0 -0.58004534077E+01  0.16161703087E+03  0.28041788582E+02  0.18245909555E+03  0.79694853739E+02 0.  0.
          5    1    5    5  501    0  0.13718966243E+02  0.14647383694E+03 -0.10164022432E+03  0.17887319571E+03  0.47000000000E+01 0. -1.
        -13    1    6    6    0    0  0.30293174655E+02  0.98759051666E+02 -0.36153316494E+01  0.10336390733E+03  0.00000000000E+00 0.  1.
         14    1    6    6    0    0 -0.36093628063E+02  0.62857979209E+02  0.31657120231E+02  0.79095188212E+02  0.00000000000E+00 0. -1.
         -5    1    3    3    0  503 -0.14939819683E+02  0.10957473552E+02 -0.94297118633E+01  0.21313702274E+02  0.47000000000E+01 0.  1.
         13    1    4    4    0    0  0.27065332878E+02 -0.16272833058E+03  0.67575268627E+01  0.16510210775E+03  0.00000000000E+00 0. -1.
        -14    1    4    4    0    0 -0.20044026031E+02 -0.15632001079E+03  0.70993356740E+02  0.17285185986E+03  0.00000000000E+00 0.  1.
</event>
<event>
12    1  0.8453150E-002  0.1905639E+03  0.7818608E-02  0.1158262E+00
         21   -1    0    0  501  502  0.00000000000E+00  0.00000000000E+00  0.11134521897E+04  0.11134521897E+04  0.00000000000E+00 0. -1.
         21   -1    0    0  502  503 -0.00000000000E+00 -0.00000000000E+00 -0.14445032287E+03  0.14445032287E+03  0.00000000000E+00 0. -1.
         -6    2    1    2    0  503 -0.50974371023E+01 -0.79658724681E+02 -0.69096676956E+02  0.20270408034E+03  0.17304073837E+03 0.  0.
        -24    2    3    3    0    0  0.56847765462E+01 -0.12234200093E+03 -0.46313582058E+02  0.15291173539E+03  0.78975749811E+02 0.  0.
          6    2    1    2  501    0  0.50974371023E+01  0.79658724681E+02  0.10380985438E+04  0.10551984323E+04  0.17153322858E+03 0.  0.
         24    2    5    5    0    0 -0.60856835201E+02  0.70527973848E+02  0.67803804395E+03  0.68900314256E+03  0.79448045405E+02 0.  0.
          5    1    5    5  501    0  0.65954272303E+02  0.91307508332E+01  0.36006049988E+03  0.36619528973E+03  0.47000000000E+01 0. -1.
        -13    1    6    6    0    0 -0.90732321698E+00 -0.12544337441E+02  0.25073837333E+02  0.28051398465E+02  0.00000000000E+00 0.  1.
         14    1    6    6    0    0 -0.59949511984E+02  0.83072311288E+02  0.65296420662E+03  0.66095174409E+03  0.00000000000E+00 0. -1.
         -5    1    3    3    0  503 -0.10782213649E+02  0.42683276254E+02 -0.22783094898E+02  0.49792344954E+02  0.47000000000E+01 0.  1.
         11    1    4    4    0    0 -0.63955251013E+01 -0.14984850609E+02 -0.41709848525E+02  0.44779012418E+02  0.00000000000E+00 0. -1.
        -12    1    4    4    0    0  0.12080301647E+02 -0.10735715033E+03 -0.46037335330E+01  0.10813272297E+03  0.00000000000E+00 0.  1.
</event>
<event>
12    1  0.8453150E-002  0.1804439E+03  0.7818608E-02  0.1167474E+00
         21   -1    0    0  501  502  0.00000000000E+00  0.00000000000E+00  0.12525764970E+03  0.12525764970E+03  0.00000000000E+00 0. -1.
         21   -1    0    0  502  503 -0.00000000000E+00 -0.00000000000E+00 -0.28336289160E+03  0.28336289160E+03  0.00000000000E+00 0. -1.
         -6    2    1    2    0  503 -0.47841273507E+02  0.15756918726E+02 -0.13844938432E+03  0.22710928177E+03  0.17283901733E+03 0.  0.
        -24    2    3    3    0    0 -0.66940204398E+02  0.63446440433E+02 -0.11914064209E+03  0.17202773161E+03  0.83021720513E+02 0.  0.
          6    2    1    2  501    0  0.47841273507E+02 -0.15756918726E+02 -0.19655857580E+02  0.18151125953E+03  0.17327122283E+03 0.  0.
         24    2    5    5    0    0  0.52300762757E+02  0.54409280554E+02 -0.80809275677E+01  0.11010221549E+03  0.79758741651E+02 0.  0.
          5    1    5    5  501    0 -0.44594892501E+01 -0.70166199280E+02 -0.11574930012E+02  0.71409044039E+02  0.47000000000E+01 0. -1.
        -13    1    6    6    0    0  0.25941172536E+02  0.72838403169E+02 -0.95389434412E+01  0.77906154126E+02  0.00000000000E+00 0.  1.
         14    1    6    6    0    0  0.26359590221E+02 -0.18429122615E+02  0.14580158735E+01  0.32196061362E+02  0.00000000000E+00 0. -1.
         -5    1    3    3    0  503  0.19098930891E+02 -0.47689521707E+02 -0.19308742229E+02  0.55081550162E+02  0.47000000000E+01 0.  1.
         13    1    4    4    0    0 -0.45161924348E+02 -0.35517117423E+01 -0.78671985944E+02  0.90782682486E+02  0.00000000000E+00 0. -1.
        -14    1    4    4    0    0 -0.21778280050E+02  0.66998152176E+02 -0.40468656146E+02  0.81245049124E+02  0.00000000000E+00 0.  1.
</event>
<event>
12    1  0.8453150E-002  0.3144628E+03  0.7818608E-02  0.1078615E+00
         21   -1    0    0  501  502  0.00000000000E+00  0.00000000000E+00  0.49892116892E+03  0.49892116892E+03  0.00000000000E+00 0.  1.
         21   -1    0    0  502  503 -0.00000000000E+00 -0.00000000000E+00 -0.30578687726E+03  0.30578687726E+03  0.00000000000E+00 0.  1.
         -6    2    1    2    0  503 -0.21513423594E+03  0.14471282290E+03 -0.14404348524E+03  0.34588343213E+03  0.17793898504E+03 0.  0.
        -24    2    3    3    0    0 -0.85424741168E+02  0.22282599937E+01 -0.24116340395E+02  0.11887899656E+03  0.79045976508E+02 0.  0.
          6    2    1    2  501    0  0.21513423594E+03 -0.14471282290E+03  0.33717777690E+03  0.45882461405E+03  0.17206578000E+03 0.  0.
         24    2    5    5    0    0  0.19192188325E+03 -0.46638049955E+02  0.23019445470E+03  0.31177021720E+03  0.72125338032E+02 0.  0.
          5    1    5    5  501    0  0.23212352685E+02 -0.98074772940E+02  0.10698332220E+03  0.14705439685E+03  0.47000000000E+01 0. -1.
        -11    1    6    6    0    0  0.84638551888E+02 -0.22031619101E+02  0.15659039170E+03  0.17935893476E+03  0.00000000000E+00 0.  1.
         12    1    6    6    0    0  0.10728333137E+03 -0.24606430854E+02  0.73604062998E+02  0.13241128244E+03  0.00000000000E+00 0. -1.
         -5    1    3    3    0  503 -0.12970949477E+03  0.14248456290E+03 -0.11992714484E+03  0.22700443557E+03  0.47000000000E+01 0.  1.
         13    1    4    4    0    0  0.14925038136E+02 -0.50889881719E+01 -0.24772800373E+01  0.15962189084E+02  0.00000000000E+00 0. -1.
        -14    1    4    4    0    0 -0.10034977930E+03  0.73172481656E+01 -0.21639060358E+02  0.10291680747E+03  0.00000000000E+00 0.  1.
</event>
<event>
12    1  0.8453150E-002  0.1914268E+03  0.7818608E-02  0.1157639E+00
         21   -1    0    0  501  502  0.00000000000E+00  0.00000000000E+00  0.92636408603E+03  0.92636408603E+03  0.00000000000E+00 0.  1.
         21   -1    0    0  502  503 -0.00000000000E+00 -0.00000000000E+00 -0.52346620439E+02  0.52346620439E+02  0.00000000000E+00 0.  1.
         -6    2    1    2    0  503 -0.83140645111E+02  0.12819981923E+02  0.68108410248E+03  0.70692495360E+03  0.16967797903E+03 0.  0.
        -24    2    3    3    0    0  0.95331744754E+01 -0.16541584716E+02  0.41948023863E+03  0.42780274020E+03  0.81774130890E+02 0.  0.
          6    2    1    2  501    0  0.83140645111E+02 -0.12819981923E+02  0.19293336311E+03  0.27178575287E+03  0.17195201090E+03 0.  0.
         24    2    5    5    0    0  0.61753953972E+02  0.45986225276E+02  0.63607493055E+02  0.12804003561E+03  0.80125238225E+02 0.  0.
          5    1    5    5  501    0  0.21386691139E+02 -0.58806207199E+02  0.12932587006E+03  0.14374571726E+03  0.47000000000E+01 0. -1.
        -13    1    6    6    0    0  0.78092079916E+02  0.45290097428E+02  0.38646699697E+02  0.98199456557E+02  0.00000000000E+00 0.  1.
         14    1    6    6    0    0 -0.16338125944E+02  0.69612784846E+00  0.24960793358E+02  0.29840579056E+02  0.00000000000E+00 0. -1.
         -5    1    3    3    0  503 -0.92673819587E+02  0.29361566639E+02  0.26160386385E+03  0.27912221340E+03  0.47000000000E+01 0.  1.
         11    1    4    4    0    0 -0.14347491958E+02  0.24886520718E+02  0.80613339495E+02  0.85578618494E+02  0.00000000000E+00 0. -1.
        -12    1    4    4    0    0  0.23880666433E+02 -0.41428105433E+02  0.33886689913E+03  0.34222412171E+03  0.00000000000E+00 0.  1.
</event>
<event>
12    1  0.8453150E-002  0.2021524E+03  0.7818608E-02  0.1147948E+00
         21   -1    0    0  503  502  0.00000000000E+00  0.00000000000E+00  0.12059626172E+03  0.12059626172E+03  0.00000000000E+00 0. -1.
         21   -1    0    0  501  503 -0.00000000000E+00 -0.00000000000E+00 -0.49226548729E+03  0.49226548729E+03  0.00000000000E+00 0. -1.
          6    2    1    2  501    0  0.10433533519E+03  0.21882982289E+02 -0.35693195865E+03  0.41017288761E+03  0.17168764528E+03 0.  0.
         24    2    3    3    0    0  0.12989482246E+03  0.50902691165E+02 -0.26202309908E+03  0.30758042923E+03  0.80534881403E+02 0.  0.
         -6    2    1    2    0  502 -0.10433533519E+03 -0.21882982289E+02 -0.14737266909E+02  0.20268886140E+03  0.17175814512E+03 0.  0.
        -24    2    5    5    0    0 -0.50405446431E+02 -0.74621043484E+02  0.22741585219E+02  0.11832956815E+03  0.73319150567E+02 0.  0.
          5    1    3    3  501    0 -0.25559487268E+02 -0.29019708876E+02 -0.94908859573E+02  0.10259245839E+03  0.47000000000E+01 0. -1.
        -11    1    4    4    0    0  0.52606438685E+02  0.17345676263E+02 -0.35243671792E+02  0.65653836731E+02  0.00000000000E+00 0.  1.
         12    1    4    4    0    0  0.77288383771E+02  0.33557014903E+02 -0.22677942729E+03  0.24192659250E+03  0.00000000000E+00 0. -1.
         -5    1    5    5    0  502 -0.53929888757E+02  0.52738061195E+02 -0.37478852128E+02  0.84359293245E+02  0.47000000000E+01 0.  1.
         13    1    6    6    0    0 -0.24936603877E+02 -0.64358387598E+02  0.45497404399E+02  0.82667103942E+02  0.00000000000E+00 0. -1.
        -14    1    6    6    0    0 -0.25468842553E+02 -0.10262655886E+02 -0.22755819180E+02  0.35662464208E+02  0.00000000000E+00 0.  1.
</event>
<event>
12    1  0.8453150E-002  0.2602850E+03  0.7818608E-02  0.1107385E+00
         21   -1    0    0  501  502  0.00000000000E+00  0.00000000000E+00  0.20464241906E+03  0.20464241906E+03  0.00000000000E+00 0.  1.
         21   -1    0    0  502  503 -0.00000000000E+00 -0.00000000000E+00 -0.41484875266E+03  0.41484875266E+03  0.00000000000E+00 0. -1.
         -6    2    1    2    0  503 -0.15021478606E+02  0.19056331991E+03 -0.24760305403E+03  0.35924301434E+03  0.17665856127E+03 0.  0.
        -24    2    3    3    0    0 -0.67227031486E+02  0.17308560003E+03 -0.21544153257E+03  0.29531067584E+03  0.79468500721E+02 0.  0.
          6    2    1    2  501    0  0.15021478606E+02 -0.19056331991E+03  0.37396720439E+02  0.26024815738E+03  0.17259943512E+03 0.  0.
         24    2    5    5    0    0  0.59560787081E+02 -0.55828367915E+02  0.24099655013E+02  0.11764325130E+03  0.81208664459E+02 0.  0.
          5    1    5    5  501    0 -0.44539308475E+02 -0.13473495199E+03  0.13297065426E+02  0.14260490608E+03  0.47000000000E+01 0. -1.
        -11    1    6    6    0    0  0.50337986373E+02 -0.76091736009E+02  0.11219728914E+02  0.91922508005E+02  0.00000000000E+00 0.  1.
         12    1    6    6    0    0  0.92228007079E+01  0.20263368094E+02  0.12879926099E+02  0.25720743297E+02  0.00000000000E+00 0. -1.
         -5    1    3    3    0  503  0.52205552880E+02  0.17477719874E+02 -0.32161521468E+02  0.63932338504E+02  0.47000000000E+01 0.  1.
         11    1    4    4    0    0 -0.57374468008E+02  0.43794803208E+02 -0.82136879997E+02  0.10934478233E+03  0.00000000000E+00 0. -1.
        -12    1    4    4    0    0 -0.98525634785E+01  0.12929079683E+03 -0.13330465257E+03  0.18596589351E+03  0.00000000000E+00 0.  1.
</event>
<event>
12    1  0.8453150E-002  0.1795291E+03  0.7818608E-02  0.1168461E+00
         21   -1    0    0  501  502  0.00000000000E+00  0.00000000000E+00  0.54658253245E+02  0.54658253245E+02  0.00000000000E+00 0.  1.
         21   -1    0    0  502  503 -0.00000000000E+00 -0.00000000000E+00 -0.60385955356E+03  0.60385955356E+03  0.00000000000E+00 0.  1.
         -6    2    1    2    0  503 -0.43189085810E+02  0.23445635879E+02 -0.33030850770E+03  0.37594469980E+03  0.17267226782E+03 0.  0.
        -24    2    3    3    0    0  0.90351439953E+01  0.25751663668E+02 -0.62499006617E+02  0.10304049167E+03  0.77242702485E+02 0.  0.
          6    2    1    2  501    0  0.43189085810E+02 -0.23445635879E+02 -0.21889279261E+03  0.28257310700E+03  0.17180952002E+03 0.  0.
         24    2    5    5    0    0 -0.36301445976E+02 -0.39561984102E+01 -0.16266535756E+03  0.18316386564E+03  0.75865253176E+02 0.  0.
          5    1    5    5  501    0  0.79490531786E+02 -0.19489437468E+02 -0.56227435055E+02  0.99409241368E+02  0.47000000000E+01 0. -1.
        -13    1    6    6    0    0 -0.22013174139E+00 -0.22994347604E+02 -0.98840902460E+01  0.25029656804E+02  0.00000000000E+00 0.  1.
         14    1    6    6    0    0 -0.36081314234E+02  0.19038149194E+02 -0.15278126731E+03  0.15813420883E+03  0.00000000000E+00 0. -1.
         -5    1    3    3    0  503 -0.52224229805E+02 -0.23060277893E+01 -0.26780950109E+03  0.27290420813E+03  0.47000000000E+01 0.  1.
         13    1    4    4    0    0  0.40222878454E+02  0.53120297785E-01 -0.40277163025E+02  0.56922162944E+02  0.00000000000E+00 0. -1.
        -14    1    4    4    0    0 -0.31187734459E+02  0.25698543370E+02 -0.22221843592E+02  0.46118328728E+02  0.00000000000E+00 0.  1.
</event>
<event>
12    1  0.8453150E-002  0.2061502E+03  0.7818608E-02  0.1144846E+00
         21   -1    0    0  501  502  0.00000000000E+00  0.00000000000E+00  0.17822783305E+04  0.17822783305E+04  0.00000000000E+00 0.  1.
         21   -1    0    0  502  503 -0.00000000000E+00 -0.00000000000E+00 -0.23799590197E+02  0.23799590197E+02  0.00000000000E+00 0.  1.
         -6    2    1    2    0  503 -0.27669680768E+02 -0.10642045937E+03  0.82991350037E+03  0.85490428236E+03  0.17324545734E+03 0.  0.
        -24    2    3    3    0    0  0.30182985583E+02 -0.29603224217E+02  0.21514524068E+03  0.23264234254E+03  0.77766454550E+02 0.  0.
          6    2    1    2  501    0  0.27669680768E+02  0.10642045937E+03  0.92856523992E+03  0.95117363833E+03  0.17437591593E+03 0.  0.
         24    2    5    5    0    0 -0.28999717449E+02  0.31271693351E+02  0.65231495079E+03  0.65929169306E+03  0.85626158967E+02 0.  0.
          5    1    5    5  501    0  0.56669398217E+02  0.75148766015E+02  0.27625028913E+03  0.29188194527E+03  0.47000000000E+01 0. -1.
        -11    1    6    6    0    0  0.22395336534E+02  0.30736132800E+02  0.39943473337E+03  0.40124103377E+03  0.00000000000E+00 0.  1.
         12    1    6    6    0    0 -0.51395053983E+02  0.53556055121E+00  0.25288021742E+03  0.25805065929E+03  0.00000000000E+00 0. -1.
         -5    1    3    3    0  503 -0.57852666350E+02 -0.76817235149E+02  0.61476825970E+03  0.62226193982E+03  0.47000000000E+01 0.  1.
         13    1    4    4    0    0  0.17587667492E+02  0.13641090803E+01  0.18998319382E+03  0.19080042132E+03  0.00000000000E+00 0. -1.
        -14    1    4    4    0    0  0.12595318090E+02 -0.30967333297E+02  0.25162046856E+02  0.41841921219E+02  0.00000000000E+00 0.  1.
</event>
<event>
12    1  0.8453150E-002  0.1943229E+03  0.7818608E-02  0.1155435E+00
         21   -1    0    0  501  502  0.00000000000E+00  0.00000000000E+00  0.71472849394E+03  0.71472849394E+03  0.00000000000E+00 0.  1.
         21   -1    0    0  502  503 -0.00000000000E+00 -0.00000000000E+00 -0.54071942676E+02  0.54071942676E+02  0.00000000000E+00 0.  1.
         -6    2    1    2    0  503  0.33266091915E+01 -0.85257423229E+02  0.25518269512E+03  0.32074849342E+03  0.17458950025E+03 0.  0.
        -24    2    3    3    0    0  0.70675923683E+02 -0.40535202131E+02  0.16793420674E+03  0.20170902120E+03  0.76462033964E+02 0.  0.
          6    2    1    2  501    0 -0.33266091915E+01  0.85257423229E+02  0.40547385614E+03  0.44805194319E+03  0.17047463519E+03 0.  0.
         24    2    5    5    0    0  0.42966670924E+02  0.10114358072E+03  0.33935627522E+03  0.36565617698E+03  0.80408951624E+02 0.  0.
          5    1    5    5  501    0 -0.46293280115E+02 -0.15886157487E+02  0.66117580914E+02  0.82395766211E+02  0.47000000000E+01 0. -1.
        -13    1    6    6    0    0 -0.13178263290E+02  0.13489798723E+01  0.93611764794E+02  0.94544428063E+02  0.00000000000E+00 0.  1.
         14    1    6    6    0    0  0.56144934214E+02  0.99794600844E+02  0.24574451043E+03  0.27111174892E+03  0.00000000000E+00 0. -1.
         -5    1    3    3    0  503 -0.67349314491E+02 -0.44722221098E+02  0.87248488379E+02  0.11903947222E+03  0.47000000000E+01 0.  1.
         13    1    4    4    0    0  0.15321761004E+01  0.12071901618E+02  0.68899925549E+02  0.69966264106E+02  0.00000000000E+00 0. -1.
        -14    1    4    4    0    0  0.69143747582E+02 -0.52607103749E+02  0.99034281195E+02  0.13174275709E+03  0.00000000000E+00 0.  1.
</event>
<event>
12    1  0.8453150E-002  0.1761080E+03  0.7818608E-02  0.1171709E+00
         21   -1    0    0  501  502  0.00000000000E+00  0.00000000000E+00  0.62977421024E+03  0.62977421024E+03  0.00000000000E+00 0.  1.
         21   -1    0    0  502  503 -0.00000000000E+00 -0.00000000000E+00 -0.51483184770E+02  0.51483184770E+02  0.00000000000E+00 0.  1.
         -6    2    1    2    0  503 -0.15985694725E+02  0.33515205136E+02  0.36191502898E+03  0.40248792021E+03  0.17214884926E+03 0.  0.
        -24    2    3    3    0    0 -0.21823799781E+02 -0.44547070345E+02  0.15563798841E+03  0.18180690655E+03  0.79811328268E+02 0.  0.
          6    2    1    2  501    0  0.15985694725E+02 -0.33515205136E+02  0.21637599649E+03  0.27876947480E+03  0.17179940865E+03 0.  0.
         24    2    5    5    0    0  0.28241445716E+02 -0.78989378725E+02  0.19572595318E+03  0.22713016628E+03  0.79009888475E+02 0.  0.
          5    1    5    5  501    0 -0.12255750991E+02  0.45474173588E+02  0.20650043307E+02  0.51639308520E+02  0.47000000000E+01 0. -1.
        -13    1    6    6    0    0  0.14211078139E+02 -0.38028753972E+02  0.18359764221E+02  0.44555828045E+02  0.00000000000E+00 0.  1.
         14    1    6    6    0    0  0.14030367577E+02 -0.40960624753E+02  0.17736618896E+03  0.18257433823E+03  0.00000000000E+00 0. -1.
         -5    1    3    3    0  503  0.58381050564E+01  0.78062275482E+02  0.20627704057E+03  0.22068101366E+03  0.47000000000E+01 0.  1.
         13    1    4    4    0    0 -0.52251540324E+02 -0.28378637980E+02  0.10147573421E+03  0.11761332915E+03  0.00000000000E+00 0. -1.
        -14    1    4    4    0    0  0.30427740543E+02 -0.16168432366E+02  0.54162254199E+02  0.64193577402E+02  0.00000000000E+00 0.  1.
</event>
<event>
12    1  0.8453150E-002  0.1794234E+03  0.7818608E-02  0.1169004E+00
         21   -1    0    0  501  502  0.00000000000E+00  0.00000000000E+00  0.12935776895E+04  0.12935776895E+04  0.00000000000E+00 0. -1.
         21   -1    0    0  502  503 -0.00000000000E+00 -0.00000000000E+00 -0.11679408810E+03  0.11679408810E+03  0.00000000000E+00 0.  1.
         -6    2    1    2    0  503 -0.45058254951E+02  0.10208816924E+01 -0.39302945767E+02  0.18112027623E+03  0.17096357617E+03 0.  0.
        -24    2    3    3    0    0  0.21160303082E+01 -0.26992024476E+02  0.27325965832E+02  0.94681639250E+02  0.86515070553E+02 0.  0.
          6    2    1    2  501    0  0.45058254951E+02 -0.10208816924E+01  0.12160865472E+04  0.12292515014E+04  0.17367059299E+03 0.  0.
         24    2    5    5    0    0  0.20516141052E+02  0.65758013015E+02  0.62333096040E+03  0.63222301647E+03  0.80121333248E+02 0.  0.
          5    1    5    5  501    0  0.24542113899E+02 -0.66778894708E+02  0.59275558677E+03  0.59702848489E+03  0.47000000000E+01 0. -1.
        -13    1    6    6    0    0  0.32418043192E+02  0.93497986187E+01  0.96122351162E+02  0.10187175591E+03  0.00000000000E+00 0.  1.
         14    1    6    6    0    0 -0.11901902140E+02  0.56408214397E+02  0.52720860924E+03  0.53035126057E+03  0.00000000000E+00 0. -1.
         -5    1    3    3    0  503 -0.47174285259E+02  0.28012906168E+02 -0.66628911599E+02  0.86438636978E+02  0.47000000000E+01 0.  1.
         13    1    4    4    0    0 -0.77506017245E+01  0.12976719350E+02 -0.24320369916E+02  0.28634724811E+02  0.00000000000E+00 0. -1.
        -14    1    4    4    0    0  0.98666320327E+01 -0.39968743825E+02  0.51646335748E+02  0.66046914438E+02  0.00000000000E+00 0.  1.
</event>
<event>
12    1  0.8453150E-002  0.1933778E+03  0.7818608E-02  0.1155659E+00
         21   -1    0    0  501  502  0.00000000000E+00  0.00000000000E+00  0.19800569319E+03  0.19800569319E+03  0.00000000000E+00 0. -1.
         21   -1    0    0  502  503 -0.00000000000E+00 -0.00000000000E+00 -0.75785129999E+03  0.75785129999E+03  0.00000000000E+00 0. -1.
         -6    2    1    2    0  503 -0.75714725606E+02 -0.39864421538E+02 -0.69454707366E+03  0.72096504301E+03  0.17341586991E+03 0.  0.
        -24    2    3    3    0    0 -0.79777173128E+02 -0.87961110073E+02 -0.58028576035E+03  0.59683796036E+03  0.73365066789E+02 0.  0.
          6    2    1    2  501    0  0.75714725606E+02  0.39864421538E+02  0.13470146686E+03  0.23489195018E+03  0.17235965684E+03 0.  0.
         24    2    5    5    0    0  0.67247052444E+01 -0.35392902752E+02  0.76580484543E+02  0.11731888203E+03  0.81248201463E+02 0.  0.
          5    1    5    5  501    0  0.68990020361E+02  0.75257324290E+02  0.58120982317E+02  0.11757306815E+03  0.47000000000E+01 0. -1.
        -11    1    6    6    0    0 -0.98266690289E+01  0.92848113208E+01 -0.11124589066E+02  0.17507930413E+02  0.00000000000E+00 0.  1.
         12    1    6    6    0    0  0.16551374273E+02 -0.44677714073E+02  0.87705073609E+02  0.99810951613E+02  0.00000000000E+00 0. -1.
         -5    1    3    3    0  503  0.40624475224E+01  0.48096688535E+02 -0.11426131331E+03  0.12412708265E+03  0.47000000000E+01 0.  1.
         13    1    4    4    0    0 -0.44629799878E+02 -0.10403591890E+02 -0.31244577145E+03  0.31578855879E+03  0.00000000000E+00 0. -1.
        -14    1    4    4    0    0 -0.35147373250E+02 -0.77557518183E+02 -0.26783998890E+03  0.28104940158E+03  0.00000000000E+00 0.  1.
</event>
<event>
12    1  0.8453150E-002  0.3992905E+03  0.7818608E-02  0.1044321E+00
         21   -1    0    0  501  502  0.00000000000E+00  0.00000000000E+00  0.25875476417E+03  0.25875476417E+03  0.00000000000E+00 0. -1.
         21   -1    0    0  502  503 -0.00000000000E+00 -0.00000000000E+00 -0.63325033926E+03  0.63325033926E+03  0.00000000000E+00 0.  1.
         -6    2    1    2    0  503 -0.26021839683E+03 -0.24741942235E+03 -0.10428317597E+03  0.41268375953E+03  0.17465085165E+03 0.  0.
        -24    2    3    3    0    0 -0.18923108944E+03 -0.10889409108E+03 -0.14283833996E+02  0.23282148786E+03  0.79595785144E+02 0.  0.
          6    2    1    2  501    0  0.26021839683E+03  0.24741942235E+03 -0.27021239911E+03  0.47932134390E+03  0.16674599088E+03 0.  0.
         24    2    5    5    0    0  0.54277468793E+02  0.63825351356E+02 -0.10989507417E+03  0.16019412252E+03  0.81027837615E+02 0.  0.
          5    1    5    5  501    0  0.20594092804E+03  0.18359407100E+03 -0.16031732494E+03  0.31912722138E+03  0.47000000000E+01 0. -1.
        -13    1    6    6    0    0  0.14153836005E+02  0.71991705963E+02 -0.54929847302E+02  0.91653832029E+02  0.00000000000E+00 0.  1.
         14    1    6    6    0    0  0.40123632788E+02 -0.81663546064E+01 -0.54965226873E+02  0.68540290493E+02  0.00000000000E+00 0. -1.
         -5    1    3    3    0  503 -0.70987307399E+02 -0.13852533127E+03 -0.89999341975E+02  0.17986227167E+03  0.47000000000E+01 0.  1.
         11    1    4    4    0    0 -0.73728074120E+01 -0.15199299853E+02  0.19145246667E+02  0.25532674656E+02  0.00000000000E+00 0. -1.
        -12    1    4    4    0    0 -0.18185828202E+03 -0.93694791231E+02 -0.33429080663E+02  0.20728881320E+03  0.00000000000E+00 0.  1.
</event>
<event>
12    1  0.8453150E-002  0.1853825E+03  0.7818608E-02  0.1163030E+00
         21   -1    0    0  503  502  0.00000000000E+00  0.00000000000E+00  0.53317838210E+02  0.53317838210E+02  0.00000000000E+00 0.  1.
         21   -1    0    0  501  503 -0.00000000000E+00 -0.00000000000E+00 -0.65261297447E+03  0.65261297447E+03  0.00000000000E+00 0.  1.
          6    2    1    2  501    0  0.32676568409E+02 -0.58255180110E+02 -0.34841568470E+03  0.39398984187E+03  0.17138576959E+03 0.  0.
         24    2    3    3    0    0  0.15048650070E+02 -0.98037869288E+02 -0.31375322369E+03  0.33815990307E+03  0.77930411159E+02 0.  0.
         -6    2    1    2    0  502 -0.32676568409E+02  0.58255180110E+02 -0.25087945155E+03  0.31194097081E+03  0.17293133297E+03 0.  0.
        -24    2    5    5    0    0 -0.87181687954E+02  0.25285020481E+02 -0.15015108348E+03  0.19266761411E+03  0.79595745375E+02 0.  0.
          5    1    3    3  501    0  0.17627918339E+02  0.39782689178E+02 -0.34662461015E+02  0.55829938803E+02  0.47000000000E+01 0. -1.
        -11    1    4    4    0    0  0.35626618778E+02 -0.79369074463E+02 -0.16198243416E+03  0.18386684020E+03  0.00000000000E+00 0.  1.
         12    1    4    4    0    0 -0.20577968708E+02 -0.18668794825E+02 -0.15177078953E+03  0.15429306287E+03  0.00000000000E+00 0. -1.
         -5    1    5    5    0  502  0.54505119545E+02  0.32970159629E+02 -0.10072836807E+03  0.11927335669E+03  0.47000000000E+01 0.  1.
         11    1    6    6    0    0 -0.30586031537E+02  0.48482782361E+02 -0.54273414842E+02  0.78941048063E+02  0.00000000000E+00 0. -1.
        -12    1    6    6    0    0 -0.56595656417E+02 -0.23197761881E+02 -0.95877668643E+02  0.11372656605E+03  0.00000000000E+00 0.  1.
</event>
<event>
12    1  0.8453150E-002  0.2409337E+03  0.7818608E-02  0.1119173E+00
         21   -1    0    0  501  502  0.00000000000E+00  0.00000000000E+00  0.14770684068E+03  0.14770684068E+03  0.00000000000E+00 0.  1.
         21   -1    0    0  502  503 -0.00000000000E+00 -0.00000000000E+00 -0.39439935277E+03  0.39439935277E+03  0.00000000000E+00 0.  1.
         -6    2    1    2    0  503 -0.16177345798E+03 -0.51667751026E+02 -0.13951972905E+03  0.27841477431E+03  0.17090589094E+03 0.  0.
        -24    2    3    3    0    0 -0.26966236726E+02 -0.31596586409E+02 -0.12072249251E+02  0.91757900188E+02  0.80921263269E+02 0.  0.
          6    2    1    2  501    0  0.16177345798E+03  0.51667751026E+02 -0.10717278304E+03  0.26369141913E+03  0.17090041222E+03 0.  0.
         24    2    5    5    0    0  0.89790472401E+02  0.46885862991E+02  0.81425495320E+01  0.12758802978E+03  0.77147852517E+02 0.  0.
          5    1    5    5  501    0  0.71982985578E+02  0.47818880356E+01 -0.11531533257E+03  0.13610338935E+03  0.47000000000E+01 0. -1.
        -13    1    6    6    0    0  0.99163643662E+02  0.54548028534E+02  0.14177120512E+02  0.11406097662E+03  0.00000000000E+00 0.  1.
         14    1    6    6    0    0 -0.93731712612E+01 -0.76621655432E+01 -0.60345709805E+01  0.13527053161E+02  0.00000000000E+00 0. -1.
         -5    1    3    3    0  503 -0.13480722125E+03 -0.20071164617E+02 -0.12744747980E+03  0.18665687412E+03  0.47000000000E+01 0.  1.
         11    1    4    4    0    0 -0.17348790245E+02 -0.32799485397E+02 -0.44484186438E+02  0.57927796508E+02  0.00000000000E+00 0. -1.
        -12    1    4    4    0    0 -0.96174464813E+01  0.12028989876E+01  0.32411937186E+02  0.33830103680E+02  0.00000000000E+00 0.  1.
</event>
<event>
12    1  0.8453150E-002  0.1825706E+03  0.7818608E-02  0.1165473E+00
         21   -1    0    0  503  502  0.00000000000E+00  0.00000000000E+00  0.88311606795E+03  0.88311606795E+03  0.00000000000E+00 0.  1.
         21   -1    0    0  501  503 -0.00000000000E+00 -0.00000000000E+00 -0.65810172392E+02  0.65810172392E+02  0.00000000000E+00 0.  1.
          6    2    1    2  501    0 -0.47733286727E+02 -0.37274274737E+02  0.97795317897E+02  0.20661398217E+03  0.17163209258E+03 0.  0.
         24    2    3    3    0    0 -0.29620983052E+02 -0.85460012638E+02  0.49018203266E+02  0.13554206230E+03  0.88249929202E+02 0.  0.
         -6    2    1    2    0  502  0.47733286727E+02  0.37274274737E+02  0.71951057766E+03  0.74231225817E+03  0.17223292093E+03 0.  0.
        -24    2    5    5    0    0 -0.11121787510E+02 -0.90687370582E+01  0.56151856556E+03  0.56739753497E+03  0.80193061264E+02 0.  0.
          5    1    3    3  501    0 -0.18112303675E+02  0.48185737902E+02  0.48777114631E+02  0.71071919865E+02  0.47000000000E+01 0. -1.
        -13    1    4    4    0    0 -0.59281907907E+02 -0.62412521930E+02  0.46643258415E+02  0.97904346453E+02  0.00000000000E+00 0.  1.
         14    1    4    4    0    0  0.29660924855E+02 -0.23047490708E+02  0.23749448510E+01  0.37637715848E+02  0.00000000000E+00 0. -1.
         -5    1    5    5    0  502  0.58855074237E+02  0.46343011795E+02  0.15799201210E+03  0.17491472320E+03  0.47000000000E+01 0.  1.
         11    1    6    6    0    0 -0.27233689549E+02 -0.17400855654E+02  0.91689526340E+02  0.97218480056E+02  0.00000000000E+00 0. -1.
        -12    1    6    6    0    0  0.16111902040E+02  0.83321185956E+01  0.46982903922E+03  0.47017905491E+03  0.00000000000E+00 0.  1.
</event>
<event>
12    1  0.8453150E-002  0.2634700E+03  0.7818608E-02  0.1105216E+00
         21   -1    0    0  503  502  0.00000000000E+00  0.00000000000E+00  0.67143335258E+02  0.67143335258E+02  0.00000000000E+00 0. -1.
         21   -1    0    0  501  503 -0.00000000000E+00 -0.00000000000E+00 -0.10992465565E+04  0.10992465565E+04  0.00000000000E+00 0.  1.
          6    2    1    2  501    0  0.81573112106E+02 -0.18128243074E+03 -0.37071345856E+03  0.45480204112E+03  0.17291308781E+03 0.  0.
         24    2    3    3    0    0  0.34880340922E+02 -0.10664205877E+03 -0.32871390520E+03  0.35714215944E+03  0.83117529402E+02 0.  0.
         -6    2    1    2    0  502 -0.81573112106E+02  0.18128243074E+03 -0.66138976269E+03  0.71158785065E+03  0.17147407584E+03 0.  0.
        -24    2    5    5    0    0 -0.21474784474E+02  0.18059383119E+03 -0.45259487399E+03  0.49426394791E+03  0.79871346615E+02 0.  0.
          5    1    3    3  501    0  0.46692771184E+02 -0.74640371964E+02 -0.41999553359E+02  0.97659881682E+02  0.47000000000E+01 0. -1.
        -13    1    4    4    0    0  0.40381857984E+02 -0.10860786982E+02 -0.74601311755E+02  0.85521967141E+02  0.00000000000E+00 0.  1.
         14    1    4    4    0    0 -0.55015170619E+01 -0.95781271791E+02 -0.25411259345E+03  0.27162019230E+03  0.00000000000E+00 0. -1.
         -5    1    5    5    0  502 -0.60098327633E+02  0.68859955057E+00 -0.20879488870E+03  0.21732390273E+03  0.47000000000E+01 0.  1.
         11    1    6    6    0    0 -0.13958450140E+01  0.10759185427E+03 -0.35375747511E+03  0.36975979593E+03  0.00000000000E+00 0. -1.
        -12    1    6    6    0    0 -0.20078939460E+02  0.73001976912E+02 -0.98837398880E+02  0.12450415198E+03  0.00000000000E+00 0.  1.
</event>
<event>
12    1  0.8453150E-002  0.1821164E+03  0.7818608E-02  0.1166326E+00
         21   -1    0    0  501  502  0.00000000000E+00  0.00000000000E+00  0.18381486347E+03  0.18381486347E+03  0.00000000000E+00 0.  1.
         21   -1    0    0  502  503 -0.00000000000E+00 -0.00000000000E+00 -0.32121781805E+03  0.32121781805E+03  0.00000000000E+00 0. -1.
         -6    2    1    2    0  503 -0.52478446709E+02  0.27859702132E+02 -0.23747027749E+03  0.29926326899E+03  0.17215173861E+03 0.  0.
        -24    2    3    3    0    0 -0.56883773292E+01 -0.24726130173E+02 -0.44787781135E+02  0.94072589986E+02  0.78739873620E+02 0.  0.
          6    2    1    2  501    0  0.52478446709E+02 -0.27859702132E+02  0.10006732290E+03  0.20576941252E+03  0.16969806023E+03 0.  0.
         24    2    5    5    0    0 -0.51914500660E+01  0.28074828964E+02  0.90799729266E+02  0.12476035713E+03  0.80656113854E+02 0.  0.
          5    1    5    5  501    0  0.57669896775E+02 -0.55934531096E+02  0.92675936357E+01  0.81009055388E+02  0.47000000000E+01 0. -1.
        -11    1    6    6    0    0  0.29494010451E+02  0.22014046943E+02  0.79788771507E+02  0.87867872251E+02  0.00000000000E+00 0.  1.
         12    1    6    6    0    0 -0.34685460517E+02  0.60607820218E+01  0.11010957759E+02  0.36892484882E+02  0.00000000000E+00 0. -1.
         -5    1    3    3    0  503 -0.46790069380E+02  0.52585832305E+02 -0.19268249635E+03  0.20519067901E+03  0.47000000000E+01 0.  1.
         11    1    4    4    0    0  0.23922242213E+02  0.18422680562E+02 -0.19574166827E+02  0.35983563449E+02  0.00000000000E+00 0. -1.
        -12    1    4    4    0    0 -0.29610619542E+02 -0.43148810735E+02 -0.25213614308E+02  0.58089026536E+02  0.00000000000E+00 0.  1.
</event>
<event>
12    1  0.8453150E-002  0.2916751E+03  0.7818608E-02  0.1089732E+00
         21   -1    0    0  501  502  0.00000000000E+00  0.00000000000E+00  0.11244372740E+03  0.11244372740E+03  0.00000000000E+00 0. -1.
         21   -1    0    0  502  503 -0.00000000000E+00 -0.00000000000E+00 -0.11148703218E+04  0.11148703218E+04  0.00000000000E+00 0. -1.
         -6    2    1    2    0  503 -0.20164583258E+03 -0.11659170335E+03 -0.85040056436E+03  0.89839719970E+03  0.17228389792E+03 0.  0.
        -24    2    3    3    0    0 -0.17268343229E+03 -0.12341599828E+03 -0.83385088683E+03  0.86402608598E+03  0.78630142870E+02 0.  0.
          6    2    1    2  501    0  0.20164583258E+03  0.11659170335E+03 -0.15202603005E+03  0.32891684951E+03  0.17555544137E+03 0.  0.
         24    2    5    5    0    0  0.66716078959E+02  0.81116673379E+02 -0.13628689089E+02  0.13234515738E+03  0.79363402292E+02 0.  0.
          5    1    5    5  501    0  0.13492975362E+03  0.35475029971E+02 -0.13839734097E+03  0.19657169214E+03  0.47000000000E+01 0. -1.
        -11    1    6    6    0    0 -0.13404646811E+02  0.38704397400E+02 -0.29849367301E+01  0.41068537611E+02  0.00000000000E+00 0.  1.
         12    1    6    6    0    0  0.80120725770E+02  0.42412275978E+02 -0.10643752359E+02  0.91276619766E+02  0.00000000000E+00 0. -1.
         -5    1    3    3    0  503 -0.28962400292E+02  0.68242949346E+01 -0.16549677527E+02  0.34371113719E+02  0.47000000000E+01 0.  1.
         13    1    4    4    0    0 -0.24952569728E+02 -0.26432978981E+02 -0.28790639217E+03  0.29019204636E+03  0.00000000000E+00 0. -1.
        -14    1    4    4    0    0 -0.14773086256E+03 -0.96983019303E+02 -0.54594449466E+03  0.57383403962E+03  0.00000000000E+00 0.  1.
</event>
<event>
12    1  0.8453150E-002  0.3308524E+03  0.7818608E-02  0.1070859E+00
         21   -1    0    0  503  502  0.00000000000E+00  0.00000000000E+00  0.45790812799E+03  0.45790812799E+03  0.00000000000E+00 0. -1.
         21   -1    0    0  501  503 -0.00000000000E+00 -0.00000000000E+00 -0.24209842977E+03  0.24209842977E+03  0.00000000000E+00 0.  1.
          6    2    1    2  501    0  0.39250962408E+02 -0.27868162090E+03  0.64830281986E+02  0.33714432908E+03  0.17395185912E+03 0.  0.
         24    2    3    3    0    0 -0.29495402183E+02 -0.76579616867E+02  0.40984603095E+02  0.12229091608E+03  0.80875917272E+02 0.  0.
         -6    2    1    2    0  502 -0.39250962408E+02  0.27868162090E+03  0.15097941623E+03  0.36286222867E+03  0.17225019302E+03 0.  0.
        -24    2    5    5    0    0 -0.77175775546E+02  0.26256831980E+03  0.14426768250E+03  0.32084952472E+03  0.85047224561E+02 0.  0.
          5    1    3    3  501    0  0.68746364591E+02 -0.20210200403E+03  0.23845678890E+02  0.21485341301E+03  0.47000000000E+01 0. -1.
        -11    1    4    4    0    0 -0.46698707261E+02 -0.51942526393E+02 -0.19617832702E+01  0.69875917894E+02  0.00000000000E+00 0.  1.
         12    1    4    4    0    0  0.17203305078E+02 -0.24637090474E+02  0.42946386365E+02  0.52414998183E+02  0.00000000000E+00 0. -1.
         -5    1    5    5    0  502  0.37924813137E+02  0.16113301101E+02  0.67117337330E+01  0.42012703954E+02  0.47000000000E+01 0.  1.
         11    1    6    6    0    0 -0.94104257686E+02  0.18958338234E+03  0.10543576624E+03  0.23646177487E+03  0.00000000000E+00 0. -1.
        -12    1    6    6    0    0  0.16928482140E+02  0.72984937459E+02  0.38831916258E+02  0.84387749844E+02  0.00000000000E+00 0.  1.
</event>
<event>
12    1  0.8453150E-002  0.1857784E+03  0.7818608E-02  0.1162397E+00
         21   -1    0    0  503  502  0.00000000000E+00  0.00000000000E+00  0.10796398118E+03  0.10796398118E+03  0.00000000000E+00 0. -1.
         21   -1    0    0  501  503 -0.00000000000E+00 -0.00000000000E+00 -0.37147067121E+03  0.37147067121E+03  0.00000000000E+00 0.  1.
          6    2    1    2  501    0  0.10201633087E+02 -0.69081556284E+02 -0.22181635907E+03  0.28933735512E+03  0.17215479425E+03 0.  0.
         24    2    3    3    0    0  0.41448989043E+02 -0.71166935988E+02 -0.70772583841E+02  0.13500959321E+03  0.80225184102E+02 0.  0.
         -6    2    1    2    0  502 -0.10201633087E+02  0.69081556284E+02 -0.41690330958E+02  0.19009729727E+03  0.17182131416E+03 0.  0.
        -24    2    5    5    0    0 -0.59885781737E+02  0.48636283597E+02 -0.67179016885E+02  0.13044591914E+03  0.80940240765E+02 0.  0.
          5    1    3    3  501    0 -0.31247355957E+02  0.20853797049E+01 -0.15104377523E+03  0.15432776191E+03  0.47000000000E+01 0. -1.
        -11    1    4    4    0    0  0.17922259305E+02  0.15024547393E+02 -0.46166363801E+01  0.23838157111E+02  0.00000000000E+00 0.  1.
         12    1    4    4    0    0  0.23526729738E+02 -0.86191483382E+02 -0.66155947461E+02  0.11117143610E+03  0.00000000000E+00 0. -1.
         -5    1    5    5    0  502  0.49684148651E+02  0.20445272686E+02  0.25488685927E+02  0.59651378129E+02  0.47000000000E+01 0.  1.
         13    1    6    6    0    0 -0.51147242109E+02  0.63159834347E+02 -0.25066278482E+02  0.85050122675E+02  0.00000000000E+00 0. -1.
        -14    1    6    6    0    0 -0.87385396282E+01 -0.14523550749E+02 -0.42112738403E+02  0.45395796468E+02  0.00000000000E+00 0.  1.
</event>
<event>
12    1  0.8453150E-002  0.5554226E+03  0.7818608E-02  0.1000258E+00
         21   -1    0    0  501  502  0.00000000000E+00  0.00000000000E+00  0.36544203727E+03  0.36544203727E+03  0.00000000000E+00 0.  1.
         21   -1    0    0  502  503 -0.00000000000E+00 -0.00000000000E+00 -0.10506418890E+04  0.10506418890E+04  0.00000000000E+00 0. -1.
         -6    2    1    2    0  503  0.43100151799E+03  0.30510771812E+03 -0.65666914998E+03  0.85992903497E+03  0.17149502760E+03 0.  0.
        -24    2    3    3    0    0  0.22636745215E+03  0.12389681069E+03 -0.22793405019E+03  0.35145251667E+03  0.70514517267E+02 0.  0.
          6    2    1    2  501    0 -0.43100151799E+03 -0.30510771812E+03 -0.28530701769E+02  0.55615489132E+03  0.17216629761E+03 0.  0.
         24    2    5    5    0    0 -0.39141776275E+03 -0.28626135586E+03 -0.68872198367E+02  0.49639214877E+03  0.80674387501E+02 0.  0.
          5    1    5    5  501    0 -0.39583755233E+02 -0.18846362260E+02  0.40341496597E+02  0.59762742545E+02  0.47000000000E+01 0. -1.
        -13    1    6    6    0    0 -0.26682088027E+03 -0.19308604866E+03 -0.83797001410E+01  0.32946293222E+03  0.00000000000E+00 0.  1.
         14    1    6    6    0    0 -0.12459688249E+03 -0.93175307202E+02 -0.60492498226E+02  0.16692921655E+03  0.00000000000E+00 0. -1.
         -5    1    3    3    0  503  0.20463406583E+03  0.18121090743E+03 -0.42873509979E+03  0.50847651830E+03  0.47000000000E+01 0.  1.
         13    1    4    4    0    0  0.10398714232E+03  0.26149938672E+02 -0.64714581731E+02  0.12524025770E+03  0.00000000000E+00 0. -1.
        -14    1    4    4    0    0  0.12238030983E+03  0.97746872016E+02 -0.16321946846E+03  0.22621225897E+03  0.00000000000E+00 0.  1.
</event>
<event>
12    1  0.8453150E-002  0.2384109E+03  0.7818608E-02  0.1121038E+00
         21   -1    0    0  503  502  0.00000000000E+00  0.00000000000E+00  0.71840581740E+02  0.71840581740E+02  0.00000000000E+00 0.  1.
         21   -1    0    0  501  503 -0.00000000000E+00 -0.00000000000E+00 -0.87181738879E+03  0.87181738879E+03  0.00000000000E+00 0.  1.
          6    2    1    2  501    0  0.35283097016E+02  0.16020749674E+03 -0.54745566613E+03  0.59711594991E+03  0.17299830148E+03 0.  0.
         24    2    3    3    0    0 -0.16482485430E+02  0.74763264249E+02 -0.14440559733E+03  0.18184273822E+03  0.79703117225E+02 0.  0.
         -6    2    1    2    0  502 -0.35283097016E+02 -0.16020749674E+03 -0.25252114092E+03  0.34654202062E+03  0.17150249706E+03 0.  0.
        -24    2    5    5    0    0 -0.47638413617E+02 -0.90466893837E+02 -0.24240290942E+03  0.27484213115E+03  0.79532064153E+02 0.  0.
          5    1    3    3  501    0  0.51765582445E+02  0.85444232488E+02 -0.40305006880E+03  0.41527321169E+03  0.47000000000E+01 0. -1.
        -11    1    4    4    0    0 -0.41064643378E+01 -0.12000514968E+02 -0.55768291742E+02  0.57192462552E+02  0.00000000000E+00 0.  1.
         12    1    4    4    0    0 -0.12376021092E+02  0.86763779217E+02 -0.88637305589E+02  0.12465027567E+03  0.00000000000E+00 0. -1.
         -5    1    5    5    0  502  0.12355316602E+02 -0.69740602900E+02 -0.10118231505E+02  0.71699889470E+02  0.47000000000E+01 0.  1.
         11    1    6    6    0    0 -0.63783416224E+02 -0.62496233761E+02 -0.21380725625E+03  0.23170594779E+03  0.00000000000E+00 0. -1.
        -12    1    6    6    0    0  0.16145002607E+02 -0.27970660076E+02 -0.28595653173E+02  0.43136183358E+02  0.00000000000E+00 0.  1.
</event>
<event>
12    1  0.8453150E-002  0.1866429E+03  0.7818608E-02  0.1161543E+00
         21   -1    0    0  501  502  0.00000000000E+00  0.00000000000E+00  0.67525812014E+03  0.67525812014E+03  0.00000000000E+00 0. -1.
         21   -1    0    0  502  503 -0.00000000000E+00 -0.00000000000E+00 -0.88540674212E+02  0.88540674212E+02  0.00000000000E+00 0. -1.
         -6    2    1    2    0  503  0.67025516913E+02 -0.22657954397E+02  0.46605960388E+02  0.19237379343E+03  0.17271293536E+03 0.  0.
        -24    2    3    3    0    0  0.94709126068E+02 -0.11149063303E+02  0.79551584796E+02  0.14758159592E+03  0.79735516794E+02 0.  0.
          6    2    1    2  501    0 -0.67025516913E+02  0.22657954397E+02  0.54011148554E+03  0.57142500092E+03  0.17262766884E+03 0.  0.
         24    2    5    5    0    0 -0.41314545137E+02  0.46512864118E+02  0.52199950682E+03  0.53167271092E+03  0.79511308894E+02 0.  0.
          5    1    5    5  501    0 -0.25710971776E+02 -0.23854909721E+02  0.18111978719E+02  0.39752290004E+02  0.47000000000E+01 0. -1.
        -11    1    6    6    0    0  0.20226685801E+02 -0.10229293111E+01  0.16902179884E+03  0.17023082472E+03  0.00000000000E+00 0.  1.
         12    1    6    6    0    0 -0.61541230938E+02  0.47535793429E+02  0.35297770799E+03  0.36144188620E+03  0.00000000000E+00 0. -1.
         -5    1    3    3    0  503 -0.27683609155E+02 -0.11508891093E+02 -0.32945624408E+02  0.44792197509E+02  0.47000000000E+01 0.  1.
         13    1    4    4    0    0  0.95462331092E+02 -0.29352514520E+02  0.47227300803E+02  0.11047644413E+03  0.00000000000E+00 0. -1.
        -14    1    4    4    0    0 -0.75320502349E+00  0.18203451217E+02  0.32324283993E+02  0.37105151794E+02  0.00000000000E+00 0.  1.
</event>
<event>
12    1  0.8453150E-002  0.3128333E+03  0.7818608E-02  0.1079160E+00
         21   -1    0    0  503  502  0.00000000000E+00  0.00000000000E+00  0.15406378345E+04  0.15406378345E+04  0.00000000000E+00 0. -1.
         21   -1    0    0  501  503 -0.00000000000E+00 -0.00000000000E+00 -0.68886124034E+02  0.68886124034E+02  0.00000000000E+00 0.  1.
          6    2    1    2  501    0 -0.25395668580E+03  0.56256025635E+02  0.50402115815E+03  0.59248556749E+03  0.17129822282E+03 0.  0.
         24    2    3    3    0    0 -0.23451117073E+03  0.57440784270E+02  0.51137211351E+03  0.57113941435E+03  0.80024116751E+02 0.  0.
         -6    2    1    2    0  502  0.25395668580E+03 -0.56256025635E+02  0.96773055227E+03  0.10170383910E+04  0.17379852785E+03 0.  0.
        -24    2    5    5    0    0  0.18071182573E+03  0.22728035090E+01  0.45340448054E+03  0.49421544637E+03  0.77532927599E+02 0.  0.
          5    1    3    3  501    0 -0.19445515066E+02 -0.11847586344E+01 -0.73509553543E+01  0.21346153139E+02  0.47000000000E+01 0. -1.
        -13    1    4    4    0    0 -0.41435084477E+02  0.39882282835E+02  0.15698545493E+03  0.16718820464E+03  0.00000000000E+00 0.  1.
         14    1    4    4    0    0 -0.19307608625E+03  0.17558501435E+02  0.35438665857E+03  0.40395120971E+03  0.00000000000E+00 0. -1.
         -5    1    5    5    0  502  0.73244860064E+02 -0.58528829144E+02  0.51432607173E+03  0.52282294463E+03  0.47000000000E+01 0.  1.
         13    1    6    6    0    0  0.11140994974E+02  0.55276671747E+01  0.11518159120E+03  0.11585109332E+03  0.00000000000E+00 0. -1.
        -14    1    6    6    0    0  0.16957083076E+03 -0.32548636656E+01  0.33822288934E+03  0.37836435304E+03  0.00000000000E+00 0.  1.
</event>
<event>
12    1  0.8453150E-002  0.2538691E+03  0.7818608E-02  0.1111747E+00
         21   -1    0    0  503  502  0.00000000000E+00  0.00000000000E+00  0.22279741553E+04  0.22279741553E+04  0.00000000000E+00 0.  1.
         21   -1    0    0  501  503 -0.00000000000E+00 -0.00000000000E+00 -0.31104913634E+02  0.31104913634E+02  0.00000000000E+00 0.  1.
          6    2    1    2  501    0  0.54684346047E+02  0.17987823271E+03  0.74850179533E+03  0.78863091718E+03  0.16228749061E+03 0.  0.
         24    2    3    3    0    0  0.83728758179E+02  0.16729477230E+03  0.70219008013E+03  0.73233894336E+03  0.90837071373E+02 0.  0.
         -6    2    1    2    0  502 -0.54684346047E+02 -0.17987823271E+03  0.14483674464E+04  0.14704481518E+04  0.17059587071E+03 0.  0.
        -24    2    5    5    0    0 -0.12725276865E+02 -0.47435917403E+02  0.31562228834E+03  0.32920531461E+03  0.79665622088E+02 0.  0.
          5    1    3    3  501    0 -0.29044412132E+02  0.12583460405E+02  0.46311715198E+02  0.56291973819E+02  0.47000000000E+01 0. -1.
        -11    1    4    4    0    0  0.39153510689E+02  0.15578350387E+03  0.50924534612E+03  0.53397782727E+03  0.00000000000E+00 0.  1.
         12    1    4    4    0    0  0.44575247490E+02  0.11511268429E+02  0.19294473402E+03  0.19836111608E+03  0.00000000000E+00 0. -1.
         -5    1    5    5    0  502 -0.41959069182E+02 -0.13244231530E+03  0.11327451580E+04  0.11412428372E+04  0.47000000000E+01 0.  1.
         11    1    6    6    0    0  0.34842422551E+01  0.16999970314E+02  0.14609914494E+03  0.14712613326E+03  0.00000000000E+00 0. -1.
        -12    1    6    6    0    0 -0.16209519120E+02 -0.64435887717E+02  0.16952314340E+03  0.18207918136E+03  0.00000000000E+00 0.  1.
</event>
<event>
12    1  0.8453150E-002  0.2577841E+03  0.7818608E-02  0.1108989E+00
         21   -1    0    0  503  502  0.00000000000E+00  0.00000000000E+00  0.24619059556E+03  0.24619059556E+03  0.00000000000E+00 0. -1.
         21   -1    0    0  501  503 -0.00000000000E+00 -0.00000000000E+00 -0.30511686263E+03  0.30511686263E+03  0.00000000000E+00 0.  1.
          6    2    1    2  501    0  0.14668029927E+03  0.11489947817E+03  0.68818021213E+02  0.26360750878E+03  0.17330896792E+03 0.  0.
         24    2    3    3    0    0  0.87824484660E+02  0.15445746366E+02  0.84508246896E+02  0.14688850919E+03  0.80516328474E+02 0.  0.
         -6    2    1    2    0  502 -0.14668029927E+03 -0.11489947817E+03 -0.12774428828E+03  0.28769994941E+03  0.17814504603E+03 0.  0.
        -24    2    5    5    0    0 -0.28629221113E+02 -0.10815928287E+03 -0.52256708117E+02  0.14733630723E+03  0.80368906380E+02 0.  0.
          5    1    3    3  501    0  0.58855814613E+02  0.99453731801E+02 -0.15690225684E+02  0.11671899959E+03  0.47000000000E+01 0. -1.
        -11    1    4    4    0    0  0.10211391889E+03  0.92215659779E+01  0.63040559345E+02  0.12035946923E+03  0.00000000000E+00 0.  1.
         12    1    4    4    0    0 -0.14289434233E+02  0.62241803884E+01  0.21467687552E+02  0.26529039957E+02  0.00000000000E+00 0. -1.
         -5    1    5    5    0  502 -0.11805107816E+03 -0.67401953023E+01 -0.75487580164E+02  0.14036364218E+03  0.47000000000E+01 0.  1.
         11    1    6    6    0    0 -0.33694864578E+01 -0.91699488859E+02 -0.67152071739E+02  0.11370818104E+03  0.00000000000E+00 0. -1.
        -12    1    6    6    0    0 -0.25259734655E+02 -0.16459794006E+02  0.14895363623E+02  0.33628126190E+02  0.00000000000E+00 0.  1.
</event>
<event>
12    1  0.8453150E-002  0.2257016E+03  0.7818608E-02  0.1130040E+00
         21   -1    0    0  503  502  0.00000000000E+00  0.00000000000E+00  0.27406380018E+03  0.27406380018E+03  0.00000000000E+00 0. -1.
         21   -1    0    0  501  503 -0.00000000000E+00 -0.00000000000E+00 -0.79925641736E+03  0.79925641736E+03  0.00000000000E+00 0. -1.
          6    2    1    2  501    0  0.13530040215E+03 -0.52467205113E+02 -0.73306587186E+03  0.76647741694E+03  0.17042022108E+03 0.  0.
         24    2    3    3    0    0  0.12760317216E+03 -0.70705485249E+02 -0.72622740573E+03  0.74501263576E+03  0.79722941617E+02 0.  0.
         -6    2    1    2    0  502 -0.13530040215E+03  0.52467205113E+02  0.20787325467E+03  0.30684280060E+03  0.17286470964E+03 0.  0.
        -24    2    5    5    0    0 -0.69844808904E+02  0.70651785644E+02  0.19995644586E+03  0.23828713331E+03  0.83235842717E+02 0.  0.
          5    1    3    3  501    0  0.76972299966E+01  0.18238280136E+02 -0.68384661310E+01  0.21464781177E+02  0.47000000000E+01 0. -1.
        -13    1    4    4    0    0  0.14680393636E+02  0.45723197341E+01 -0.17020141715E+02  0.22936985178E+02  0.00000000000E+00 0.  1.
         14    1    4    4    0    0  0.11292277852E+03 -0.75277804983E+02 -0.70920726401E+03  0.72207565058E+03  0.00000000000E+00 0. -1.
         -5    1    5    5    0  502 -0.65455593250E+02 -0.18184580531E+02  0.79168088136E+01  0.68555667298E+02  0.47000000000E+01 0.  1.
         11    1    6    6    0    0 -0.16366179135E+02  0.27675332268E+02  0.62026179881E+01  0.32745202787E+02  0.00000000000E+00 0. -1.
        -12    1    6    6    0    0 -0.53478629769E+02  0.42976453377E+02  0.19375382787E+03  0.20554193052E+03  0.00000000000E+00 0.  1.
</event>
<event>
12    1  0.8453150E-002  0.1790123E+03  0.7818608E-02  0.1168828E+00
         21   -1    0    0  503  502  0.00000000000E+00  0.00000000000E+00  0.11528316892E+04  0.11528316892E+04  0.00000000000E+00 0. -1.
         21   -1    0    0  501  503 -0.00000000000E+00 -0.00000000000E+00 -0.27803408671E+02  0.27803408671E+02  0.00000000000E+00 0. -1.
          6    2    1    2  501    0 -0.55754704339E+01 -0.50490955721E+02  0.58748259589E+03  0.61415080728E+03  0.17165369534E+03 0.  0.
         24    2    3    3    0    0 -0.31105713177E+02  0.13273277856E+02  0.47400122761E+03  0.48141881518E+03  0.77091935638E+02 0.  0.
         -6    2    1    2    0  502  0.55754704339E+01  0.50490955721E+02  0.53754568462E+03  0.56648429057E+03  0.17137288565E+03 0.  0.
        -24    2    5    5    0    0  0.11291454455E+02  0.75602889362E+02  0.20685505553E+03  0.23475900687E+03  0.80495238884E+02 0.  0.
          5    1    3    3  501    0  0.25530242744E+02 -0.63764233577E+02  0.11348136829E+03  0.13273199210E+03  0.47000000000E+01 0. -1.
        -13    1    4    4    0    0 -0.41284998125E+02  0.37902554998E+02  0.27606068183E+03  0.28169230518E+03  0.00000000000E+00 0.  1.
         14    1    4    4    0    0  0.10179284948E+02 -0.24629277142E+02  0.19794054578E+03  0.19972651000E+03  0.00000000000E+00 0. -1.
         -5    1    5    5    0  502 -0.57159840207E+01 -0.25111933641E+02  0.33069062909E+03  0.33172528371E+03  0.47000000000E+01 0.  1.
         13    1    6    6    0    0  0.31114404135E+02  0.39091669637E+02  0.43635202866E+02  0.66334724758E+02  0.00000000000E+00 0. -1.
        -14    1    6    6    0    0 -0.19822949680E+02  0.36511219725E+02  0.16321985266E+03  0.16842428211E+03  0.00000000000E+00 0.  1.
</event>
<event>
12    1  0.8453150E-002  0.1945016E+03  0.7818608E-02  0.1154472E+00
         21   -1    0    0  501  502  0.00000000000E+00  0.00000000000E+00  0.10806526983E+03  0.10806526983E+03  0.00000000000E+00 0. -1.
         21   -1    0    0  502  503 -0.00000000000E+00 -0.00000000000E+00 -0.36820997681E+03  0.36820997681E+03  0.00000000000E+00 0. -1.
         -6    2    1    2    0  503 -0.24342271940E+02  0.87093958088E+02 -0.18301551763E+03  0.26703907335E+03  0.17215482353E+03 0.  0.
        -24    2    3    3    0    0  0.23913912303E+01  0.11221257894E+03 -0.18572503778E+03  0.22995719962E+03  0.76086413868E+02 0.  0.
          6    2    1    2  501    0  0.24342271940E+02 -0.87093958088E+02 -0.77129189352E+02  0.20923617328E+03  0.17220035024E+03 0.  0.
         24    2    5    5    0    0  0.66449827344E+02 -0.40543215805E+02 -0.91408228134E+02  0.14469162450E+03  0.80751904796E+02 0.  0.
          5    1    5    5  501    0 -0.42107555403E+02 -0.46550742284E+02  0.14279038783E+02  0.64544548784E+02  0.47000000000E+01 0. -1.
        -11    1    6    6    0    0  0.18585803307E+01 -0.32478908584E+02 -0.68241579524E+02  0.75599252639E+02  0.00000000000E+00 0.  1.
         12    1    6    6    0    0  0.64591247013E+02 -0.80643072205E+01 -0.23166648611E+02  0.69092371862E+02  0.00000000000E+00 0. -1.
         -5    1    3    3    0  503 -0.26733663171E+02 -0.25118620852E+02  0.27095201504E+01  0.37081873732E+02  0.47000000000E+01 0.  1.
         11    1    4    4    0    0 -0.58918204955E+01  0.16950839476E+02  0.31842666655E+01  0.18225917313E+02  0.00000000000E+00 0. -1.
        -12    1    4    4    0    0  0.82832117258E+01  0.95261739465E+02 -0.18890930445E+03  0.21173128231E+03  0.00000000000E+00 0.  1.
</event>
<event>
12    1  0.8453150E-002  0.2333968E+03  0.7818608E-02  0.1124330E+00
         21   -1    0    0  503  502  0.00000000000E+00  0.00000000000E+00  0.36175541325E+02  0.36175541325E+02  0.00000000000E+00 0.  1.
         21   -1    0    0  501  503 -0.00000000000E+00 -0.00000000000E+00 -0.27092700391E+04  0.27092700391E+04  0.00000000000E+00 0.  1.
          6    2    1    2  501    0  0.69011984103E+02  0.14208955871E+03 -0.22528120566E+04  0.22648700223E+04  0.17181955254E+03 0.  0.
         24    2    3    3    0    0  0.35484546508E+02  0.79338558891E+02 -0.19582218896E+04  0.19617739425E+04  0.79813987949E+02 0.  0.
         -6    2    1    2    0  502 -0.69011984103E+02 -0.14208955871E+03 -0.42028244114E+03  0.48057555815E+03  0.17135763805E+03 0.  0.
        -24    2    5    5    0    0 -0.71101392020E+02 -0.15954817360E+03 -0.42011365818E+03  0.46237425746E+03  0.82361644712E+02 0.  0.
          5    1    3    3  501    0  0.33527437594E+02  0.62750999815E+02 -0.29459016705E+03  0.30309607977E+03  0.47000000000E+01 0. -1.
        -11    1    4    4    0    0  0.42955677010E+02  0.53112495731E+02 -0.71560554574E+03  0.71885841755E+03  0.00000000000E+00 0.  1.
         12    1    4    4    0    0 -0.74711305021E+01  0.26226063161E+02 -0.12426163438E+04  0.12429155249E+04  0.00000000000E+00 0. -1.
         -5    1    5    5    0  502  0.20894079168E+01  0.17458614893E+02 -0.16878296012E+00  0.18201300698E+02  0.47000000000E+01 0.  1.
         11    1    6    6    0    0 -0.19188696930E+02 -0.75240403912E+02 -0.28162673362E+03  0.29213514263E+03  0.00000000000E+00 0. -1.
        -12    1    6    6    0    0 -0.51912695089E+02 -0.84307769688E+02 -0.13848692456E+03  0.17023911482E+03  0.00000000000E+00 0.  1.
</event>
<event>
12    1  0.8453150E-002  0.2900610E+03  0.7818608E-02  0.1090348E+00
         21   -1    0    0  503  502  0.00000000000E+00  0.00000000000E+00  0.20657791661E+03  0.20657791661E+03  0.00000000000E+00 0. -1.
         21   -1    0    0  501  503 -0.00000000000E+00 -0.00000000000E+00 -0.41718005728E+03  0.41718005728E+03  0.00000000000E+00 0.  1.
          6    2    1    2  501    0 -0.22564604663E+03  0.58269103830E+02 -0.15418362420E+03  0.32849349108E+03  0.17269614034E+03 0.  0.
         24    2    3    3    0    0 -0.94352406244E+02  0.89545843385E+02 -0.10307085153E+03  0.18409522248E+03  0.79665650529E+02 0.  0.
         -6    2    1    2    0  502  0.22564604663E+03 -0.58269103830E+02 -0.56418516469E+02  0.29526448281E+03  0.17229811081E+03 0.  0.
        -24    2    5    5    0    0  0.22687465444E+03 -0.13186335128E+02 -0.30159165606E+02  0.24286592349E+03  0.80176637882E+02 0.  0.
          5    1    3    3  501    0 -0.13129364039E+03 -0.31276739554E+02 -0.51112772674E+02  0.14439826860E+03  0.47000000000E+01 0. -1.
        -13    1    4    4    0    0 -0.54770255804E+02  0.34745041528E+02 -0.96368148108E+02  0.11616289770E+03  0.00000000000E+00 0.  1.
         14    1    4    4    0    0 -0.39582150441E+02  0.54800801857E+02 -0.67027034222E+01  0.67932324786E+02  0.00000000000E+00 0. -1.
         -5    1    5    5    0  502 -0.12286078123E+01 -0.45082768703E+02 -0.26259350862E+02  0.52398559320E+02  0.47000000000E+01 0.  1.
         13    1    6    6    0    0  0.29257799513E+01  0.10926300402E+02  0.87322944654E+01  0.14289758410E+02  0.00000000000E+00 0. -1.
        -14    1    6    6    0    0  0.22394887449E+03 -0.24112635529E+02 -0.38891460072E+02  0.22857616508E+03  0.00000000000E+00 0.  1.
</event>
<event>
12    1  0.8453150E-002  0.2068861E+03  0.7818608E-02  0.1144119E+00
         21   -1    0    0  501  502  0.00000000000E+00  0.00000000000E+00  0.10946681151E+04  0.10946681151E+04  0.00000000000E+00 0.  1.
         21   -1    0    0  502  503 -0.00000000000E+00 -0.00000000000E+00 -0.41875398822E+02  0.41875398822E+02  0.00000000000E+00 0.  1.
         -6    2    1    2    0  503 -0.39227462333E+02 -0.10797846598E+03  0.67461693362E+03  0.70562729214E+03  0.17205733163E+03 0.  0.
        -24    2    3    3    0    0 -0.15610547051E+02 -0.11562645174E+03  0.66277036364E+03  0.67772242529E+03  0.80187064397E+02 0.  0.
          6    2    1    2  501    0  0.39227462333E+02  0.10797846598E+03  0.37817578264E+03  0.43091622177E+03  0.17167913294E+03 0.  0.
         24    2    5    5    0    0  0.52650064800E+02  0.82242321595E+02  0.38088075241E+03  0.40138789221E+03  0.80661413795E+02 0.  0.
          5    1    5    5  501    0 -0.13422602468E+02  0.25736144384E+02 -0.27049697658E+01  0.29528329553E+02  0.47000000000E+01 0. -1.
        -13    1    6    6    0    0  0.15533632341E+02  0.87551681895E+02  0.25623121741E+03  0.27122136256E+03  0.00000000000E+00 0.  1.
         14    1    6    6    0    0  0.37116432459E+02 -0.53093602999E+01  0.12464953500E+03  0.13016652965E+03  0.00000000000E+00 0. -1.
         -5    1    3    3    0  503 -0.23616915281E+02  0.76479857648E+01  0.11846569979E+02  0.27904866850E+02  0.47000000000E+01 0.  1.
         11    1    4    4    0    0 -0.53402373661E+01  0.11607359239E+02  0.89873028801E+02  0.90776705324E+02  0.00000000000E+00 0. -1.
        -12    1    4    4    0    0 -0.10270309685E+02 -0.12723381098E+03  0.57289733484E+03  0.58694571996E+03  0.00000000000E+00 0.  1.
</event>
<event>
12    1  0.8453150E-002  0.2141938E+03  0.7818608E-02  0.1138466E+00
         21   -1    0    0  503  502  0.00000000000E+00  0.00000000000E+00  0.63194684718E+03  0.63194684718E+03  0.00000000000E+00 0. -1.
         21   -1    0    0  501  503 -0.00000000000E+00 -0.00000000000E+00 -0.15377226543E+03  0.15377226543E+03  0.00000000000E+00 0.  1.
          6    2    1    2  501    0 -0.47504339898E+01 -0.12607998881E+03 -0.46650997680E+02  0.21921516387E+03  0.17309027206E+03 0.  0.
         24    2    3    3    0    0  0.56047094190E+02 -0.39562597804E+02 -0.15663002146E+01  0.10416596428E+03  0.78368481588E+02 0.  0.
         -6    2    1    2    0  502  0.47504339898E+01  0.12607998881E+03  0.52482557943E+03  0.56650394873E+03  0.17194797150E+03 0.  0.
        -24    2    5    5    0    0 -0.75761942702E+01  0.15352590749E+03  0.49327796358E+03  0.52265687036E+03  0.78863500957E+02 0.  0.
          5    1    3    3  501    0 -0.60797528180E+02 -0.86517391010E+02 -0.45084697466E+02  0.11504919959E+03  0.47000000000E+01 0. -1.
        -11    1    4    4    0    0  0.19161601442E+02 -0.58151346772E+02 -0.99186801831E+01  0.62025207116E+02  0.00000000000E+00 0.  1.
         12    1    4    4    0    0  0.36885492748E+02  0.18588748968E+02  0.83523799686E+01  0.42140757167E+02  0.00000000000E+00 0. -1.
         -5    1    5    5    0  502  0.12326628260E+02 -0.27445918680E+02  0.31547615849E+02  0.43847078377E+02  0.47000000000E+01 0.  1.
         11    1    6    6    0    0  0.26530334734E+02  0.10551688757E+03  0.25562798163E+03  0.27781889284E+03  0.00000000000E+00 0. -1.
        -12    1    6    6    0    0 -0.34106529004E+02  0.48009019920E+02  0.23764998195E+03  0.24483797752E+03  0.00000000000E+00 0.  1.
</event>
<event>
12    1  0.8453150E-002  0.1805708E+03  0.7818608E-02  0.1167521E+00
         21   -1    0    0  501  502  0.00000000000E+00  0.00000000000E+00  0.38924905130E+02  0.38924905130E+02  0.00000000000E+00 0.  1.
         21   -1    0    0  502  503 -0.00000000000E+00 -0.00000000000E+00 -0.90826750875E+03  0.90826750875E+03  0.00000000000E+00 0.  1.
         -6    2    1    2    0  503  0.16415463586E+02  0.48813340367E+02 -0.57022893916E+03  0.59780037996E+03  0.17190707252E+03 0.  0.
        -24    2    3    3    0    0 -0.22175054246E+02  0.89446750740E+02 -0.32282224679E+03  0.34408308939E+03  0.75408985758E+02 0.  0.
          6    2    1    2  501    0 -0.16415463586E+02 -0.48813340367E+02 -0.29911366446E+03  0.34939203392E+03  0.17307108209E+03 0.  0.
         24    2    5    5    0    0  0.10365061017E+02  0.31263976260E+02 -0.20722165601E+03  0.22450887111E+03  0.79865811123E+02 0.  0.
          5    1    5    5  501    0 -0.26780524602E+02 -0.80077316627E+02 -0.91892008451E+02  0.12488316281E+03  0.47000000000E+01 0. -1.
        -11    1    6    6    0    0  0.28250118037E+02  0.24420830194E+02 -0.20090276197E+03  0.20434374442E+03  0.00000000000E+00 0.  1.
         12    1    6    6    0    0 -0.17885057020E+02  0.68431460655E+01 -0.63188940453E+01  0.20165126695E+02  0.00000000000E+00 0. -1.
         -5    1    3    3    0  503  0.38590517831E+02 -0.40633410372E+02 -0.24740669237E+03  0.25371729057E+03  0.47000000000E+01 0.  1.
         11    1    4    4    0    0 -0.18556254249E+02  0.76287438664E+02 -0.32082248407E+03  0.33028953080E+03  0.00000000000E+00 0. -1.
        -12    1    4    4    0    0 -0.36187999970E+01  0.13159312075E+02 -0.19997627204E+01  0.13793558593E+02  0.00000000000E+00 0.  1.
</event>
<event>
12    1  0.8453150E-002  0.2198942E+03  0.7818608E-02  0.1134674E+00
         21   -1    0    0  501  502  0.00000000000E+00  0.00000000000E+00  0.36094260542E+03  0.36094260542E+03  0.00000000000E+00 0.  1.
         21   -1    0    0  502  503 -0.00000000000E+00 -0.00000000000E+00 -0.21261773116E+03  0.21261773116E+03  0.00000000000E+00 0.  1.
         -6    2    1    2    0  503  0.11576666724E+03  0.60129040201E+02 -0.10238586550E+03  0.24256196394E+03  0.17701982425E+03 0.  0.
        -24    2    3    3    0    0  0.23652906546E+02  0.11074119442E+02 -0.11125420645E+03  0.13771890203E+03  0.76856368728E+02 0.  0.
          6    2    1    2  501    0 -0.11576666724E+03 -0.60129040201E+02  0.25071073976E+03  0.33099837263E+03  0.17229807003E+03 0.  0.
         24    2    5    5    0    0 -0.69814596275E+02 -0.73681840208E+02  0.24910086549E+03  0.28283248315E+03  0.87406412297E+02 0.  0.
          5    1    5    5  501    0 -0.45952070965E+02  0.13552800007E+02  0.16098742685E+01  0.48165889478E+02  0.47000000000E+01 0. -1.
        -13    1    6    6    0    0  0.93811735742E+01 -0.15758298569E+02  0.11618960120E+03  0.11762803160E+03  0.00000000000E+00 0.  1.
         14    1    6    6    0    0 -0.79195769850E+02 -0.57923541639E+02  0.13291126429E+03  0.16520445155E+03  0.00000000000E+00 0. -1.
         -5    1    3    3    0  503  0.92113760694E+02  0.49054920759E+02  0.88683409533E+01  0.10484306191E+03  0.47000000000E+01 0.  1.
         13    1    4    4    0    0 -0.18364004479E+02 -0.85053573832E+01 -0.36632376437E+01  0.20566892686E+02  0.00000000000E+00 0. -1.
        -14    1    4    4    0    0  0.42016911024E+02  0.19579476825E+02 -0.10759096881E+03  0.11715200935E+03  0.00000000000E+00 0.  1.
</event>
<event>
12    1  0.8453150E-002  0.2163456E+03  0.7818608E-02  0.1138086E+00
         21   -1    0    0  503  502  0.00000000000E+00  0.00000000000E+00  0.10531562814E+03  0.10531562814E+03  0.00000000000E+00 0.  1.
         21   -1    0    0  501  503 -0.00000000000E+00 -0.00000000000E+00 -0.44806209447E+03  0.44806209447E+03  0.00000000000E+00 0.  1.
          6    2    1    2  501    0 -0.59699908405E+02  0.10230360724E+03 -0.22521478950E+03  0.30716820097E+03  0.17204794436E+03 0.  0.
         24    2    3    3    0    0  0.62018572417E+01  0.77796072478E+02 -0.20599919214E+03  0.23412717717E+03  0.79304325241E+02 0.  0.
         -6    2    1    2    0  502  0.59699908405E+02 -0.10230360724E+03 -0.11753167683E+03  0.24620952164E+03  0.18103957128E+03 0.  0.
        -24    2    5    5    0    0 -0.32704111904E+02 -0.64943595956E+01 -0.12573087068E+02  0.76632664525E+02  0.67843548785E+02 0.  0.
          5    1    3    3  501    0 -0.65901765647E+02  0.24507534764E+02 -0.19215597360E+02  0.73041023798E+02  0.47000000000E+01 0. -1.
        -13    1    4    4    0    0 -0.31968740170E+02  0.12375320189E+02 -0.48858540566E+02  0.59685055785E+02  0.00000000000E+00 0.  1.
         14    1    4    4    0    0  0.38170597412E+02  0.65420752289E+02 -0.15714065158E+03  0.17444212139E+03  0.00000000000E+00 0. -1.
         -5    1    5    5    0  502  0.92404020310E+02 -0.95809247646E+02 -0.10495858976E+03  0.16957685711E+03  0.47000000000E+01 0.  1.
         11    1    6    6    0    0 -0.78808004574E+01 -0.29001521408E+01 -0.39178386942E+02  0.40068240561E+02  0.00000000000E+00 0. -1.
        -12    1    6    6    0    0 -0.24823311447E+02 -0.35942074548E+01  0.26605299874E+02  0.36564423964E+02  0.00000000000E+00 0.  1.
</event>
<event>
12    1  0.8453150E-002  0.2876571E+03  0.7818608E-02  0.1091602E+00
         21   -1    0    0  501  502  0.00000000000E+00  0.00000000000E+00  0.65505678229E+03  0.65505678229E+03  0.00000000000E+00 0.  1.
         21   -1    0    0  502  503 -0.00000000000E+00 -0.00000000000E+00 -0.13535550230E+03  0.13535550230E+03  0.00000000000E+00 0.  1.
         -6    2    1    2    0  503 -0.39344388482E+02  0.22725755399E+03  0.15723715130E+03  0.32767388332E+03  0.17161781758E+03 0.  0.
        -24    2    3    3    0    0 -0.41831011221E+02  0.14581396275E+03  0.17434498274E+03  0.24428317794E+03  0.79161561289E+02 0.  0.
          6    2    1    2  501    0  0.39344388482E+02 -0.22725755399E+03  0.36246412869E+03  0.46273840126E+03  0.17190871608E+03 0.  0.
         24    2    5    5    0    0  0.26355247835E+02 -0.22003239484E+03  0.37429755211E+03  0.44316697798E+03  0.84790677466E+02 0.  0.
          5    1    5    5  501    0  0.12989140647E+02 -0.72251591581E+01 -0.11833423421E+02  0.19571423287E+02  0.47000000000E+01 0. -1.
        -11    1    6    6    0    0  0.87441126644E+01 -0.63238398310E+02  0.19062214184E+03  0.20102824550E+03  0.00000000000E+00 0.  1.
         12    1    6    6    0    0  0.17611135171E+02 -0.15679399653E+03  0.18367541027E+03  0.24213873248E+03  0.00000000000E+00 0. -1.
         -5    1    3    3    0  503  0.24866227393E+01  0.81443591247E+02 -0.17107831443E+02  0.83390705385E+02  0.47000000000E+01 0.  1.
         13    1    4    4    0    0  0.24221346302E+01 -0.75071241045E+01 -0.59105042267E-01  0.78884182124E+01  0.00000000000E+00 0. -1.
        -14    1    4    4    0    0 -0.44253145851E+02  0.15332108685E+03  0.17440408778E+03  0.23639475973E+03  0.00000000000E+00 0.  1.
</event>
<event>
12    1  0.8453150E-002  0.2003984E+03  0.7818608E-02  0.1149702E+00
         21   -1    0    0  503  502  0.00000000000E+00  0.00000000000E+00  0.33467909641E+03  0.33467909641E+03  0.00000000000E+00 0.  1.
         21   -1    0    0  501  503 -0.00000000000E+00 -0.00000000000E+00 -0.12001631232E+03  0.12001631232E+03  0.00000000000E+00 0.  1.
          6    2    1    2  501    0 -0.39554391136E+02 -0.92528274170E+02  0.12705384845E+03  0.23728084394E+03  0.17330172277E+03 0.  0.
         24    2    3    3    0    0 -0.22228504480E+02 -0.98540521663E+02  0.15615244844E+03  0.20256554486E+03  0.80279960077E+02 0.  0.
         -6    2    1    2    0  502  0.39554391136E+02  0.92528274170E+02  0.87608935641E+02  0.21741456479E+03  0.17166169054E+03 0.  0.
        -24    2    5    5    0    0 -0.91780991226E+01  0.11148380602E+03  0.33269294899E+02  0.14185628032E+03  0.80644167644E+02 0.  0.
          5    1    3    3  501    0 -0.17325886656E+02  0.60122474933E+01 -0.29098599994E+02  0.34715299076E+02  0.47000000000E+01 0. -1.
        -13    1    4    4    0    0 -0.30271319387E+02 -0.21449613389E+02  0.10054700276E+03  0.10717340368E+03  0.00000000000E+00 0.  1.
         14    1    4    4    0    0  0.80428149064E+01 -0.77090908274E+02  0.55605445682E+02  0.95392141184E+02  0.00000000000E+00 0. -1.
         -5    1    5    5    0  502  0.48732490259E+02 -0.18955531855E+02  0.54339640742E+02  0.75558284461E+02  0.47000000000E+01 0.  1.
         13    1    6    6    0    0 -0.25016861947E+02  0.10134941052E+03  0.50847094173E+02  0.11611620637E+03  0.00000000000E+00 0. -1.
        -14    1    6    6    0    0  0.15838762825E+02  0.10134395500E+02 -0.17577799274E+02  0.25740073956E+02  0.00000000000E+00 0.  1.
</event>
<event>
12    1  0.8453150E-002  0.1777933E+03  0.7818608E-02  0.1170107E+00
         21   -1    0    0  503  502  0.00000000000E+00  0.00000000000E+00  0.38718361837E+03  0.38718361837E+03  0.00000000000E+00 0.  1.
         21   -1    0    0  501  503 -0.00000000000E+00 -0.00000000000E+00 -0.81913311041E+02  0.81913311041E+02  0.00000000000E+00 0.  1.
          6    2    1    2  501    0 -0.43211759209E+02 -0.94493502558E+01  0.13362624795E+03  0.22241050313E+03  0.17220311091E+03 0.  0.
         24    2    3    3    0    0 -0.79499821648E+02 -0.47713737756E+02  0.75298989378E+02  0.14363775455E+03  0.79781227858E+02 0.  0.
         -6    2    1    2    0  502  0.43211759209E+02  0.94493502558E+01  0.17164405938E+03  0.24668642628E+03  0.17156912145E+03 0.  0.
        -24    2    5    5    0    0  0.88295239021E+02  0.12926421267E+02  0.79697077919E+02  0.14411475585E+03  0.80338639677E+02 0.  0.
          5    1    3    3  501    0  0.36288062438E+02  0.38264387500E+02  0.58327258575E+02  0.78772748582E+02  0.47000000000E+01 0. -1.
        -13    1    4    4    0    0 -0.27772946978E+02  0.13912650055E+02 -0.32031034583E+01  0.31227524512E+02  0.00000000000E+00 0.  1.
         14    1    4    4    0    0 -0.51726874670E+02 -0.61626387811E+02  0.78502092837E+02  0.11241023004E+03  0.00000000000E+00 0. -1.
         -5    1    5    5    0  502 -0.45083479812E+02 -0.34770710110E+01  0.91946981456E+02  0.10257167042E+03  0.47000000000E+01 0.  1.
         13    1    6    6    0    0  0.91443106918E+02  0.33862551062E+02  0.56453242736E+02  0.11267423300E+03  0.00000000000E+00 0. -1.
        -14    1    6    6    0    0 -0.31478678973E+01 -0.20936129795E+02  0.23243835183E+02  0.31440522850E+02  0.00000000000E+00 0.  1.
</event>
<event>
12    1  0.8453150E-002  0.1902699E+03  0.7818608E-02  0.1158318E+00
         21   -1    0    0  501  502  0.00000000000E+00  0.00000000000E+00  0.10292215769E+04  0.10292215769E+04  0.00000000000E+00 0. -1.
         21   -1    0    0  502  503 -0.00000000000E+00 -0.00000000000E+00 -0.60678768927E+02  0.60678768927E+02  0.00000000000E+00 0. -1.
         -6    2    1    2    0  503  0.22996279384E+02  0.78388405566E+02  0.13073307522E+03  0.23085440665E+03  0.17184018483E+03 0.  0.
        -24    2    3    3    0    0  0.78450477485E+02  0.54168141779E+02  0.11383737951E+03  0.16785167816E+03  0.78272420968E+02 0.  0.
          6    2    1    2  501    0 -0.22996279384E+02 -0.78388405566E+02  0.83780973280E+03  0.85904593921E+03  0.17135111998E+03 0.  0.
         24    2    5    5    0    0  0.25113532955E+02 -0.16609567705E+02  0.22052407470E+03  0.23679610792E+03  0.80839111374E+02 0.  0.
          5    1    5    5  501    0 -0.48109812340E+02 -0.61778837861E+02  0.61728565810E+03  0.62224983129E+03  0.47000000000E+01 0. -1.
        -13    1    6    6    0    0  0.46850846446E+02 -0.23200109447E+02  0.19808164141E+03  0.20486479335E+03  0.00000000000E+00 0.  1.
         14    1    6    6    0    0 -0.21737313491E+02  0.65905417424E+01  0.22442433290E+02  0.31931314571E+02  0.00000000000E+00 0. -1.
         -5    1    3    3    0  503 -0.55454198100E+02  0.24220263786E+02  0.16895695704E+02  0.63002728498E+02  0.47000000000E+01 0.  1.
         11    1    4    4    0    0  0.11778908369E+01 -0.14941031958E+02  0.16151085184E+01  0.15074164598E+02  0.00000000000E+00 0. -1.
        -12    1    4    4    0    0  0.77272586648E+02  0.69109173738E+02  0.11222227099E+03  0.15277751356E+03  0.00000000000E+00 0.  1.
</event>
<event>
12    1  0.8453150E-002  0.1729379E+03  0.7818608E-02  0.1174982E+00
         21   -1    0    0  503  502  0.00000000000E+00  0.00000000000E+00  0.91053097371E+03  0.91053097371E+03  0.00000000000E+00 0. -1.
         21   -1    0    0  501  503 -0.00000000000E+00 -0.00000000000E+00 -0.35315548368E+02  0.35315548368E+02  0.00000000000E+00 0. -1.
          6    2    1    2  501    0 -0.12174752437E+02  0.10575897954E+02  0.30876162563E+03  0.35358187763E+03  0.17154104030E+03 0.  0.
         24    2    3    3    0    0 -0.11601817918E+02  0.67288797965E+02  0.25252489054E+03  0.27357349272E+03  0.80070288285E+02 0.  0.
         -6    2    1    2    0  502  0.12174752437E+02 -0.10575897954E+02  0.56645379971E+03  0.59226464445E+03  0.17218428398E+03 0.  0.
        -24    2    5    5    0    0  0.64853877557E+02  0.98423493411E+01  0.46108223792E+03  0.47260992837E+03  0.80376719247E+02 0.  0.
          5    1    3    3  501    0 -0.57293451917E+00 -0.56712900011E+02  0.56236735096E+02  0.80008384910E+02  0.47000000000E+01 0. -1.
        -11    1    4    4    0    0 -0.43069053850E+02  0.22498525238E+02  0.14485745818E+03  0.15279008550E+03  0.00000000000E+00 0.  1.
         12    1    4    4    0    0  0.31467235932E+02  0.44790272727E+02  0.10766743236E+03  0.12078340722E+03  0.00000000000E+00 0. -1.
         -5    1    5    5    0  502 -0.52679125119E+02 -0.20418247295E+02  0.10537156179E+03  0.11965471608E+03  0.47000000000E+01 0.  1.
         13    1    6    6    0    0  0.20092527718E+02 -0.30194793990E+02  0.26690561403E+03  0.26935857524E+03  0.00000000000E+00 0. -1.
        -14    1    6    6    0    0  0.44761349839E+02  0.40037143331E+02  0.19417662389E+03  0.20325135313E+03  0.00000000000E+00 0.  1.
</event>
<event>
12    1  0.8453150E-002  0.2085213E+03  0.7818608E-02  0.1142808E+00
         21   -1    0    0  501  502  0.00000000000E+00  0.00000000000E+00  0.32770027460E+03  0.32770027460E+03  0.00000000000E+00 0. -1.
         21   -1    0    0  502  503 -0.00000000000E+00 -0.00000000000E+00 -0.14790892236E+03  0.14790892236E+03  0.00000000000E+00 0. -1.
         -6    2    1    2    0  503 -0.35173798152E+02  0.11307624644E+03  0.13015823267E+02  0.20859758585E+03  0.17123115248E+03 0.  0.
        -24    2    3    3    0    0  0.12058468182E+02  0.50572001905E+02  0.63063335822E+02  0.11551423030E+03  0.81630993161E+02 0.  0.
          6    2    1    2  501    0  0.35173798152E+02 -0.11307624644E+03  0.16677552897E+03  0.26701161111E+03  0.17163242648E+03 0.  0.
         24    2    5    5    0    0  0.86741435560E+02 -0.53810921844E+02  0.10834608964E+03  0.16899278992E+03  0.79999974696E+02 0.  0.
          5    1    5    5  501    0 -0.51567637408E+02 -0.59265324594E+02  0.58429439329E+02  0.98018821189E+02  0.47000000000E+01 0. -1.
        -11    1    6    6    0    0  0.79440080820E+02 -0.42196364289E+02  0.38554749536E+02  0.97865868983E+02  0.00000000000E+00 0.  1.
         12    1    6    6    0    0  0.73013547399E+01 -0.11614557555E+02  0.69791340105E+02  0.71126920936E+02  0.00000000000E+00 0. -1.
         -5    1    3    3    0  503 -0.47232266334E+02  0.62504244533E+02 -0.50047512556E+02  0.93083355551E+02  0.47000000000E+01 0.  1.
         11    1    4    4    0    0  0.37956731797E+02 -0.24799767042E+00  0.36254235149E+02  0.52489470923E+02  0.00000000000E+00 0. -1.
        -12    1    4    4    0    0 -0.25898263616E+02  0.50819999575E+02  0.26809100673E+02  0.63024759373E+02  0.00000000000E+00 0.  1.
</event>
<event>
12    1  0.8453150E-002  0.2590523E+03  0.7818608E-02  0.1108114E+00
         21   -1    0    0  503  502  0.00000000000E+00  0.00000000000E+00  0.58452607665E+03  0.58452607665E+03  0.00000000000E+00 0. -1.
         21   -1    0    0  501  503 -0.00000000000E+00 -0.00000000000E+00 -0.16531683184E+03  0.16531683184E+03  0.00000000000E+00 0. -1.
          6    2    1    2  501    0  0.18241710301E+03  0.63386436940E+02  0.73077900346E+00  0.25905331353E+03  0.17266802064E+03 0.  0.
         24    2    3    3    0    0  0.42467179680E+02 -0.21675194778E+02  0.21013821366E+02  0.93962568667E+02  0.78192763115E+02 0.  0.
         -6    2    1    2    0  502 -0.18241710301E+03 -0.63386436940E+02  0.41847846581E+03  0.49078959496E+03  0.16869013105E+03 0.  0.
        -24    2    5    5    0    0 -0.11225018670E+03 -0.83763974597E+02  0.36463527606E+03  0.39990604712E+03  0.85728957315E+02 0.  0.
          5    1    3    3  501    0  0.13994992333E+03  0.85061631718E+02 -0.20283042363E+02  0.16509074486E+03  0.47000000000E+01 0. -1.
        -11    1    4    4    0    0  0.18063262479E+02  0.16310698175E+02  0.38498098784E+02  0.45545844336E+02  0.00000000000E+00 0.  1.
         12    1    4    4    0    0  0.24403917200E+02 -0.37985892953E+02 -0.17484277418E+02  0.48416724331E+02  0.00000000000E+00 0. -1.
         -5    1    5    5    0  502 -0.70166916306E+02  0.20377537658E+02  0.53843189753E+02  0.90883547838E+02  0.47000000000E+01 0.  1.
         13    1    6    6    0    0 -0.69927342277E+02 -0.94911281488E+02  0.23196647656E+03  0.26020459412E+03  0.00000000000E+00 0. -1.
        -14    1    6    6    0    0 -0.42322844427E+02  0.11147306891E+02  0.13266879949E+03  0.13970145300E+03  0.00000000000E+00 0.  1.
</event>
<event>
12    1  0.8453150E-002  0.2147040E+03  0.7818608E-02  0.1137988E+00
         21   -1    0    0  501  502  0.00000000000E+00  0.00000000000E+00  0.10695521603E+04  0.10695521603E+04  0.00000000000E+00 0.  1.
         21   -1    0    0  502  503 -0.00000000000E+00 -0.00000000000E+00 -0.54424242336E+02  0.54424242336E+02  0.00000000000E+00 0. -1.
         -6    2    1    2    0  503 -0.80650173915E+02 -0.10089474836E+03  0.25056745620E+03  0.32997249250E+03  0.17150392095E+03 0.  0.
        -24    2    3    3    0    0 -0.35380518394E+02 -0.11469851069E+03  0.24295172746E+03  0.28180637485E+03  0.77341848907E+02 0.  0.
          6    2    1    2  501    0  0.80650173915E+02  0.10089474836E+03  0.76456046181E+03  0.79400391018E+03  0.17089560795E+03 0.  0.
         24    2    5    5    0    0  0.10066485904E+03  0.68864013891E+02  0.72306627490E+03  0.73769748853E+03  0.80604469085E+02 0.  0.
          5    1    5    5  501    0 -0.20014685123E+02  0.32030734472E+02  0.41494186918E+02  0.56306421653E+02  0.47000000000E+01 0. -1.
        -13    1    6    6    0    0  0.46847755921E+02  0.13890305826E+02  0.11737130344E+03  0.12713644522E+03  0.00000000000E+00 0.  1.
         14    1    6    6    0    0  0.53817103117E+02  0.54973708065E+02  0.60569497145E+03  0.61056104331E+03  0.00000000000E+00 0. -1.
         -5    1    3    3    0  503 -0.45269655521E+02  0.13803762328E+02  0.76157287353E+01  0.48166117651E+02  0.47000000000E+01 0.  1.
         13    1    4    4    0    0 -0.36322631611E+02 -0.10943028751E+03  0.15242812425E+03  0.19112470917E+03  0.00000000000E+00 0. -1.
        -14    1    4    4    0    0  0.94211321740E+00 -0.52682231845E+01  0.90523603211E+02  0.90681665684E+02  0.00000000000E+00 0.  1.
</event>
<event>
12    1  0.8453150E-002  0.2548107E+03  0.7818608E-02  0.1110393E+00
         21   -1    0    0  503  502  0.00000000000E+00  0.00000000000E+00  0.23716256750E+03  0.23716256750E+03  0.00000000000E+00 0.  1.
         21   -1    0    0  501  503 -0.00000000000E+00 -0.00000000000E+00 -0.49920669212E+03  0.49920669212E+03  0.00000000000E+00 0. -1.
          6    2    1    2  501    0 -0.18382502805E+03 -0.37480947176E+02 -0.37887350179E+03  0.45658913517E+03  0.17242982820E+03 0.  0.
         24    2    3    3    0    0 -0.28500361650E+02  0.52154524415E+01 -0.78797644246E+02  0.11597741368E+03  0.80013874964E+02 0.  0.
         -6    2    1    2    0  502  0.18382502805E+03  0.37480947176E+02  0.11682937718E+03  0.27978012445E+03  0.17155568287E+03 0.  0.
        -24    2    5    5    0    0  0.15909056502E+03 -0.19656612749E+02  0.43098507776E+02  0.18316322366E+03  0.77427997685E+02 0.  0.
          5    1    3    3  501    0 -0.15532466640E+03 -0.42696399617E+02 -0.30007585755E+03  0.34061172149E+03  0.47000000000E+01 0. -1.
        -11    1    4    4    0    0 -0.49863029353E+01  0.41051693567E+02 -0.30378064097E+02  0.51312099352E+02  0.00000000000E+00 0.  1.
         12    1    4    4    0    0 -0.23514058715E+02 -0.35836241125E+02 -0.48419580150E+02  0.64665314328E+02  0.00000000000E+00 0. -1.
         -5    1    5    5    0  502  0.24734463034E+02  0.57137559925E+02  0.73730869405E+02  0.96616900794E+02  0.47000000000E+01 0.  1.
         11    1    6    6    0    0  0.14240746522E+03 -0.95996243696E+01  0.79186429022E+01  0.14295014461E+03  0.00000000000E+00 0. -1.
        -12    1    6    6    0    0  0.16683099802E+02 -0.10056988380E+02  0.35179864874E+02  0.40213079051E+02  0.00000000000E+00 0.  1.
</event>
<event>
12    1  0.8453150E-002  0.2184760E+03  0.7818608E-02  0.1135328E+00
         21   -1    0    0  503  502  0.00000000000E+00  0.00000000000E+00  0.19220000882E+03  0.19220000882E+03  0.00000000000E+00 0. -1.
         21   -1    0    0  501  503 -0.00000000000E+00 -0.00000000000E+00 -0.31972119474E+03  0.31972119474E+03  0.00000000000E+00 0. -1.
          6    2    1    2  501    0 -0.11430792738E+03  0.66300754339E+02  0.58534035208E+02  0.22618135814E+03  0.17398184159E+03 0.  0.
         24    2    3    3    0    0 -0.96508473442E+02 -0.18828469101E+02  0.14033581181E+02  0.12837447876E+03  0.81330613563E+02 0.  0.
         -6    2    1    2    0  502  0.11430792738E+03 -0.66300754339E+02 -0.18605522113E+03  0.28573984541E+03  0.17195528971E+03 0.  0.
        -24    2    5    5    0    0 -0.94175903098E+01 -0.45229981455E+02 -0.79595202853E+02  0.12109535966E+03  0.78703542386E+02 0.  0.
          5    1    3    3  501    0 -0.17799453943E+02  0.85129223440E+02  0.44500454027E+02  0.97806879373E+02  0.47000000000E+01 0. -1.
        -13    1    4    4    0    0 -0.22902307362E+02 -0.41126494699E+02 -0.93413252315E+01  0.47991297188E+02  0.00000000000E+00 0.  1.
         14    1    4    4    0    0 -0.73606166080E+02  0.22298025598E+02  0.23374906413E+02  0.80383181577E+02  0.00000000000E+00 0. -1.
         -5    1    5    5    0  502  0.12372551769E+03 -0.21070772884E+02 -0.10646001827E+03  0.16464448576E+03  0.47000000000E+01 0.  1.
         13    1    6    6    0    0 -0.12722535591E+02 -0.16094445057E+02 -0.88185578331E+02  0.90540545057E+02  0.00000000000E+00 0. -1.
        -14    1    6    6    0    0  0.33049452814E+01 -0.29135536398E+02  0.85903754784E+01  0.30554814602E+02  0.00000000000E+00 0.  1.
</event>
<event>
12    1  0.8453150E-002  0.3836804E+03  0.7818608E-02  0.1049590E+00
         21   -1    0    0  501  502  0.00000000000E+00  0.00000000000E+00  0.79578228143E+03  0.79578228143E+03  0.00000000000E+00 0. -1.
         21   -1    0    0  502  503 -0.00000000000E+00 -0.00000000000E+00 -0.46860922682E+03  0.46860922682E+03  0.00000000000E+00 0.  1.
         -6    2    1    2    0  503  0.34196624851E+03 -0.27681077724E+02 -0.32828831783E+03  0.50489152568E+03  0.17156653490E+03 0.  0.
        -24    2    3    3    0    0  0.22049693617E+03  0.37566774468E+02 -0.25543038916E+03  0.34887087376E+03  0.80224942786E+02 0.  0.
          6    2    1    2  501    0 -0.34196624851E+03  0.27681077724E+02  0.65546137244E+03  0.75949998256E+03  0.17176569965E+03 0.  0.
         24    2    5    5    0    0 -0.13241230499E+03  0.62809839899E+02  0.23604367646E+03  0.28930834198E+03  0.80651131683E+02 0.  0.
          5    1    5    5  501    0 -0.20955394352E+03 -0.35128762174E+02  0.41941769598E+03  0.47019164059E+03  0.47000000000E+01 0. -1.
        -13    1    6    6    0    0 -0.11349527708E+03  0.41274652802E+02  0.12179613551E+03  0.17151989245E+03  0.00000000000E+00 0.  1.
         14    1    6    6    0    0 -0.18917027916E+02  0.21535187097E+02  0.11424754095E+03  0.11778844953E+03  0.00000000000E+00 0. -1.
         -5    1    3    3    0  503  0.12146931234E+03 -0.65247852193E+02 -0.72857928666E+02  0.15602065192E+03  0.47000000000E+01 0.  1.
         13    1    4    4    0    0  0.17540108680E+03  0.18353861903E+01 -0.21973175996E+03  0.28116001890E+03  0.00000000000E+00 0. -1.
        -14    1    4    4    0    0  0.45095849364E+02  0.35731388278E+02 -0.35698629203E+02  0.67710854854E+02  0.00000000000E+00 0.  1.
</event>
<event>
12    1  0.8453150E-002  0.2086274E+03  0.7818608E-02  0.1142756E+00
         21   -1    0    0  503  502  0.00000000000E+00  0.00000000000E+00  0.13635731660E+03  0.13635731660E+03  0.00000000000E+00 0.  1.
         21   -1    0    0  501  503 -0.00000000000E+00 -0.00000000000E+00 -0.34934255905E+03  0.34934255905E+03  0.00000000000E+00 0.  1.
          6    2    1    2  501    0  0.10062385296E+03 -0.62491353154E+02 -0.34389624270E+02  0.21144273425E+03  0.17174124317E+03 0.  0.
         24    2    3    3    0    0  0.80517998996E+02 -0.75620863416E+02  0.31932843301E+02  0.14075052034E+03  0.81174745753E+02 0.  0.
         -6    2    1    2    0  502 -0.10062385296E+03  0.62491353154E+02 -0.17859561818E+03  0.27425714140E+03  0.17114396212E+03 0.  0.
        -24    2    5    5    0    0 -0.58361254305E+02  0.80225820055E+02 -0.18824032085E+03  0.22718539987E+03  0.79602571009E+02 0.  0.
          5    1    3    3  501    0  0.20105853961E+02  0.13129510262E+02 -0.66322467571E+02  0.70692213913E+02  0.47000000000E+01 0. -1.
        -13    1    4    4    0    0  0.59509289328E+02 -0.10438270889E+01  0.11460474848E+02  0.60611777527E+02  0.00000000000E+00 0.  1.
         14    1    4    4    0    0  0.21008709669E+02 -0.74577036327E+02  0.20472368453E+02  0.80138742811E+02  0.00000000000E+00 0. -1.
         -5    1    5    5    0  502 -0.42262598652E+02 -0.17734466901E+02  0.96447026690E+01  0.47071741530E+02  0.47000000000E+01 0.  1.
         13    1    6    6    0    0  0.12621364838E+02  0.32050902614E+02 -0.24296138525E+02  0.42152835681E+02  0.00000000000E+00 0. -1.
        -14    1    6    6    0    0 -0.70982619143E+02  0.48174917442E+02 -0.16394418232E+03  0.18503256419E+03  0.00000000000E+00 0.  1.
</event>
<event>
12    1  0.8453150E-002  0.2274790E+03  0.7818608E-02  0.1128571E+00
         21   -1    0    0  501  502  0.00000000000E+00  0.00000000000E+00  0.58345945329E+02  0.58345945329E+02  0.00000000000E+00 0. -1.
         21   -1    0    0  502  503 -0.00000000000E+00 -0.00000000000E+00 -0.13507064331E+04  0.13507064331E+04  0.00000000000E+00 0. -1.
         -6    2    1    2    0  503  0.14422433729E+03 -0.37084007365E+02 -0.10596720327E+04  0.10836439942E+04  0.17089062680E+03 0.  0.
        -24    2    3    3    0    0  0.74654524867E+02 -0.75627341743E+02 -0.83044097605E+03  0.84096207330E+03  0.79323395808E+02 0.  0.
          6    2    1    2  501    0 -0.14422433729E+03  0.37084007365E+02 -0.23268845507E+03  0.32540838418E+03  0.17196167102E+03 0.  0.
         24    2    5    5    0    0 -0.64713831371E+02 -0.34791525958E+02 -0.17096271139E+03  0.20163370876E+03  0.77650328862E+02 0.  0.
          5    1    5    5  501    0 -0.79510505916E+02  0.71875533324E+02 -0.61725743683E+02  0.12377467542E+03  0.47000000000E+01 0. -1.
        -11    1    6    6    0    0 -0.39392998446E+02 -0.17960161525E+02 -0.16508318071E+03  0.17066584978E+03  0.00000000000E+00 0.  1.
         12    1    6    6    0    0 -0.25320832926E+02 -0.16831364433E+02 -0.58795306841E+01  0.30967858980E+02  0.00000000000E+00 0. -1.
         -5    1    3    3    0  503  0.69569812420E+02  0.38543334377E+02 -0.22923105661E+03  0.24268192091E+03  0.47000000000E+01 0.  1.
         11    1    4    4    0    0  0.83075105627E+02 -0.44361489280E+02 -0.48879187959E+03  0.49778199692E+03  0.00000000000E+00 0. -1.
        -12    1    4    4    0    0 -0.84205807600E+01 -0.31265852462E+02 -0.34164909646E+03  0.34318007638E+03  0.00000000000E+00 0.  1.
</event>
<event>
12    1  0.8453150E-002  0.1913750E+03  0.7818608E-02  0.1157620E+00
         21   -1    0    0  503  502  0.00000000000E+00  0.00000000000E+00  0.41234654582E+03  0.41234654582E+03  0.00000000000E+00 0. -1.
         21   -1    0    0  501  503 -0.00000000000E+00 -0.00000000000E+00 -0.20596363223E+03  0.20596363223E+03  0.00000000000E+00 0. -1.
          6    2    1    2  501    0  0.78008099854E+02  0.16078780466E+02 -0.13056360938E+03  0.23167053498E+03  0.17401318875E+03 0.  0.
         24    2    3    3    0    0  0.66969169351E+02  0.24779082385E+02 -0.16351209244E+03  0.19554234964E+03  0.80010834020E+02 0.  0.
         -6    2    1    2    0  502 -0.78008099854E+02 -0.16078780466E+02  0.33694652297E+03  0.38663964307E+03  0.17208562820E+03 0.  0.
        -24    2    5    5    0    0 -0.27500965142E+02  0.48505942648E+02  0.24607765172E+03  0.26415944517E+03  0.78210435627E+02 0.  0.
          5    1    3    3  501    0  0.11038930502E+02 -0.87003019193E+01  0.32948483060E+02  0.36128185341E+02  0.47000000000E+01 0. -1.
        -11    1    4    4    0    0  0.39731703382E+02  0.48898348237E+02 -0.64988516785E+02  0.90516098170E+02  0.00000000000E+00 0.  1.
         12    1    4    4    0    0  0.27237465969E+02 -0.24119265852E+02 -0.98523575657E+02  0.10502625147E+03  0.00000000000E+00 0. -1.
         -5    1    5    5    0  502 -0.50507134711E+02 -0.64584723113E+02  0.90868871247E+02  0.12248019790E+03  0.47000000000E+01 0.  1.
         11    1    6    6    0    0  0.18855790153E+02  0.31156797509E+02  0.16656180449E+03  0.17049669079E+03  0.00000000000E+00 0. -1.
        -12    1    6    6    0    0 -0.46356755295E+02  0.17349145139E+02  0.79515847225E+02  0.93662754382E+02  0.00000000000E+00 0.  1.
</event>
<event>
12    1  0.8453150E-002  0.1867290E+03  0.7818608E-02  0.1161586E+00
         21   -1    0    0  501  502  0.00000000000E+00  0.00000000000E+00  0.75138874700E+03  0.75138874700E+03  0.00000000000E+00 0.  1.
         21   -1    0    0  502  503 -0.00000000000E+00 -0.00000000000E+00 -0.59332275592E+02  0.59332275592E+02  0.00000000000E+00 0. -1.
         -6    2    1    2    0  503 -0.69000666714E+02 -0.15174273391E+02  0.15614612653E+03  0.24341182980E+03  0.17284778123E+03 0.  0.
        -24    2    3    3    0    0 -0.12818048028E+02  0.27875675294E+02  0.17015741804E+02  0.87241606396E+02  0.79876196636E+02 0.  0.
          6    2    1    2  501    0  0.69000666714E+02  0.15174273391E+02  0.53591034488E+03  0.56730919279E+03  0.17218731631E+03 0.  0.
         24    2    5    5    0    0 -0.62126673731E+01  0.58865854006E+02  0.26680852662E+03  0.28445962424E+03  0.78909454066E+02 0.  0.
          5    1    5    5  501    0  0.75213334087E+02 -0.43691580614E+02  0.26910181826E+03  0.28284956855E+03  0.47000000000E+01 0. -1.
        -11    1    6    6    0    0 -0.36890619887E+02  0.12408294671E+02  0.15142616392E+03  0.15634822267E+03  0.00000000000E+00 0.  1.
         12    1    6    6    0    0  0.30677952514E+02  0.46457559335E+02  0.11538236271E+03  0.12811140158E+03  0.00000000000E+00 0. -1.
         -5    1    3    3    0  503 -0.56182618686E+02 -0.43049948685E+02  0.13913038473E+03  0.15617022341E+03  0.47000000000E+01 0.  1.
         13    1    4    4    0    0 -0.13124450677E+02  0.39450472514E+02  0.42374227357E+02  0.59364687578E+02  0.00000000000E+00 0. -1.
        -14    1    4    4    0    0  0.30640264886E+00 -0.11574797220E+02 -0.25358485553E+02  0.27876918818E+02  0.00000000000E+00 0.  1.
</event>
<event>
12    1  0.8453150E-002  0.1979378E+03  0.7818608E-02  0.1151765E+00
         21   -1    0    0  501  502  0.00000000000E+00  0.00000000000E+00  0.17258024096E+03  0.17258024096E+03  0.00000000000E+00 0. -1.
         21   -1    0    0  502  503 -0.00000000000E+00 -0.00000000000E+00 -0.29865707779E+03  0.29865707779E+03  0.00000000000E+00 0. -1.
         -6    2    1    2    0  503 -0.30150188799E+02 -0.90624093177E+02 -0.17945184082E+03  0.26622940286E+03  0.17191094097E+03 0.  0.
        -24    2    3    3    0    0 -0.57676918655E+02 -0.12076690106E+03 -0.14595737981E+03  0.21321734157E+03  0.79036742644E+02 0.  0.
          6    2    1    2  501    0  0.30150188799E+02  0.90624093177E+02  0.53375003996E+02  0.20500791588E+03  0.17337126168E+03 0.  0.
         24    2    5    5    0    0  0.83308298866E+02  0.30836781102E+02  0.39365090797E+02  0.12365267623E+03  0.76480025086E+02 0.  0.
          5    1    5    5  501    0 -0.53158110068E+02  0.59787312075E+02  0.14009913198E+02  0.81355239653E+02  0.47000000000E+01 0. -1.
        -13    1    6    6    0    0 -0.20116867513E+01 -0.13584780728E+02 -0.85613976463E+01  0.16183036818E+02  0.00000000000E+00 0.  1.
         14    1    6    6    0    0  0.85319985618E+02  0.44421561830E+02  0.47926488443E+02  0.10746963941E+03  0.00000000000E+00 0. -1.
         -5    1    3    3    0  503  0.27526729857E+02  0.30142807886E+02 -0.33494461014E+02  0.53012061292E+02  0.47000000000E+01 0.  1.
         11    1    4    4    0    0 -0.33423374082E+02 -0.13034066767E+02 -0.71607457162E+02  0.80091427460E+02  0.00000000000E+00 0. -1.
        -12    1    4    4    0    0 -0.24253544573E+02 -0.10773283430E+03 -0.74349922646E+02  0.13312591411E+03  0.00000000000E+00 0.  1.
</event>
<event>
12    1  0.8453150E-002  0.1975730E+03  0.7818608E-02  0.1152278E+00
         21   -1    0    0  503  502  0.00000000000E+00  0.00000000000E+00  0.30759406418E+03  0.30759406418E+03  0.00000000000E+00 0. -1.
         21   -1    0    0  501  503 -0.00000000000E+00 -0.00000000000E+00 -0.12864583872E+03  0.12864583872E+03  0.00000000000E+00 0. -1.
          6    2    1    2  501    0  0.77112133846E+02 -0.63236304821E+02  0.12312980213E+03  0.23093333538E+03  0.16800043387E+03 0.  0.
         24    2    3    3    0    0  0.84976825811E+01  0.11886153339E+01  0.12304805120E+03  0.13669634719E+03  0.58918969910E+02 0.  0.
         -6    2    1    2    0  502 -0.77112133846E+02  0.63236304821E+02  0.55818423325E+02  0.20530656752E+03  0.17055784605E+03 0.  0.
        -24    2    5    5    0    0 -0.11447648126E+03  0.43934455860E+02  0.68071957162E+02  0.16125097852E+03  0.79580057478E+02 0.  0.
          5    1    3    3  501    0  0.68614451265E+02 -0.64424920155E+02  0.81750929852E-01  0.94236988187E+02  0.47000000000E+01 0. -1.
        -13    1    4    4    0    0 -0.18006021956E+02  0.65625944763E+01  0.12481780691E+02  0.22870927444E+02  0.00000000000E+00 0.  1.
         14    1    4    4    0    0  0.26503704537E+02 -0.53739791424E+01  0.11056627051E+03  0.11382541975E+03  0.00000000000E+00 0. -1.
         -5    1    5    5    0  502  0.37364347412E+02  0.19301848960E+02 -0.12253533837E+02  0.44055589002E+02  0.47000000000E+01 0.  1.
         13    1    6    6    0    0 -0.47191050681E+02  0.60647811453E+02  0.36315331486E+02  0.84993856245E+02  0.00000000000E+00 0. -1.
        -14    1    6    6    0    0 -0.67285430577E+02 -0.16713355593E+02  0.31756625676E+02  0.76257122273E+02  0.00000000000E+00 0.  1.
</event>
<event>
12    1  0.8453150E-002  0.2484133E+03  0.7818608E-02  0.1114662E+00
         21   -1    0    0  503  502  0.00000000000E+00  0.00000000000E+00  0.15729494946E+03  0.15729494946E+03  0.00000000000E+00 0.  1.
         21   -1    0    0  501  503 -0.00000000000E+00 -0.00000000000E+00 -0.39977676254E+03  0.39977676254E+03  0.00000000000E+00 0. -1.
          6    2    1    2  501    0  0.18513418281E+03 -0.35367632921E+01 -0.75747628695E+02  0.25970539517E+03  0.16559593802E+03 0.  0.
         24    2    3    3    0    0  0.85892753473E+02  0.55420829688E+02 -0.20902790705E+02  0.13181909676E+03  0.80562485989E+02 0.  0.
         -6    2    1    2    0  502 -0.18513418281E+03  0.35367632921E+01 -0.16673418439E+03  0.29736631684E+03  0.16229375776E+03 0.  0.
        -24    2    5    5    0    0 -0.19217637213E+03  0.29028428528E+02 -0.17067918069E+03  0.27021727592E+03  0.78176632140E+02 0.  0.
          5    1    3    3  501    0  0.99241429333E+02 -0.58957592980E+02 -0.54844837989E+02  0.12788629841E+03  0.47000000000E+01 0. -1.
        -11    1    4    4    0    0  0.77415052061E+02  0.12226568946E+02  0.85747754340E+01  0.78842285910E+02  0.00000000000E+00 0.  1.
         12    1    4    4    0    0  0.84777014123E+01  0.43194260742E+02 -0.29477566139E+02  0.52976810850E+02  0.00000000000E+00 0. -1.
         -5    1    5    5    0  502  0.70421893279E+01 -0.25491665236E+02  0.39449963024E+01  0.27149040919E+02  0.47000000000E+01 0.  1.
         13    1    6    6    0    0 -0.84997668175E+02 -0.18213970473E+02 -0.10360927587E+03  0.13524508997E+03  0.00000000000E+00 0. -1.
        -14    1    6    6    0    0 -0.10717870396E+03  0.47242399001E+02 -0.67069904824E+02  0.13497218594E+03  0.00000000000E+00 0.  1.
</event>
<event>
12    1  0.8453150E-002  0.2095286E+03  0.7818608E-02  0.1142084E+00
         21   -1    0    0  503  502  0.00000000000E+00  0.00000000000E+00  0.55350111663E+02  0.55350111663E+02  0.00000000000E+00 0.  1.
         21   -1    0    0  501  503 -0.00000000000E+00 -0.00000000000E+00 -0.79053577710E+03  0.79053577710E+03  0.00000000000E+00 0.  1.
          6    2    1    2  501    0 -0.75120733543E+02  0.88667861032E+02 -0.37323391543E+03  0.42802544303E+03  0.17434767009E+03 0.  0.
         24    2    3    3    0    0 -0.11453271546E+03  0.67227229476E+02 -0.22977734281E+03  0.27764298651E+03  0.81552175912E+02 0.  0.
         -6    2    1    2    0  502  0.75120733543E+02 -0.88667861032E+02 -0.36195175000E+03  0.41786044573E+03  0.17347382681E+03 0.  0.
        -24    2    5    5    0    0  0.78822230061E+02 -0.12499365240E+03 -0.26136497434E+03  0.31074810455E+03  0.80102294452E+02 0.  0.
          5    1    3    3  501    0  0.39411981921E+02  0.21440631557E+02 -0.14345657263E+03  0.15038245652E+03  0.47000000000E+01 0. -1.
        -11    1    4    4    0    0 -0.10549444741E+03  0.55178628299E+02 -0.23352534916E+03  0.26212181931E+03  0.00000000000E+00 0.  1.
         12    1    4    4    0    0 -0.90382680539E+01  0.12048601176E+02  0.37480063546E+01  0.15521167203E+02  0.00000000000E+00 0. -1.
         -5    1    5    5    0  502 -0.37014965173E+01  0.36325791368E+02 -0.10058677566E+03  0.10711234118E+03  0.47000000000E+01 0.  1.
         13    1    6    6    0    0  0.21913647614E+02 -0.72404903538E+02 -0.19343545366E+03  0.20770159543E+03  0.00000000000E+00 0. -1.
        -14    1    6    6    0    0  0.56908582447E+02 -0.52588748863E+02 -0.67929520674E+02  0.10304650912E+03  0.00000000000E+00 0.  1.
</event>
<event>
12    1  0.8453150E-002  0.2492398E+03  0.7818608E-02  0.1114222E+00
         21   -1    0    0  501  502  0.00000000000E+00  0.00000000000E+00  0.88691826432E+03  0.88691826432E+03  0.00000000000E+00 0. -1.
         21   -1    0    0  502  503 -0.00000000000E+00 -0.00000000000E+00 -0.84904260052E+02  0.84904260052E+02  0.00000000000E+00 0. -1.
         -6    2    1    2    0  503  0.14836535574E+02  0.17705237996E+03  0.61128399806E+03  0.66014287824E+03  0.17479366516E+03 0.  0.
        -24    2    3    3    0    0  0.76376463272E+02  0.11477238465E+03  0.43313700887E+03  0.46158709194E+03  0.80305109278E+02 0.  0.
          6    2    1    2  501    0 -0.14836535574E+02 -0.17705237996E+03  0.19073000621E+03  0.31167964613E+03  0.17087597405E+03 0.  0.
         24    2    5    5    0    0 -0.72329852447E+01 -0.87501262436E+02  0.18632900387E+03  0.22157595338E+03  0.81661609259E+02 0.  0.
          5    1    5    5  501    0 -0.76035503288E+01 -0.89551117519E+02  0.44010023415E+01  0.90103692755E+02  0.47000000000E+01 0. -1.
        -13    1    6    6    0    0 -0.29102267108E+01  0.15890176554E+02  0.30553336862E+02  0.34561156286E+02  0.00000000000E+00 0.  1.
         14    1    6    6    0    0 -0.43227585339E+01 -0.10339143899E+03  0.15577566701E+03  0.18701479709E+03  0.00000000000E+00 0. -1.
         -5    1    3    3    0  503 -0.61539927699E+02  0.62279995308E+02  0.17814698918E+03  0.19855578630E+03  0.47000000000E+01 0.  1.
         13    1    4    4    0    0  0.55916429913E+02  0.19187966628E+02  0.20587567074E+03  0.21419527772E+03  0.00000000000E+00 0. -1.
        -14    1    4    4    0    0  0.20460033360E+02  0.95584418019E+02  0.22726133814E+03  0.24739181422E+03  0.00000000000E+00 0.  1.
</event>
<event>
12    1  0.8453150E-002  0.2007224E+03  0.7818608E-02  0.1149302E+00
         21   -1    0    0  501  502  0.00000000000E+00  0.00000000000E+00  0.12648552171E+03  0.12648552171E+03  0.00000000000E+00 0.  1.
         21   -1    0    0  502  503 -0.00000000000E+00 -0.00000000000E+00 -0.95862697254E+03  0.95862697254E+03  0.00000000000E+00 0. -1.
         -6    2    1    2    0  503 -0.96041686837E+02  0.37723540900E+02 -0.85958296995E+03  0.88252293371E+03  0.17122142136E+03 0.  0.
        -24    2    3    3    0    0 -0.39337898971E+02  0.81945076905E+02 -0.42074170741E+03  0.43780436257E+03  0.79916266200E+02 0.  0.
          6    2    1    2  501    0  0.96041686837E+02 -0.37723540900E+02  0.27441519123E+02  0.20258956054E+03  0.17216974740E+03 0.  0.
         24    2    5    5    0    0  0.13095919893E+03 -0.23494229214E+02  0.44251352273E+02  0.16103999433E+03  0.79204842061E+02 0.  0.
          5    1    5    5  501    0 -0.34917512093E+02 -0.14229311686E+02 -0.16809833150E+02  0.41549566211E+02  0.47000000000E+01 0. -1.
        -13    1    6    6    0    0  0.11103031787E+02  0.21500570925E+02  0.18481426634E+02  0.30448563109E+02  0.00000000000E+00 0.  1.
         14    1    6    6    0    0  0.11985616714E+03 -0.44994800138E+02  0.25769925639E+02  0.13059143122E+03  0.00000000000E+00 0. -1.
         -5    1    3    3    0  503 -0.56703787867E+02 -0.44221536006E+02 -0.43884126254E+03  0.44471857114E+03  0.47000000000E+01 0.  1.
         11    1    4    4    0    0 -0.34839227877E+02  0.18040143645E+02 -0.28519728520E+03  0.28788315349E+03  0.00000000000E+00 0. -1.
        -12    1    4    4    0    0 -0.44986710932E+01  0.63904933261E+02 -0.13554442221E+03  0.14992120907E+03  0.00000000000E+00 0.  1.
</event>
<event>
12    1  0.8453150E-002  0.1982636E+03  0.7818608E-02  0.1151799E+00
         21   -1    0    0  501  502  0.00000000000E+00  0.00000000000E+00  0.42258781108E+03  0.42258781108E+03  0.00000000000E+00 0.  1.
         21   -1    0    0  502  503 -0.00000000000E+00 -0.00000000000E+00 -0.92418266778E+02  0.92418266778E+02  0.00000000000E+00 0.  1.
         -6    2    1    2    0  503  0.85225741441E+02 -0.42980657912E+02  0.18595904898E+03  0.26984262715E+03  0.17065612081E+03 0.  0.
        -24    2    3    3    0    0  0.79472862254E+02  0.11083434038E+01  0.19439887625E+03  0.22434255747E+03  0.78876458766E+02 0.  0.
          6    2    1    2  501    0 -0.85225741441E+02  0.42980657912E+02  0.14421049532E+03  0.24516345071E+03  0.17377481591E+03 0.  0.
         24    2    5    5    0    0 -0.65921888787E+02  0.68839461128E+02  0.33519116935E+02  0.12976853020E+03  0.81435701017E+02 0.  0.
          5    1    5    5  501    0 -0.19303852655E+02 -0.25858803216E+02  0.11069137839E+03  0.11539492052E+03  0.47000000000E+01 0. -1.
        -11    1    6    6    0    0 -0.75655481642E+02  0.57632783683E+02  0.50115317545E+02  0.10750271955E+03  0.00000000000E+00 0.  1.
         12    1    6    6    0    0  0.97335928555E+01  0.11206677445E+02 -0.16596200610E+02  0.22265810650E+02  0.00000000000E+00 0. -1.
         -5    1    3    3    0  503  0.57528791871E+01 -0.44089001316E+02 -0.84398272669E+01  0.45500069673E+02  0.47000000000E+01 0.  1.
         11    1    4    4    0    0 -0.11818561065E+02 -0.12053991531E+02  0.52090631024E+02  0.54757747744E+02  0.00000000000E+00 0. -1.
        -12    1    4    4    0    0  0.91291423319E+02  0.13162334935E+02  0.14230824522E+03  0.16958480973E+03  0.00000000000E+00 0.  1.
</event>
<event>
12    1  0.8453150E-002  0.2078186E+03  0.7818608E-02  0.1143486E+00
         21   -1    0    0  503  502  0.00000000000E+00  0.00000000000E+00  0.17314191975E+03  0.17314191975E+03  0.00000000000E+00 0.  1.
         21   -1    0    0  501  503 -0.00000000000E+00 -0.00000000000E+00 -0.25266365627E+03  0.25266365627E+03  0.00000000000E+00 0. -1.
          6    2    1    2  501    0  0.13830605059E+02  0.11611150341E+03 -0.67629417798E+02  0.21854589724E+03  0.17180047784E+03 0.  0.
         24    2    3    3    0    0  0.12883786700E+02  0.97605562301E+02  0.18777560258E+02  0.13004944433E+03  0.82869918840E+02 0.  0.
         -6    2    1    2    0  502 -0.13830605059E+02 -0.11611150341E+03 -0.11892318723E+02  0.20725967878E+03  0.17071022330E+03 0.  0.
        -24    2    5    5    0    0  0.53838063978E+02 -0.93023519222E+02 -0.84326918431E+01  0.13552291832E+03  0.82118443944E+02 0.  0.
          5    1    3    3  501    0  0.94681835889E+00  0.18505941114E+02 -0.86406978056E+02  0.88496452914E+02  0.47000000000E+01 0. -1.
        -11    1    4    4    0    0  0.29242406465E+02  0.39311975956E+02  0.42659198438E+02  0.64964274804E+02  0.00000000000E+00 0.  1.
         12    1    4    4    0    0 -0.16358619765E+02  0.58293586345E+02 -0.23881638180E+02  0.65085169523E+02  0.00000000000E+00 0. -1.
         -5    1    5    5    0  502 -0.67668669036E+02 -0.23087984193E+02 -0.34596268795E+01  0.71736760461E+02  0.47000000000E+01 0.  1.
         11    1    6    6    0    0  0.50357374788E+02 -0.98910615779E+02  0.14184354030E+02  0.11189446371E+03  0.00000000000E+00 0. -1.
        -12    1    6    6    0    0  0.34806891895E+01  0.58870965566E+01 -0.22617045873E+02  0.23628454607E+02  0.00000000000E+00 0.  1.
</event>
<event>
12    1  0.8453150E-002  0.1994497E+03  0.7818608E-02  0.1150371E+00
         21   -1    0    0  503  502  0.00000000000E+00  0.00000000000E+00  0.97632034713E+03  0.97632034713E+03  0.00000000000E+00 0.  1.
         21   -1    0    0  501  503 -0.00000000000E+00 -0.00000000000E+00 -0.47277242245E+02  0.47277242245E+02  0.00000000000E+00 0. -1.
          6    2    1    2  501    0 -0.76714390013E+02  0.64715735782E+02  0.65629668148E+03  0.68570590927E+03  0.17144688915E+03 0.  0.
         24    2    3    3    0    0  0.24483393997E+02  0.22901615350E+02  0.23079021083E+03  0.24631171414E+03  0.79255400693E+02 0.  0.
         -6    2    1    2    0  502  0.76714390013E+02 -0.64715735782E+02  0.27274642341E+03  0.33789168011E+03  0.17235704775E+03 0.  0.
        -24    2    5    5    0    0 -0.11566027048E+01  0.13883283522E+02  0.15441157833E+03  0.17582094585E+03  0.82921566468E+02 0.  0.
          5    1    3    3  501    0 -0.10119778401E+03  0.41814120432E+02  0.42550647065E+03  0.43939419513E+03  0.47000000000E+01 0. -1.
        -11    1    4    4    0    0  0.17876210563E+01  0.34256932649E+02  0.21194184103E+03  0.21469996973E+03  0.00000000000E+00 0.  1.
         12    1    4    4    0    0  0.22695772941E+02 -0.11355317299E+02  0.18848369805E+02  0.31611744410E+02  0.00000000000E+00 0. -1.
         -5    1    5    5    0  502  0.77870992718E+02 -0.78599019304E+02  0.11833484508E+03  0.16207073426E+03  0.47000000000E+01 0.  1.
         13    1    6    6    0    0  0.12121800215E+02  0.89756530914E+01 -0.49172851014E+01  0.15864428185E+02  0.00000000000E+00 0. -1.
        -14    1    6    6    0    0 -0.13278402920E+02  0.49076304303E+01  0.15932886343E+03  0.15995651766E+03  0.00000000000E+00 0.  1.
</event>
<event>
12    1  0.8453150E-002  0.1977999E+03  0.7818608E-02  0.1151644E+00
         21   -1    0    0  501  502  0.00000000000E+00  0.00000000000E+00  0.28495063953E+03  0.28495063953E+03  0.00000000000E+00 0. -1.
         21   -1    0    0  502  503 -0.00000000000E+00 -0.00000000000E+00 -0.20639663867E+03  0.20639663867E+03  0.00000000000E+00 0. -1.
         -6    2    1    2    0  503  0.15354817426E+02 -0.96415782852E+02 -0.10297279089E+03  0.22299818217E+03  0.17202621889E+03 0.  0.
        -24    2    3    3    0    0  0.11826790608E+02 -0.15643157323E+01  0.26597550399E+01  0.80908166519E+02  0.79979603980E+02 0.  0.
          6    2    1    2  501    0 -0.15354817426E+02  0.96415782852E+02  0.18152679175E+03  0.26834909604E+03  0.17183564130E+03 0.  0.
         24    2    5    5    0    0 -0.16858139384E+02 -0.91909599510E+01  0.12079155880E+03  0.14642328818E+03  0.80501602681E+02 0.  0.
          5    1    5    5  501    0  0.15033219581E+01  0.10560674280E+03  0.60735232946E+02  0.12192580786E+03  0.47000000000E+01 0. -1.
        -13    1    6    6    0    0 -0.31599076468E+02 -0.34659567393E+02  0.44500026202E+02  0.64653225577E+02  0.00000000000E+00 0.  1.
         14    1    6    6    0    0  0.14740937084E+02  0.25468607442E+02  0.76291532598E+02  0.81770062598E+02  0.00000000000E+00 0. -1.
         -5    1    3    3    0  503  0.35280268177E+01 -0.94851467120E+02 -0.10563254593E+03  0.14209001565E+03  0.47000000000E+01 0.  1.
         13    1    4    4    0    0  0.22679169252E+02 -0.59595958415E+01 -0.34630663855E+02  0.41822773456E+02  0.00000000000E+00 0. -1.
        -14    1    4    4    0    0 -0.10852378644E+02  0.43952801092E+01  0.37290418895E+02  0.39085393062E+02  0.00000000000E+00 0.  1.
</event>
<event>
12    1  0.8453150E-002  0.2886588E+03  0.7818608E-02  0.1091088E+00
         21   -1    0    0  503  502  0.00000000000E+00  0.00000000000E+00  0.20185484789E+03  0.20185484789E+03  0.00000000000E+00 0. -1.
         21   -1    0    0  501  503 -0.00000000000E+00 -0.00000000000E+00 -0.61501844658E+03  0.61501844658E+03  0.00000000000E+00 0.  1.
          6    2    1    2  501    0  0.20529468356E+03  0.10682836745E+03 -0.44095210186E+03  0.52688000216E+03  0.17206270181E+03 0.  0.
         24    2    3    3    0    0  0.14122985181E+03  0.50367652463E+01 -0.30542336056E+03  0.34561786418E+03  0.78721272996E+02 0.  0.
         -6    2    1    2    0  502 -0.20529468356E+03 -0.10682836745E+03  0.27788503168E+02  0.28999329231E+03  0.17252739344E+03 0.  0.
        -24    2    5    5    0    0 -0.10551354399E+03 -0.12610441665E+02  0.64784695972E+02  0.14778182430E+03  0.79688641324E+02 0.  0.
          5    1    3    3  501    0  0.64064831750E+02  0.10179160220E+03 -0.13552874130E+03  0.18126213798E+03  0.47000000000E+01 0. -1.
        -11    1    4    4    0    0  0.89049899400E+01  0.54946110465E+01 -0.10457565072E+03  0.10509784165E+03  0.00000000000E+00 0.  1.
         12    1    4    4    0    0  0.13232486187E+03 -0.45784580020E+00 -0.20084770984E+03  0.24052002253E+03  0.00000000000E+00 0. -1.
         -5    1    5    5    0  502 -0.99781139565E+02 -0.94217925781E+02 -0.36996192804E+02  0.14221146801E+03  0.47000000000E+01 0.  1.
         11    1    6    6    0    0 -0.11057590236E+03 -0.27577242451E+02  0.45153051630E+02  0.12258194221E+03  0.00000000000E+00 0. -1.
        -12    1    6    6    0    0  0.50623583650E+01  0.14966800785E+02  0.19631644341E+02  0.25199882093E+02  0.00000000000E+00 0.  1.
</event>
<event>
12    1  0.8453150E-002  0.1769039E+03  0.7818608E-02  0.1171971E+00
         21   -1    0    0  503  502  0.00000000000E+00  0.00000000000E+00  0.83277402913E+03  0.83277402913E+03  0.00000000000E+00 0.  1.
         21   -1    0    0  501  503 -0.00000000000E+00 -0.00000000000E+00 -0.60721001531E+02  0.60721001531E+02  0.00000000000E+00 0.  1.
          6    2    1    2  501    0 -0.21357526367E+02  0.36072239060E+02  0.10158041623E+03  0.20007702861E+03  0.16719714727E+03 0.  0.
         24    2    3    3    0    0 -0.37357226738E+02  0.57624002699E+02  0.10918094476E+02  0.10540804999E+03  0.79218458324E+02 0.  0.
         -6    2    1    2    0  502  0.21357526367E+02 -0.36072239060E+02  0.67047261137E+03  0.69341800205E+03  0.17186521638E+03 0.  0.
        -24    2    5    5    0    0  0.14603321576E+02 -0.54677678858E+02  0.19727322204E+03  0.21978150246E+03  0.78640187728E+02 0.  0.
          5    1    3    3  501    0  0.15999700371E+02 -0.21551763639E+02  0.90662321754E+02  0.94668978624E+02  0.47000000000E+01 0. -1.
        -11    1    4    4    0    0 -0.54937006550E+01 -0.58612395370E+01 -0.24679902425E+02  0.25954430441E+02  0.00000000000E+00 0.  1.
         12    1    4    4    0    0 -0.31863526083E+02  0.63485242236E+02  0.35597996901E+02  0.79453619550E+02  0.00000000000E+00 0. -1.
         -5    1    5    5    0  502  0.67542047901E+01  0.18605439798E+02  0.47319938934E+03  0.47363649959E+03  0.47000000000E+01 0.  1.
         11    1    6    6    0    0 -0.27070436884E+02 -0.45106873554E+02  0.89201153978E+02  0.10355812120E+03  0.00000000000E+00 0. -1.
        -12    1    6    6    0    0  0.41673758461E+02 -0.95708053041E+01  0.10807206806E+03  0.11622338126E+03  0.00000000000E+00 0.  1.
</event>
<event>
12    1  0.8453150E-002  0.1866429E+03  0.7818608E-02  0.1162205E+00
         21   -1    0    0  503  502  0.00000000000E+00  0.00000000000E+00  0.44318433071E+03  0.44318433071E+03  0.00000000000E+00 0.  1.
         21   -1    0    0  501  503 -0.00000000000E+00 -0.00000000000E+00 -0.25730188719E+03  0.25730188719E+03  0.00000000000E+00 0.  1.
          6    2    1    2  501    0  0.91509160879E+01  0.68403445845E+02 -0.19971893576E+03  0.27335550230E+03  0.17341512814E+03 0.  0.
         24    2    3    3    0    0 -0.84596195656E+00  0.26824936800E+02 -0.41915008814E+02  0.10979242779E+03  0.97863253314E+02 0.  0.
         -6    2    1    2    0  502 -0.91509160879E+01 -0.68403445845E+02  0.38560137929E+03  0.42713071559E+03  0.17026289621E+03 0.  0.
        -24    2    5    5    0    0  0.26455654516E+02  0.21227315737E+02  0.15502235791E+03  0.17715016356E+03  0.78738481124E+02 0.  0.
          5    1    3    3  501    0  0.99968780444E+01  0.41578509044E+02 -0.15780392695E+03  0.16356307452E+03  0.47000000000E+01 0. -1.
        -11    1    4    4    0    0  0.17375069177E+02  0.55341954460E+02 -0.28041444152E+01  0.58073127850E+02  0.00000000000E+00 0.  1.
         12    1    4    4    0    0 -0.18221031133E+02 -0.28517017660E+02 -0.39110864399E+02  0.51719299935E+02  0.00000000000E+00 0. -1.
         -5    1    5    5    0  502 -0.35606570604E+02 -0.89630761582E+02  0.23057902138E+03  0.24998055203E+03  0.47000000000E+01 0.  1.
         13    1    6    6    0    0 -0.20969940069E+02  0.30770298432E+02  0.72118418460E+02  0.81164129597E+02  0.00000000000E+00 0. -1.
        -14    1    6    6    0    0  0.47425594585E+02 -0.95429826949E+01  0.82903939449E+02  0.95986033966E+02  0.00000000000E+00 0.  1.
</event>
<event>
12    1  0.8453150E-002  0.1820465E+03  0.7818608E-02  0.1166111E+00
         21   -1    0    0  503  502  0.00000000000E+00  0.00000000000E+00  0.14402437095E+03  0.14402437095E+03  0.00000000000E+00 0.  1.
         21   -1    0    0  501  503 -0.00000000000E+00 -0.00000000000E+00 -0.22916756634E+03  0.22916756634E+03  0.00000000000E+00 0.  1.
          6    2    1    2  501    0 -0.57519689185E+02  0.65750647827E+01 -0.51464662672E+02  0.18918124099E+03  0.17259543539E+03 0.  0.
         24    2    3    3    0    0 -0.79040306225E+02  0.41804253251E+02 -0.74712497418E+02  0.14157048067E+03  0.80406953235E+02 0.  0.
         -6    2    1    2    0  502  0.57519689185E+02 -0.65750647827E+01 -0.33678532714E+02  0.18401069630E+03  0.17138829209E+03 0.  0.
        -24    2    5    5    0    0  0.50128017203E+01  0.57217512838E+01  0.42475665968E+02  0.90577635269E+02  0.79638302297E+02 0.  0.
          5    1    3    3  501    0  0.21520617040E+02 -0.35229188468E+02  0.23247834746E+02  0.47610760321E+02  0.47000000000E+01 0. -1.
        -11    1    4    4    0    0 -0.37730828387E+02  0.63256769972E+02 -0.47727695990E+02  0.87766550134E+02  0.00000000000E+00 0.  1.
         12    1    4    4    0    0 -0.41309477838E+02 -0.21452516721E+02 -0.26984801428E+02  0.53803930535E+02  0.00000000000E+00 0. -1.
         -5    1    5    5    0  502  0.52506887465E+02 -0.12296816067E+02 -0.76154198682E+02  0.93433061030E+02  0.47000000000E+01 0.  1.
         11    1    6    6    0    0 -0.19694861245E+02 -0.24721892243E+02  0.40425985205E+02  0.51315882486E+02  0.00000000000E+00 0. -1.
        -12    1    6    6    0    0  0.24707662965E+02  0.30443643526E+02  0.20496807631E+01  0.39261752783E+02  0.00000000000E+00 0.  1.
</event>
<event>
12    1  0.8453150E-002  0.2043784E+03  0.7818608E-02  0.1146447E+00
         21   -1    0    0  503  502  0.00000000000E+00  0.00000000000E+00  0.56076263974E+02  0.56076263974E+02  0.00000000000E+00 0.  1.
         21   -1    0    0  501  503 -0.00000000000E+00 -0.00000000000E+00 -0.93034648045E+03  0.93034648045E+03  0.00000000000E+00 0.  1.
          6    2    1    2  501    0  0.22892627025E+02 -0.10577334142E+03 -0.66243954482E+03  0.69325081560E+03  0.17337378883E+03 0.  0.
         24    2    3    3    0    0  0.43511252786E+02  0.14585531289E+01 -0.23372660013E+03  0.25082490554E+03  0.79935305953E+02 0.  0.
         -6    2    1    2    0  502 -0.22892627025E+02  0.10577334142E+03 -0.21183067165E+03  0.29317192883E+03  0.17136357335E+03 0.  0.
        -24    2    5    5    0    0  0.16881645483E+01  0.11402606397E+03 -0.96899805160E+02  0.17525875392E+03  0.91220970291E+02 0.  0.
          5    1    3    3  501    0 -0.20618625761E+02 -0.10723189455E+03 -0.42871294469E+03  0.44242591005E+03  0.47000000000E+01 0. -1.
        -13    1    4    4    0    0  0.40551336777E+02  0.11807217714E+02 -0.23606224539E+03  0.23981076916E+03  0.00000000000E+00 0.  1.
         14    1    4    4    0    0  0.29599160093E+01 -0.10348664585E+02  0.23356452669E+01  0.11014136384E+02  0.00000000000E+00 0. -1.
         -5    1    5    5    0  502 -0.24580791574E+02 -0.82527225476E+01 -0.11493086649E+03  0.11791317491E+03  0.47000000000E+01 0.  1.
         13    1    6    6    0    0 -0.21884359306E+02  0.44184958642E+02 -0.88184564598E+02  0.10103342608E+03  0.00000000000E+00 0. -1.
        -14    1    6    6    0    0  0.23572523855E+02  0.69841105330E+02 -0.87152405621E+01  0.74225327838E+02  0.00000000000E+00 0.  1.
</event>
<event>
12    1  0.8453150E-002  0.1987784E+03  0.7818608E-02  0.1150787E+00
         21   -1    0    0  501  502  0.00000000000E+00  0.00000000000E+00  0.51306026670E+03  0.51306026670E+03  0.00000000000E+00 0.  1.
         21   -1    0    0  502  503 -0.00000000000E+00 -0.00000000000E+00 -0.84999569857E+02  0.84999569857E+02  0.00000000000E+00 0.  1.
         -6    2    1    2    0  503 -0.17614652973E+02  0.99895288693E+02  0.30579106784E+03  0.36468738572E+03  0.17087822398E+03 0.  0.
        -24    2    3    3    0    0  0.62466914068E+01  0.46144004147E+02  0.57761632311E+02  0.10973787065E+03  0.80856068510E+02 0.  0.
          6    2    1    2  501    0  0.17614652973E+02 -0.99895288693E+02  0.12226962900E+03  0.23337245084E+03  0.17094880500E+03 0.  0.
         24    2    5    5    0    0 -0.51080525720E+02 -0.61333766599E+02  0.45384406975E+02  0.12319329706E+03  0.82132776708E+02 0.  0.
          5    1    5    5  501    0  0.68695178693E+02 -0.38561522094E+02  0.76885222026E+02  0.11017915378E+03  0.47000000000E+01 0. -1.
        -13    1    6    6    0    0 -0.20116940516E+02 -0.18198886732E+02 -0.23726992991E+02  0.36039713795E+02  0.00000000000E+00 0.  1.
         14    1    6    6    0    0 -0.30963585204E+02 -0.43134879867E+02  0.69111399966E+02  0.87153583260E+02  0.00000000000E+00 0. -1.
         -5    1    3    3    0  503 -0.23861344379E+02  0.53751284545E+02  0.24802943553E+03  0.25494951507E+03  0.47000000000E+01 0.  1.
         11    1    4    4    0    0  0.32206173375E+02  0.29543504025E+02  0.64771505202E+02  0.78137085431E+02  0.00000000000E+00 0. -1.
        -12    1    4    4    0    0 -0.25959481968E+02  0.16600500122E+02 -0.70098728915E+01  0.31600785217E+02  0.00000000000E+00 0.  1.
</event>
<event>
12    1  0.8453150E-002  0.1759252E+03  0.7818608E-02  0.1171950E+00
         21   -1    0    0  501  502  0.00000000000E+00  0.00000000000E+00  0.94774223937E+02  0.94774223937E+02  0.00000000000E+00 0. -1.
         21   -1    0    0  502  503 -0.00000000000E+00 -0.00000000000E+00 -0.23875835952E+04  0.23875835952E+04  0.00000000000E+00 0. -1.
         -6    2    1    2    0  503 -0.10888227736E+01  0.39394512673E+02 -0.22996249604E+04  0.23063006470E+04  0.17086428194E+03 0.  0.
        -24    2    3    3    0    0 -0.43436068844E+02 -0.19024294922E+02 -0.89958718327E+03  0.90439697212E+03  0.80175850538E+02 0.  0.
          6    2    1    2  501    0  0.10888227736E+01 -0.39394512673E+02  0.68155890826E+01  0.17605717216E+03  0.17145425760E+03 0.  0.
         24    2    5    5    0    0  0.30770139436E+02  0.39196663558E+02  0.30366485061E+01  0.91831736974E+02  0.77075720993E+02 0.  0.
          5    1    5    5  501    0 -0.29681316662E+02 -0.78591176231E+02  0.37789405765E+01  0.84225435184E+02  0.47000000000E+01 0. -1.
        -13    1    6    6    0    0  0.13564955096E+02 -0.74321842600E+01 -0.28882272178E+02  0.32763257100E+02  0.00000000000E+00 0.  1.
         14    1    6    6    0    0  0.17205184340E+02  0.46628847817E+02  0.31918920685E+02  0.59068479874E+02  0.00000000000E+00 0. -1.
         -5    1    3    3    0  503  0.42347246071E+02  0.58418807595E+02 -0.14000377771E+04  0.14019036749E+04  0.47000000000E+01 0.  1.
         11    1    4    4    0    0 -0.42604914669E+02  0.23936634974E+02 -0.40241286907E+03  0.40536928650E+03  0.00000000000E+00 0. -1.
        -12    1    4    4    0    0 -0.83115417541E+00 -0.42960929896E+02 -0.49717431420E+03  0.49902768562E+03  0.00000000000E+00 0.  1.
</event>
<event>
12    1  0.8453150E-002  0.1754294E+03  0.7818608E-02  0.1172368E+00
         21   -1    0    0  503  502  0.00000000000E+00  0.00000000000E+00  0.12207731070E+03  0.12207731070E+03  0.00000000000E+00 0. -1.
         21   -1    0    0  501  503 -0.00000000000E+00 -0.00000000000E+00 -0.86825064216E+03  0.86825064216E+03  0.00000000000E+00 0. -1.
          6    2    1    2  501    0 -0.30331803928E+02 -0.26694821825E+01 -0.79042607334E+03  0.80965970890E+03  0.17276667018E+03 0.  0.
         24    2    3    3    0    0  0.23135148388E+02  0.48993900491E+02 -0.53450017713E+03  0.54311144976E+03  0.79649043467E+02 0.  0.
         -6    2    1    2    0  502  0.30331803928E+02  0.26694821825E+01  0.44252741884E+02  0.18066824396E+03  0.17249801374E+03 0.  0.
        -24    2    5    5    0    0  0.18054482708E+02 -0.48096172485E+02  0.74879446758E+02  0.11993959041E+03  0.78354116978E+02 0.  0.
          5    1    3    3  501    0 -0.53466952316E+02 -0.51663382674E+02 -0.25592589621E+03  0.26654825914E+03  0.47000000000E+01 0. -1.
        -11    1    4    4    0    0  0.11323817340E+02  0.10865260207E+02 -0.13842713398E+02  0.20926142329E+02  0.00000000000E+00 0.  1.
         12    1    4    4    0    0  0.11811331048E+02  0.38128640284E+02 -0.52065746374E+03  0.52218530743E+03  0.00000000000E+00 0. -1.
         -5    1    5    5    0  502  0.12277321220E+02  0.50765654667E+02 -0.30626704874E+02  0.60728653547E+02  0.47000000000E+01 0.  1.
         13    1    6    6    0    0  0.22683219632E+02 -0.62769485215E+02  0.31287289063E+02  0.73711811699E+02  0.00000000000E+00 0. -1.
        -14    1    6    6    0    0 -0.46287369248E+01  0.14673312731E+02  0.43592157695E+02  0.46227778711E+02  0.00000000000E+00 0.  1.
</event>
<event>
12    1  0.8453150E-002  0.2133597E+03  0.7818608E-02  0.1139150E+00
         21   -1    0    0  503  502  0.00000000000E+00  0.00000000000E+00  0.36497674023E+02  0.36497674023E+02  0.00000000000E+00 0.  1.
         21   -1    0    0  501  503 -0.00000000000E+00 -0.00000000000E+00 -0.12437519902E+04  0.12437519902E+04  0.00000000000E+00 0. -1.
          6    2    1    2  501    0 -0.20728736340E+02 -0.12340656117E+03 -0.63350841071E+03  0.66811675005E+03  0.17142994315E+03 0.  0.
         24    2    3    3    0    0 -0.71219603167E+01  0.74109139582E+01 -0.25161249538E+03  0.26417995265E+03  0.79853337961E+02 0.  0.
         -6    2    1    2    0  502  0.20728736340E+02  0.12340656117E+03 -0.57374590547E+03  0.61213291417E+03  0.17281053418E+03 0.  0.
        -24    2    5    5    0    0  0.29644543748E+02  0.63545802242E+02 -0.52798940712E+03  0.53611614482E+03  0.61080592280E+02 0.  0.
          5    1    3    3  501    0 -0.13606776024E+02 -0.13081747513E+03 -0.38189591532E+03  0.40393679740E+03  0.47000000000E+01 0. -1.
        -13    1    4    4    0    0 -0.11538370397E+02 -0.33555210757E+01  0.27916536139E+00  0.12019627549E+02  0.00000000000E+00 0.  1.
         14    1    4    4    0    0  0.44164100806E+01  0.10766435034E+02 -0.25189166074E+03  0.25216032510E+03  0.00000000000E+00 0. -1.
         -5    1    5    5    0  502 -0.89158074074E+01  0.59860758929E+02 -0.45756498350E+02  0.76016769351E+02  0.47000000000E+01 0.  1.
         13    1    6    6    0    0  0.24553614126E+02  0.13849001651E+02 -0.35332883004E+03  0.35445160029E+03  0.00000000000E+00 0. -1.
        -14    1    6    6    0    0  0.50909296214E+01  0.49696800591E+02 -0.17466057708E+03  0.18166454453E+03  0.00000000000E+00 0.  1.
</event>
<event>
12    1  0.8453150E-002  0.2071354E+03  0.7818608E-02  0.1144434E+00
         21   -1    0    0  501  502  0.00000000000E+00  0.00000000000E+00  0.56975327190E+03  0.56975327190E+03  0.00000000000E+00 0.  1.
         21   -1    0    0  502  503 -0.00000000000E+00 -0.00000000000E+00 -0.84692383758E+02  0.84692383758E+02  0.00000000000E+00 0. -1.
         -6    2    1    2    0  503  0.49024636497E+02 -0.99972454877E+02  0.12921982065E+03  0.24413688122E+03  0.17466295544E+03 0.  0.
        -24    2    3    3    0    0  0.15022962294E+02 -0.87331570797E+02  0.15731479349E+03  0.19801396612E+03  0.81296333694E+02 0.  0.
          6    2    1    2  501    0 -0.49024636497E+02  0.99972454877E+02  0.35584106749E+03  0.41030877444E+03  0.17126738847E+03 0.  0.
         24    2    5    5    0    0 -0.95754833793E+02  0.48292405453E+02  0.21248326137E+03  0.25084689993E+03  0.79207867169E+02 0.  0.
          5    1    5    5  501    0  0.46730197296E+02  0.51680049424E+02  0.14335780612E+03  0.15946187451E+03  0.47000000000E+01 0. -1.
        -13    1    6    6    0    0 -0.60422076982E+02 -0.10033406570E+02  0.13086853327E+03  0.14449245529E+03  0.00000000000E+00 0.  1.
         14    1    6    6    0    0 -0.35332756811E+02  0.58325812023E+02  0.81614728095E+02  0.10635444464E+03  0.00000000000E+00 0. -1.
         -5    1    3    3    0  503  0.34001674202E+02 -0.12640884080E+02 -0.28094972837E+02  0.46122915103E+02  0.47000000000E+01 0.  1.
         13    1    4    4    0    0  0.24482817304E+02 -0.26401756742E+02  0.85941878971E+01  0.37017849313E+02  0.00000000000E+00 0. -1.
        -14    1    4    4    0    0 -0.94598550092E+01 -0.60929814055E+02  0.14872060559E+03  0.16099611680E+03  0.00000000000E+00 0.  1.
</event>
<event>
12    1  0.8453150E-002  0.2293038E+03  0.7818608E-02  0.1127304E+00
         21   -1    0    0  503  502  0.00000000000E+00  0.00000000000E+00  0.63066780203E+03  0.63066780203E+03  0.00000000000E+00 0. -1.
         21   -1    0    0  501  503 -0.00000000000E+00 -0.00000000000E+00 -0.89969263115E+02  0.89969263115E+02  0.00000000000E+00 0. -1.
          6    2    1    2  501    0 -0.14705144050E+03 -0.31770768287E+02  0.37104660276E+03  0.43618324075E+03  0.17305123582E+03 0.  0.
         24    2    3    3    0    0 -0.82226958749E+02 -0.24093881875E+02  0.34721839153E+03  0.36653396458E+03  0.80279187163E+02 0.  0.
         -6    2    1    2    0  502  0.14705144050E+03  0.31770768287E+02  0.16965193616E+03  0.28445382440E+03  0.17175182940E+03 0.  0.
        -24    2    5    5    0    0  0.34044275933E+02  0.65027398963E+02  0.89484836833E+02  0.14188637881E+03  0.82076995124E+02 0.  0.
          5    1    3    3  501    0 -0.64824481752E+02 -0.76768864120E+01  0.23828211230E+02  0.69649276162E+02  0.47000000000E+01 0. -1.
        -11    1    4    4    0    0 -0.10817402703E+02 -0.39636825380E+02  0.86422163572E+02  0.95691611356E+02  0.00000000000E+00 0.  1.
         12    1    4    4    0    0 -0.71409556046E+02  0.15542943505E+02  0.26079622795E+03  0.27084235323E+03  0.00000000000E+00 0. -1.
         -5    1    5    5    0  502  0.11300716457E+03 -0.33256630676E+02  0.80167099325E+02  0.14256744559E+03  0.47000000000E+01 0.  1.
         11    1    6    6    0    0  0.61414282949E+02  0.43249154434E+02  0.59851028869E+02  0.96043475396E+02  0.00000000000E+00 0. -1.
        -12    1    6    6    0    0 -0.27370007016E+02  0.21778244529E+02  0.29633807964E+02  0.45842903412E+02  0.00000000000E+00 0.  1.
</event>
<event>
12    1  0.8453150E-002  0.1867689E+03  0.7818608E-02  0.1161580E+00
         21   -1    0    0  503  502  0.00000000000E+00  0.00000000000E+00  0.41154733889E+03  0.41154733889E+03  0.00000000000E+00 0.  1.
         21   -1    0    0  501  503 -0.00000000000E+00 -0.00000000000E+00 -0.85970605491E+02  0.85970605491E+02  0.00000000000E+00 0. -1.
          6    2    1    2  501    0 -0.49572428013E+02 -0.55139951131E+02  0.19584433120E+03  0.27011275204E+03  0.17061083471E+03 0.  0.
         24    2    3    3    0    0 -0.60580815805E+02 -0.95071225007E+02  0.13036068207E+03  0.19248614875E+03  0.85723024696E+02 0.  0.
         -6    2    1    2    0  502  0.49572428013E+02  0.55139951131E+02  0.12973240220E+03  0.22740519234E+03  0.17141990985E+03 0.  0.
        -24    2    5    5    0    0  0.93822564457E+02  0.39105322097E+02  0.12544705903E+03  0.17991163415E+03  0.79368329105E+02 0.  0.
          5    1    3    3  501    0  0.11008387792E+02  0.39931273875E+02  0.65483649124E+02  0.77626603286E+02  0.47000000000E+01 0. -1.
        -13    1    4    4    0    0 -0.57949975491E+02 -0.45279840416E+02  0.12123512513E+03  0.14179710566E+03  0.00000000000E+00 0.  1.
         14    1    4    4    0    0 -0.26308403139E+01 -0.49791384591E+02  0.91255569416E+01  0.50689043093E+02  0.00000000000E+00 0. -1.
         -5    1    5    5    0  502 -0.44250136444E+02  0.16034629035E+02  0.42853431696E+01  0.47493558192E+02  0.47000000000E+01 0.  1.
         11    1    6    6    0    0  0.43288921005E+02 -0.16293409769E+02  0.79480148626E+02  0.91959229604E+02  0.00000000000E+00 0. -1.
        -12    1    6    6    0    0  0.50533643452E+02  0.55398731866E+02  0.45966910400E+02  0.87952404541E+02  0.00000000000E+00 0.  1.
</event>
<event>
12    1  0.8453150E-002  0.1852423E+03  0.7818608E-02  0.1162868E+00
         21   -1    0    0  501  502  0.00000000000E+00  0.00000000000E+00  0.81583108104E+02  0.81583108104E+02  0.00000000000E+00 0.  1.
         21   -1    0    0  502  503 -0.00000000000E+00 -0.00000000000E+00 -0.50973483804E+03  0.50973483804E+03  0.00000000000E+00 0.  1.
         -6    2    1    2    0  503  0.66848807083E+02  0.13268598566E+02 -0.33809047773E+03  0.38551248879E+03  0.17224949684E+03 0.  0.
        -24    2    3    3    0    0  0.74916676405E+02  0.62707893769E+01 -0.10426014228E+03  0.15139120477E+03  0.79983050781E+02 0.  0.
          6    2    1    2  501    0 -0.66848807083E+02 -0.13268598566E+02 -0.90061252200E+02  0.20580545735E+03  0.17204661697E+03 0.  0.
         24    2    5    5    0    0 -0.61228403437E+00  0.53939065461E+02 -0.52817687488E+02  0.10425093898E+03  0.71894036554E+02 0.  0.
          5    1    5    5  501    0 -0.66236523048E+02 -0.67207664027E+02 -0.37243564712E+02  0.10155451837E+03  0.47000000000E+01 0. -1.
        -13    1    6    6    0    0 -0.34747189700E+02  0.25644887564E+02 -0.14219170398E+02  0.45466605955E+02  0.00000000000E+00 0.  1.
         14    1    6    6    0    0  0.34134905666E+02  0.28294177897E+02 -0.38598517090E+02  0.58784333025E+02  0.00000000000E+00 0. -1.
         -5    1    3    3    0  503 -0.80678693226E+01  0.69978091886E+01 -0.23383033545E+03  0.23412128401E+03  0.47000000000E+01 0.  1.
         13    1    4    4    0    0  0.59978292462E+02 -0.32499928608E+02 -0.65218769388E+02  0.94377586357E+02  0.00000000000E+00 0. -1.
        -14    1    4    4    0    0  0.14938383944E+02  0.38770717985E+02 -0.39041372891E+02  0.57013618418E+02  0.00000000000E+00 0.  1.
</event>
<event>
12    1  0.8453150E-002  0.2114331E+03  0.7818608E-02  0.1140437E+00
         21   -1    0    0  503  502  0.00000000000E+00  0.00000000000E+00  0.10982074358E+04  0.10982074358E+04  0.00000000000E+00 0. -1.
         21   -1    0    0  501  503 -0.00000000000E+00 -0.00000000000E+00 -0.49817120561E+03  0.49817120561E+03  0.00000000000E+00 0. -1.
          6    2    1    2  501    0  0.11113686103E+03  0.51346031973E+02 -0.46486659194E+03  0.51068900057E+03  0.17237891439E+03 0.  0.
         24    2    3    3    0    0  0.81802736096E+02  0.10835237042E+02 -0.13527537243E+03  0.17729122408E+03  0.79521454682E+02 0.  0.
         -6    2    1    2    0  502 -0.11113686103E+03 -0.51346031973E+02  0.10649028222E+04  0.10856896409E+04  0.17238375430E+03 0.  0.
        -24    2    5    5    0    0 -0.73642446569E+02 -0.64674458316E+02  0.10081223410E+04  0.10161943813E+04  0.82063211119E+02 0.  0.
          5    1    3    3  501    0  0.29334124930E+02  0.40510794931E+02 -0.32959121952E+03  0.33339777650E+03  0.47000000000E+01 0. -1.
        -11    1    4    4    0    0  0.87205407685E+02  0.14043855844E+01 -0.72020186898E+02  0.11310907457E+03  0.00000000000E+00 0.  1.
         12    1    4    4    0    0 -0.54026715893E+01  0.94308514576E+01 -0.63255185528E+02  0.64182149510E+02  0.00000000000E+00 0. -1.
         -5    1    5    5    0  502 -0.37494414456E+02  0.13328426343E+02  0.56780481183E+02  0.69495259605E+02  0.47000000000E+01 0.  1.
         11    1    6    6    0    0 -0.27042722941E+02 -0.11157822010E+02  0.67328321471E+03  0.67391846173E+03  0.00000000000E+00 0. -1.
        -12    1    6    6    0    0 -0.46599723628E+02 -0.53516636306E+02  0.33483912629E+03  0.34227591954E+03  0.00000000000E+00 0.  1.
</event>
<event>
12    1  0.8453150E-002  0.1734567E+03  0.7818608E-02  0.1174985E+00
         21   -1    0    0  503  502  0.00000000000E+00  0.00000000000E+00  0.57658442544E+02  0.57658442544E+02  0.00000000000E+00 0. -1.
         21   -1    0    0  501  503 -0.00000000000E+00 -0.00000000000E+00 -0.56855847916E+03  0.56855847916E+03  0.00000000000E+00 0. -1.
          6    2    1    2  501    0  0.22015056472E+02 -0.15452784203E+02 -0.35089359546E+03  0.39023117204E+03  0.16861376290E+03 0.  0.
         24    2    3    3    0    0  0.68193420981E+02 -0.22338967596E+02 -0.15501407247E+03  0.18880937977E+03  0.80437846119E+02 0.  0.
         -6    2    1    2    0  502 -0.22015056472E+02  0.15452784203E+02 -0.16000644115E+03  0.23598574966E+03  0.17135857604E+03 0.  0.
        -24    2    5    5    0    0  0.58449295014E+01 -0.45812984579E+02 -0.44166247775E+02  0.10193085925E+03  0.79411900039E+02 0.  0.
          5    1    3    3  501    0 -0.46178364509E+02  0.68861833928E+01 -0.19587952299E+03  0.20142179226E+03  0.47000000000E+01 0. -1.
        -11    1    4    4    0    0 -0.11948981438E+02  0.53935358959E+01 -0.11985460158E+01  0.13164531873E+02  0.00000000000E+00 0.  1.
         12    1    4    4    0    0  0.80142402420E+02 -0.27732503492E+02 -0.15381552646E+03  0.17564484790E+03  0.00000000000E+00 0. -1.
         -5    1    5    5    0  502 -0.27859985973E+02  0.61265768783E+02 -0.11584019337E+03  0.13405489041E+03  0.47000000000E+01 0.  1.
         13    1    6    6    0    0 -0.21631869526E+02 -0.32857017753E+02 -0.56748512178E+02  0.69050090726E+02  0.00000000000E+00 0. -1.
        -14    1    6    6    0    0  0.27476799027E+02 -0.12955966826E+02  0.12582264403E+02  0.32880768524E+02  0.00000000000E+00 0.  1.
</event>
<event>
12    1  0.8453150E-002  0.2177631E+03  0.7818608E-02  0.1135645E+00
         21   -1    0    0  501  502  0.00000000000E+00  0.00000000000E+00  0.67909950025E+02  0.67909950025E+02  0.00000000000E+00 0.  1.
         21   -1    0    0  502  503 -0.00000000000E+00 -0.00000000000E+00 -0.70504673666E+03  0.70504673666E+03  0.00000000000E+00 0.  1.
         -6    2    1    2    0  503 -0.31313130947E+02  0.13028138320E+03 -0.35983145214E+03  0.42036768805E+03  0.17110396906E+03 0.  0.
        -24    2    3    3    0    0 -0.17373802813E+02  0.22771790052E+02 -0.25635862583E+03  0.27042992339E+03  0.81192333247E+02 0.  0.
          6    2    1    2  501    0  0.31313130947E+02 -0.13028138320E+03 -0.27730533450E+03  0.35258899864E+03  0.17165955389E+03 0.  0.
         24    2    5    5    0    0  0.21480495981E+02 -0.16153073772E+03 -0.24509190853E+03  0.30640461079E+03  0.85206519418E+02 0.  0.
          5    1    5    5  501    0  0.98326349662E+01  0.31249354522E+02 -0.32213425968E+02  0.46184387849E+02  0.47000000000E+01 0. -1.
        -13    1    6    6    0    0  0.97404788306E+01 -0.85936586602E+02 -0.19927431517E+03  0.21723311564E+03  0.00000000000E+00 0.  1.
         14    1    6    6    0    0  0.11740017150E+02 -0.75594151118E+02 -0.45817593359E+02  0.89171495149E+02  0.00000000000E+00 0. -1.
         -5    1    3    3    0  503 -0.13939328134E+02  0.10750959315E+03 -0.10347282631E+03  0.14993776466E+03  0.47000000000E+01 0.  1.
         13    1    4    4    0    0  0.25457687705E+02  0.33365378534E+02 -0.12656722500E+03  0.13334393421E+03  0.00000000000E+00 0. -1.
        -14    1    4    4    0    0 -0.42831490518E+02 -0.10593588483E+02 -0.12979140084E+03  0.13708598918E+03  0.00000000000E+00 0.  1.
</event>
<event>
12    1  0.8453150E-002  0.1743055E+03  0.7818608E-02  0.1173854E+00
         21   -1    0    0  501  502  0.00000000000E+00  0.00000000000E+00  0.45182692269E+02  0.45182692269E+02  0.00000000000E+00 0. -1.
         21   -1    0    0  502  503 -0.00000000000E+00 -0.00000000000E+00 -0.19636112971E+04  0.19636112971E+04  0.00000000000E+00 0. -1.
         -6    2    1    2    0  503 -0.14694330547E+01 -0.75062180147E+01 -0.17772599780E+04  0.17857870597E+04  0.17413756235E+03 0.  0.
        -24    2    3    3    0    0  0.50865514957E+02  0.69162952146E+00 -0.15215067849E+04  0.15245631380E+04  0.81988330071E+02 0.  0.
          6    2    1    2  501    0  0.14694330547E+01  0.75062180147E+01 -0.14116862679E+03  0.22300692964E+03  0.17246740833E+03 0.  0.
         24    2    5    5    0    0 -0.16938230247E+02 -0.26301776399E+02 -0.15936295013E+03  0.18017066047E+03  0.78014293149E+02 0.  0.
          5    1    5    5  501    0  0.18407663302E+02  0.33807994413E+02  0.18194323337E+02  0.42836269167E+02  0.47000000000E+01 0. -1.
        -11    1    6    6    0    0  0.24412984080E+02  0.37430146033E+01 -0.94025857902E+02  0.97215564104E+02  0.00000000000E+00 0.  1.
         12    1    6    6    0    0 -0.41351214327E+02 -0.30044791002E+02 -0.65337092230E+02  0.82955096370E+02  0.00000000000E+00 0. -1.
         -5    1    3    3    0  503 -0.52334948011E+02 -0.81978475361E+01 -0.25575319316E+03  0.26122392176E+03  0.47000000000E+01 0.  1.
         11    1    4    4    0    0  0.72824125262E+02 -0.70524269952E+01 -0.11723557967E+04  0.11746366264E+04  0.00000000000E+00 0. -1.
        -12    1    4    4    0    0 -0.21958610305E+02  0.77440565166E+01 -0.34915098817E+03  0.34992651160E+03  0.00000000000E+00 0.  1.
</event>
<event>
12    1  0.8453150E-002  0.2043790E+03  0.7818608E-02  0.1148588E+00
         21   -1    0    0  503  502  0.00000000000E+00  0.00000000000E+00  0.10110439617E+03  0.10110439617E+03  0.00000000000E+00 0.  1.
         21   -1    0    0  501  503 -0.00000000000E+00 -0.00000000000E+00 -0.41116830706E+03  0.41116830706E+03  0.00000000000E+00 0.  1.
          6    2    1    2  501    0 -0.98608881209E+02  0.28995636431E+02 -0.10087928702E+03  0.22791977018E+03  0.17665314235E+03 0.  0.
         24    2    3    3    0    0 -0.53820362444E+02  0.88801633288E+02 -0.66059968418E+02  0.14535316905E+03  0.77338624494E+02 0.  0.
         -6    2    1    2    0  502  0.98608881209E+02 -0.28995636431E+02 -0.20918462386E+03  0.28435293305E+03  0.16289237334E+03 0.  0.
        -24    2    5    5    0    0  0.82405901274E+02  0.25332583416E+02 -0.77395794032E+02  0.14081033416E+03  0.80031049749E+02 0.  0.
          5    1    3    3  501    0 -0.44788518766E+02 -0.59805996858E+02 -0.34819318607E+02  0.82566601127E+02  0.47000000000E+01 0. -1.
        -11    1    4    4    0    0 -0.79996110913E+01 -0.30354766038E+01  0.13163570223E+02  0.15699919644E+02  0.00000000000E+00 0.  1.
         12    1    4    4    0    0 -0.45820751353E+02  0.91837109892E+02 -0.79223538641E+02  0.12965324941E+03  0.00000000000E+00 0. -1.
         -5    1    5    5    0  502  0.16202979935E+02 -0.54328219847E+02 -0.13178882983E+03  0.14354259890E+03  0.47000000000E+01 0.  1.
         13    1    6    6    0    0  0.56595464500E+02 -0.22361244102E+02 -0.55386107229E+02  0.82284219105E+02  0.00000000000E+00 0. -1.
        -14    1    6    6    0    0  0.25810436775E+02  0.47693827518E+02 -0.22009686803E+02  0.58526115051E+02  0.00000000000E+00 0.  1.
</event>
<event>
12    1  0.8453150E-002  0.1805937E+03  0.7818608E-02  0.1167279E+00
         21   -1    0    0  501  502  0.00000000000E+00  0.00000000000E+00  0.56862684218E+03  0.56862684218E+03  0.00000000000E+00 0.  1.
         21   -1    0    0  502  503 -0.00000000000E+00 -0.00000000000E+00 -0.58748618923E+02  0.58748618923E+02  0.00000000000E+00 0.  1.
         -6    2    1    2    0  503  0.20550692185E+02  0.48803904932E+02  0.20538887395E+03  0.27335871816E+03  0.17244201102E+03 0.  0.
        -24    2    3    3    0    0 -0.49221829633E+02  0.25906966383E+02  0.69385443692E+02  0.11872528827E+03  0.78659995292E+02 0.  0.
          6    2    1    2  501    0 -0.20550692185E+02 -0.48803904932E+02  0.30448934931E+03  0.35401674295E+03  0.17265554830E+03 0.  0.
         24    2    5    5    0    0  0.29179132359E+00 -0.56842542198E+02  0.31342544850E+03  0.32950199888E+03  0.84290543682E+02 0.  0.
          5    1    5    5  501    0 -0.20842483508E+02  0.80386372667E+01 -0.89360991908E+01  0.24514744067E+02  0.47000000000E+01 0. -1.
        -13    1    6    6    0    0  0.24452315582E+02 -0.14209056081E+02  0.27636556045E+02  0.39542284230E+02  0.00000000000E+00 0.  1.
         14    1    6    6    0    0 -0.24160524259E+02 -0.42633486118E+02  0.28578889246E+03  0.28995971465E+03  0.00000000000E+00 0. -1.
         -5    1    3    3    0  503  0.69772521818E+02  0.22896938549E+02  0.13600343026E+03  0.15463342988E+03  0.47000000000E+01 0.  1.
         13    1    4    4    0    0 -0.11715335221E+02 -0.24849673409E+02  0.41404085499E+02  0.49689572788E+02  0.00000000000E+00 0. -1.
        -14    1    4    4    0    0 -0.37506494412E+02  0.50756639792E+02  0.27981358194E+02  0.69035715484E+02  0.00000000000E+00 0.  1.
</event>
<event>
12    1  0.8453150E-002  0.2767814E+03  0.7818608E-02  0.1097483E+00
         21   -1    0    0  503  502  0.00000000000E+00  0.00000000000E+00  0.21650631637E+03  0.21650631637E+03  0.00000000000E+00 0.  1.
         21   -1    0    0  501  503 -0.00000000000E+00 -0.00000000000E+00 -0.11001938207E+04  0.11001938207E+04  0.00000000000E+00 0. -1.
          6    2    1    2  501    0  0.24263840448E+02  0.21494951214E+03 -0.98420870991E+03  0.10223867790E+04  0.17267285377E+03 0.  0.
         24    2    3    3    0    0  0.42566000321E+02  0.60013829584E+02 -0.55910697580E+03  0.56953624168E+03  0.79733280818E+02 0.  0.
         -6    2    1    2    0  502 -0.24263840448E+02 -0.21494951214E+03  0.10052120561E+03  0.29431335807E+03  0.17240595478E+03 0.  0.
        -24    2    5    5    0    0  0.20153333405E+02 -0.84827431608E+02 -0.91064095218E+01  0.11840160414E+03  0.79587456091E+02 0.  0.
          5    1    3    3  501    0 -0.18302159874E+02  0.15493568255E+03 -0.42510173411E+03  0.45285053730E+03  0.47000000000E+01 0. -1.
        -11    1    4    4    0    0  0.35798155136E+02 -0.43874793672E+01 -0.10941909059E+03  0.11520978809E+03  0.00000000000E+00 0.  1.
         12    1    4    4    0    0  0.67678451853E+01  0.64401308951E+02 -0.44968788521E+03  0.45432645359E+03  0.00000000000E+00 0. -1.
         -5    1    5    5    0  502 -0.44417173853E+02 -0.13012208053E+03  0.10962761513E+03  0.17591175394E+03  0.47000000000E+01 0.  1.
         13    1    6    6    0    0 -0.29252332604E+02 -0.19805624088E+02 -0.10069112745E+02  0.36733482543E+02  0.00000000000E+00 0. -1.
        -14    1    6    6    0    0  0.49405666009E+02 -0.65021807520E+02  0.96270322296E+00  0.81668121593E+02  0.00000000000E+00 0.  1.
</event>
<event>
12    1  0.8453150E-002  0.2447124E+03  0.7818608E-02  0.1117256E+00
         21   -1    0    0  503  502  0.00000000000E+00  0.00000000000E+00  0.67501093067E+03  0.67501093067E+03  0.00000000000E+00 0.  1.
         21   -1    0    0  501  503 -0.00000000000E+00 -0.00000000000E+00 -0.87790274668E+02  0.87790274668E+02  0.00000000000E+00 0. -1.
          6    2    1    2  501    0  0.97059267979E+02  0.13871806487E+03  0.27270510636E+03  0.36640448264E+03  0.17669455806E+03 0.  0.
         24    2    3    3    0    0  0.41685835987E+02 -0.41861122124E+01  0.11845454161E+03  0.14891161490E+03  0.79924703095E+02 0.  0.
         -6    2    1    2    0  502 -0.97059267979E+02 -0.13871806487E+03  0.31451554964E+03  0.39639672269E+03  0.17189277987E+03 0.  0.
        -24    2    5    5    0    0  0.33320592846E+01 -0.64691265995E+02  0.78870097018E+02  0.12973353647E+03  0.80088924124E+02 0.  0.
          5    1    3    3  501    0  0.55373431992E+02  0.14290417708E+03  0.15425056474E+03  0.21749286775E+03  0.47000000000E+01 0. -1.
        -13    1    4    4    0    0  0.27943920825E+01 -0.83306121780E+01  0.10809460267E+03  0.10845114500E+03  0.00000000000E+00 0.  1.
         14    1    4    4    0    0  0.38891443905E+02  0.41444999656E+01  0.10359938943E+02  0.40460469892E+02  0.00000000000E+00 0. -1.
         -5    1    5    5    0  502 -0.10039132726E+03 -0.74026798873E+02  0.23564545263E+03  0.26666318622E+03  0.47000000000E+01 0.  1.
         11    1    6    6    0    0  0.25288300448E+02 -0.74592100334E+02  0.63386739278E+02  0.10110073337E+03  0.00000000000E+00 0. -1.
        -12    1    6    6    0    0 -0.21956241163E+02  0.99008343394E+01  0.15483357739E+02  0.28632803103E+02  0.00000000000E+00 0.  1.
</event>
<event>
12    1  0.8453150E-002  0.2090065E+03  0.7818608E-02  0.1142485E+00
         21   -1    0    0  501  502  0.00000000000E+00  0.00000000000E+00  0.67608928944E+02  0.67608928944E+02  0.00000000000E+00 0. -1.
         21   -1    0    0  502  503 -0.00000000000E+00 -0.00000000000E+00 -0.64413037253E+03  0.64413037253E+03  0.00000000000E+00 0.  1.
         -6    2    1    2    0  503 -0.60667438335E+02 -0.99481631579E+02 -0.29025600221E+03  0.35767617476E+03  0.17351243782E+03 0.  0.
        -24    2    3    3    0    0 -0.34660330469E+02 -0.10984315771E+03 -0.12493559465E+03  0.18993632250E+03  0.84853084736E+02 0.  0.
          6    2    1    2  501    0  0.60667438335E+02  0.99481631579E+02 -0.28626544137E+03  0.35406312671E+03  0.17273002540E+03 0.  0.
         24    2    5    5    0    0  0.72922919097E+02  0.45494182182E+02 -0.27755010986E+03  0.29782356319E+03  0.65401365181E+02 0.  0.
          5    1    5    5  501    0 -0.12255480763E+02  0.53987449397E+02 -0.87153315129E+01  0.56239563516E+02  0.47000000000E+01 0. -1.
        -11    1    6    6    0    0  0.42783288477E+02  0.30086911007E+02 -0.69204509726E+02  0.86746159300E+02  0.00000000000E+00 0.  1.
         12    1    6    6    0    0  0.30139630620E+02  0.15407271175E+02 -0.20834560014E+03  0.21107740389E+03  0.00000000000E+00 0. -1.
         -5    1    3    3    0  503 -0.26007107865E+02  0.10361526128E+02 -0.16532040756E+03  0.16773985226E+03  0.47000000000E+01 0.  1.
         13    1    4    4    0    0  0.10467246698E+02 -0.89845071168E+02 -0.99281718715E+02  0.13430770543E+03  0.00000000000E+00 0. -1.
        -14    1    4    4    0    0 -0.45127577167E+02 -0.19998086538E+02 -0.25653875936E+02  0.55628617066E+02  0.00000000000E+00 0.  1.
</event>
<event>
12    1  0.8453150E-002  0.1912563E+03  0.7818608E-02  0.1157477E+00
         21   -1    0    0  501  502  0.00000000000E+00  0.00000000000E+00  0.24343058430E+03  0.24343058430E+03  0.00000000000E+00 0. -1.
         21   -1    0    0  502  503 -0.00000000000E+00 -0.00000000000E+00 -0.14976661364E+03  0.14976661364E+03  0.00000000000E+00 0. -1.
         -6    2    1    2    0  503  0.78322746050E+02 -0.19087535774E+02  0.45622850176E+02  0.19662250944E+03  0.17343638658E+03 0.  0.
        -24    2    3    3    0    0  0.73488442339E+02 -0.25814910454E+02  0.99037793114E+02  0.14236502893E+03  0.66274853746E+02 0.  0.
          6    2    1    2  501    0 -0.78322746050E+02  0.19087535774E+02  0.48041120478E+02  0.19657468850E+03  0.17272774048E+03 0.  0.
         24    2    5    5    0    0 -0.30146869003E+02  0.64456004958E+02  0.68835367575E+02  0.12704984519E+03  0.79623771871E+02 0.  0.
          5    1    5    5  501    0 -0.48175877047E+02 -0.45368469184E+02 -0.20794247097E+02  0.69524843312E+02  0.47000000000E+01 0. -1.
        -11    1    6    6    0    0 -0.19905835471E+02  0.34357225051E+02  0.83179123036E+02  0.92170644502E+02  0.00000000000E+00 0.  1.
         12    1    6    6    0    0 -0.10241033532E+02  0.30098779906E+02 -0.14343755461E+02  0.34879200684E+02  0.00000000000E+00 0. -1.
         -5    1    3    3    0  503  0.48343037109E+01  0.67273746794E+01 -0.53414942937E+02  0.54257480511E+02  0.47000000000E+01 0.  1.
         11    1    4    4    0    0  0.24410892825E+02 -0.24056529491E+02  0.28807808395E+01  0.34393417945E+02  0.00000000000E+00 0. -1.
        -12    1    4    4    0    0  0.49077549514E+02 -0.17583809625E+01  0.96157012274E+02  0.10797161099E+03  0.00000000000E+00 0.  1.
</event>
<event>
12    1  0.8453150E-002  0.2379901E+03  0.7818608E-02  0.1122330E+00
         21   -1    0    0  503  502  0.00000000000E+00  0.00000000000E+00  0.91049432733E+02  0.91049432733E+02  0.00000000000E+00 0. -1.
         21   -1    0    0  501  503 -0.00000000000E+00 -0.00000000000E+00 -0.60638240992E+03  0.60638240992E+03  0.00000000000E+00 0.  1.
          6    2    1    2  501    0 -0.14759441687E+03  0.53676801400E+02 -0.27568513759E+03  0.35968876023E+03  0.16943552828E+03 0.  0.
         24    2    3    3    0    0 -0.56318125108E+02  0.32977996514E+02 -0.23718466937E+03  0.25837648054E+03  0.79009865488E+02 0.  0.
         -6    2    1    2    0  502  0.14759441687E+03 -0.53676801400E+02 -0.23964783960E+03  0.33774308243E+03  0.17881272831E+03 0.  0.
        -24    2    5    5    0    0  0.89499525602E+02 -0.94686031148E+02 -0.10447738299E+03  0.18493629051E+03  0.79437386759E+02 0.  0.
          5    1    3    3  501    0 -0.91276291760E+02  0.20698804885E+02 -0.38500468224E+02  0.10131227968E+03  0.47000000000E+01 0. -1.
        -13    1    4    4    0    0 -0.61672106989E+02 -0.61478021094E+01 -0.12670461369E+03  0.14105071210E+03  0.00000000000E+00 0.  1.
         14    1    4    4    0    0  0.53539818809E+01  0.39125798624E+02 -0.11048005567E+03  0.11732576845E+03  0.00000000000E+00 0. -1.
         -5    1    5    5    0  502  0.58094891266E+02  0.41009229748E+02 -0.13517045661E+03  0.15280679192E+03  0.47000000000E+01 0.  1.
         11    1    6    6    0    0  0.53842111965E+02 -0.33740684776E+02 -0.60874593982E+01  0.63831528196E+02  0.00000000000E+00 0. -1.
        -12    1    6    6    0    0  0.35657413637E+02 -0.60945346372E+02 -0.98389923589E+02  0.12110476232E+03  0.00000000000E+00 0.  1.
</event>
<event>
12    1  0.8453150E-002  0.2372767E+03  0.7818608E-02  0.1121738E+00
         21   -1    0    0  503  502  0.00000000000E+00  0.00000000000E+00  0.53306754008E+03  0.53306754008E+03  0.00000000000E+00 0.  1.
         21   -1    0    0  501  503 -0.00000000000E+00 -0.00000000000E+00 -0.26726998230E+03  0.26726998230E+03  0.00000000000E+00 0. -1.
          6    2    1    2  501    0  0.29498729084E+02 -0.16082352354E+03 -0.17853800213E+03  0.29694449125E+03  0.17194717775E+03 0.  0.
         24    2    3    3    0    0 -0.32161762763E+02 -0.11637238463E+03 -0.60648981644E+02  0.15659552917E+03  0.79164069461E+02 0.  0.
         -6    2    1    2    0  502 -0.29498729084E+02  0.16082352354E+03  0.44433555991E+03  0.50339303114E+03  0.17098559372E+03 0.  0.
        -24    2    5    5    0    0  0.41476547266E+02  0.97673375692E+02  0.19305211808E+03  0.23470940833E+03  0.80987614943E+02 0.  0.
          5    1    3    3  501    0  0.61660491847E+02 -0.44451138915E+02 -0.11788902048E+03  0.14034896208E+03  0.47000000000E+01 0. -1.
        -13    1    4    4    0    0  0.44327895589E+01 -0.99149367604E+02 -0.24214441177E+02  0.10215960983E+03  0.00000000000E+00 0.  1.
         14    1    4    4    0    0 -0.36594552322E+02 -0.17223017022E+02 -0.36434540467E+02  0.54435919337E+02  0.00000000000E+00 0. -1.
         -5    1    5    5    0  502 -0.70975276349E+02  0.63150147849E+02  0.25128344183E+03  0.26868362281E+03  0.47000000000E+01 0.  1.
         13    1    6    6    0    0  0.37273240529E+01  0.94014450148E+02  0.12090637123E+03  0.15320235111E+03  0.00000000000E+00 0. -1.
        -14    1    6    6    0    0  0.37749223213E+02  0.36589255436E+01  0.72145746849E+02  0.81507057227E+02  0.00000000000E+00 0.  1.
</event>
<event>
12    1  0.8453150E-002  0.1989964E+03  0.7818608E-02  0.1151192E+00
         21   -1    0    0  501  502  0.00000000000E+00  0.00000000000E+00  0.43231168418E+02  0.43231168418E+02  0.00000000000E+00 0.  1.
         21   -1    0    0  502  503 -0.00000000000E+00 -0.00000000000E+00 -0.15391047189E+04  0.15391047189E+04  0.00000000000E+00 0.  1.
         -6    2    1    2    0  503 -0.75222632397E+02  0.62202444189E+02 -0.12534007614E+04  0.12686598815E+04  0.17016708795E+03 0.  0.
        -24    2    3    3    0    0 -0.61551530546E+02  0.60478438882E+02 -0.12471747007E+04  0.12528255816E+04  0.81737209842E+02 0.  0.
          6    2    1    2  501    0  0.75222632397E+02 -0.62202444189E+02 -0.24247278915E+03  0.31367600587E+03  0.17341278698E+03 0.  0.
         24    2    5    5    0    0  0.23626615708E+00 -0.12568626228E+02 -0.37758533710E+02  0.90032344231E+02  0.80759457359E+02 0.  0.
          5    1    5    5  501    0  0.74986366240E+02 -0.49633817961E+02 -0.20471425544E+03  0.22364366163E+03  0.47000000000E+01 0. -1.
        -13    1    6    6    0    0  0.39931645290E+02 -0.42946935313E+01 -0.11696129567E+02  0.41830373354E+02  0.00000000000E+00 0.  1.
         14    1    6    6    0    0 -0.39695379133E+02 -0.82739326969E+01 -0.26062404143E+02  0.48201970877E+02  0.00000000000E+00 0. -1.
         -5    1    3    3    0  503 -0.13671101850E+02  0.17240053067E+01 -0.62260606606E+01  0.15834299841E+02  0.47000000000E+01 0.  1.
         13    1    4    4    0    0 -0.55783849114E+02  0.89193122373E+01 -0.38859740499E+03  0.39268223174E+03  0.00000000000E+00 0. -1.
        -14    1    4    4    0    0 -0.57676814320E+01  0.51559126645E+02 -0.85857729570E+03  0.86014334990E+03  0.00000000000E+00 0.  1.
</event>
<event>
12    1  0.8453150E-002  0.2240245E+03  0.7818608E-02  0.1130937E+00
         21   -1    0    0  501  502  0.00000000000E+00  0.00000000000E+00  0.58925405532E+02  0.58925405532E+02  0.00000000000E+00 0. -1.
         21   -1    0    0  502  503 -0.00000000000E+00 -0.00000000000E+00 -0.20416385340E+04  0.20416385340E+04  0.00000000000E+00 0. -1.
         -6    2    1    2    0  503  0.14317685695E+03 -0.11296723550E+02 -0.17934078516E+04  0.18073457652E+04  0.17192953329E+03 0.  0.
        -24    2    3    3    0    0  0.25340532606E+02 -0.50856630641E+02 -0.67832549229E+03  0.68534703808E+03  0.79665234811E+02 0.  0.
          6    2    1    2  501    0 -0.14317685695E+03  0.11296723550E+02 -0.18930527682E+03  0.29321817431E+03  0.17179400915E+03 0.  0.
         24    2    5    5    0    0 -0.10070056965E+03  0.69895468882E+01 -0.20964024227E+03  0.24569567886E+03  0.78916898950E+02 0.  0.
          5    1    5    5  501    0 -0.42476287296E+02  0.43071766616E+01  0.20334965446E+02  0.47522495441E+02  0.47000000000E+01 0. -1.
        -11    1    6    6    0    0  0.19038961735E+01 -0.21502773210E+02 -0.38121172429E+02  0.43808878824E+02  0.00000000000E+00 0.  1.
         12    1    6    6    0    0 -0.10260446583E+03  0.28492320099E+02 -0.17151906984E+03  0.20188680004E+03  0.00000000000E+00 0. -1.
         -5    1    3    3    0  503  0.11783632434E+03  0.39559907091E+02 -0.11150823594E+04  0.11219987271E+04  0.47000000000E+01 0.  1.
         13    1    4    4    0    0  0.34521921401E+02 -0.39761081428E+01 -0.48361902363E+03  0.48486589126E+03  0.00000000000E+00 0. -1.
        -14    1    4    4    0    0 -0.91813887946E+01 -0.46880522498E+02 -0.19470646866E+03  0.20048114681E+03  0.00000000000E+00 0.  1.
</event>
<event>
12    1  0.8453150E-002  0.3129468E+03  0.7818608E-02  0.1079158E+00
         21   -1    0    0  503  502  0.00000000000E+00  0.00000000000E+00  0.32709047273E+03  0.32709047273E+03  0.00000000000E+00 0.  1.
         21   -1    0    0  501  503 -0.00000000000E+00 -0.00000000000E+00 -0.29888726410E+03  0.29888726410E+03  0.00000000000E+00 0.  1.
          6    2    1    2  501    0 -0.16183582084E+03  0.20492143104E+03  0.33989095840E+02  0.31297743678E+03  0.16916261848E+03 0.  0.
         24    2    3    3    0    0 -0.18140997758E+03  0.18683728420E+03  0.56703993884E+02  0.27764698855E+03  0.77812316470E+02 0.  0.
         -6    2    1    2    0  502  0.16183582084E+03 -0.20492143104E+03 -0.57858872045E+01  0.31300030004E+03  0.17248792865E+03 0.  0.
        -24    2    5    5    0    0  0.25460877286E+02 -0.49842199766E+02  0.34043686700E+02  0.10262877593E+03  0.79001214512E+02 0.  0.
          5    1    3    3  501    0  0.19574156743E+02  0.18084146843E+02 -0.22714898044E+02  0.35330448234E+02  0.47000000000E+01 0. -1.
        -11    1    4    4    0    0 -0.17145314803E+03  0.16321326989E+03  0.26754759098E+02  0.23822378255E+03  0.00000000000E+00 0.  1.
         12    1    4    4    0    0 -0.99568295469E+01  0.23624014308E+02  0.29949234786E+02  0.39423205995E+02  0.00000000000E+00 0. -1.
         -5    1    5    5    0  502  0.13637494355E+03 -0.15507923128E+03 -0.39829573905E+02  0.21037152412E+03  0.47000000000E+01 0.  1.
         11    1    6    6    0    0  0.48995382143E+02 -0.11911207064E+02  0.27732922766E+02  0.57545975795E+02  0.00000000000E+00 0. -1.
        -12    1    6    6    0    0 -0.23534504857E+02 -0.37930992702E+02  0.63107639338E+01  0.45082800131E+02  0.00000000000E+00 0.  1.
</event>
<event>
12    1  0.8453150E-002  0.1785337E+03  0.7818608E-02  0.1169337E+00
         21   -1    0    0  503  502  0.00000000000E+00  0.00000000000E+00  0.18193748029E+03  0.18193748029E+03  0.00000000000E+00 0.  1.
         21   -1    0    0  501  503 -0.00000000000E+00 -0.00000000000E+00 -0.29507337239E+03  0.29507337239E+03  0.00000000000E+00 0.  1.
          6    2    1    2  501    0  0.41422585551E+02  0.19965202632E+02 -0.20890430873E+03  0.27480048760E+03  0.17251045726E+03 0.  0.
         24    2    3    3    0    0  0.55966073482E+02  0.78328028263E+01 -0.40909922900E+02  0.10567653353E+03  0.79374767822E+02 0.  0.
         -6    2    1    2    0  502 -0.41422585551E+02 -0.19965202632E+02  0.95768416636E+02  0.20221036508E+03  0.17205523012E+03 0.  0.
        -24    2    5    5    0    0  0.80583316478E+01 -0.58118787819E+02  0.14011674128E+02  0.99203995494E+02  0.78755161758E+02 0.  0.
          5    1    3    3  501    0 -0.14543487931E+02  0.12132399805E+02 -0.16799438583E+03  0.16912395406E+03  0.47000000000E+01 0. -1.
        -11    1    4    4    0    0 -0.12596366111E+02  0.19013981649E+02 -0.26074048020E+02  0.34641823241E+02  0.00000000000E+00 0.  1.
         12    1    4    4    0    0  0.68562439593E+02 -0.11181178823E+02 -0.14835874880E+02  0.71034710292E+02  0.00000000000E+00 0. -1.
         -5    1    5    5    0  502 -0.49480917199E+02  0.38153585187E+02  0.81756742508E+02  0.10300636958E+03  0.47000000000E+01 0.  1.
         13    1    6    6    0    0  0.18616713699E+02 -0.61651331508E+01 -0.26155049442E+02  0.32690633323E+02  0.00000000000E+00 0. -1.
        -14    1    6    6    0    0 -0.10558382051E+02 -0.51953654668E+02  0.40166723570E+02  0.66513362171E+02  0.00000000000E+00 0.  1.
</event>
<event>
12    1  0.8453150E-002  0.1741844E+03  0.7818608E-02  0.1173783E+00
         21   -1    0    0  501  502  0.00000000000E+00  0.00000000000E+00  0.45995713529E+03  0.45995713529E+03  0.00000000000E+00 0.  1.
         21   -1    0    0  502  503 -0.00000000000E+00 -0.00000000000E+00 -0.20317629219E+03  0.20317629219E+03  0.00000000000E+00 0.  1.
         -6    2    1    2    0  503  0.10160239971E+02  0.27922347802E+02 -0.14431990987E+03  0.22620440918E+03  0.17163132105E+03 0.  0.
        -24    2    3    3    0    0 -0.39499566239E+02  0.67133476634E+02 -0.83929921617E+02  0.13861074698E+03  0.78112662336E+02 0.  0.
          6    2    1    2  501    0 -0.10160239971E+02 -0.27922347802E+02  0.40110075298E+03  0.43692901830E+03  0.17071105707E+03 0.  0.
         24    2    5    5    0    0  0.22644579361E+02 -0.45404208779E+02  0.38406619434E+03  0.39577032757E+03  0.80950549093E+02 0.  0.
          5    1    5    5  501    0 -0.32804819332E+02  0.17481860977E+02  0.17034558639E+02  0.41158690731E+02  0.47000000000E+01 0. -1.
        -13    1    6    6    0    0  0.45968132142E+02 -0.30469776272E+02  0.33428543187E+03  0.33880411213E+03  0.00000000000E+00 0.  1.
         14    1    6    6    0    0 -0.23323552781E+02 -0.14934432507E+02  0.49780762472E+02  0.56966215435E+02  0.00000000000E+00 0. -1.
         -5    1    3    3    0  503  0.49659806210E+02 -0.39211128832E+02 -0.60389988253E+02  0.87593662204E+02  0.47000000000E+01 0.  1.
         13    1    4    4    0    0 -0.43570080811E+01  0.64508410925E+02 -0.80432127380E+02  0.10319712067E+03  0.00000000000E+00 0. -1.
        -14    1    4    4    0    0 -0.35142558158E+02  0.26250657095E+01 -0.34977942365E+01  0.35413626309E+02  0.00000000000E+00 0.  1.
</event>
<event>
12    1  0.8453150E-002  0.1817561E+03  0.7818608E-02  0.1166687E+00
         21   -1    0    0  503  502  0.00000000000E+00  0.00000000000E+00  0.18561206589E+03  0.18561206589E+03  0.00000000000E+00 0.  1.
         21   -1    0    0  501  503 -0.00000000000E+00 -0.00000000000E+00 -0.32189132947E+03  0.32189132947E+03  0.00000000000E+00 0.  1.
          6    2    1    2  501    0 -0.30789508871E+02  0.48884118599E+02 -0.23892522400E+03  0.29876554260E+03  0.16981736034E+03 0.  0.
         24    2    3    3    0    0  0.41882354471E+02  0.85250785669E+01 -0.16594482287E+03  0.18804842205E+03  0.77444923759E+02 0.  0.
         -6    2    1    2    0  502  0.30789508871E+02 -0.48884118599E+02  0.10264596041E+03  0.20873785277E+03  0.17233005275E+03 0.  0.
        -24    2    5    5    0    0 -0.33933206148E+02 -0.37361841190E+02  0.10657826502E+03  0.14271251115E+03  0.80377637480E+02 0.  0.
          5    1    3    3  501    0 -0.72671863342E+02  0.40359040032E+02 -0.72980401127E+02  0.11071712055E+03  0.47000000000E+01 0. -1.
        -11    1    4    4    0    0  0.38655623487E+02  0.31297829354E+02 -0.52593218810E+02  0.72386863547E+02  0.00000000000E+00 0.  1.
         12    1    4    4    0    0  0.32267309839E+01 -0.22772750787E+02 -0.11335160406E+03  0.11566155850E+03  0.00000000000E+00 0. -1.
         -5    1    5    5    0  502  0.64722715019E+02 -0.11522277409E+02 -0.39323046085E+01  0.66025341617E+02  0.47000000000E+01 0.  1.
         11    1    6    6    0    0  0.71488948363E+01 -0.32179750934E+02  0.54191976486E+01  0.33406747383E+02  0.00000000000E+00 0. -1.
        -12    1    6    6    0    0 -0.41082100984E+02 -0.51820902557E+01  0.10115906737E+03  0.10930576377E+03  0.00000000000E+00 0.  1.
</event>
<event>
12    1  0.8453150E-002  0.2048109E+03  0.7818608E-02  0.1146293E+00
         21   -1    0    0  503  502  0.00000000000E+00  0.00000000000E+00  0.16836640178E+03  0.16836640178E+03  0.00000000000E+00 0. -1.
         21   -1    0    0  501  503 -0.00000000000E+00 -0.00000000000E+00 -0.24762121309E+03  0.24762121309E+03  0.00000000000E+00 0. -1.
          6    2    1    2  501    0 -0.71235238803E+02 -0.80380319953E+02 -0.57199287049E+02  0.21264818451E+03  0.17439047237E+03 0.  0.
         24    2    3    3    0    0 -0.50441352984E+02 -0.66287351546E+02  0.31563545448E+02  0.12027974900E+03  0.80824609817E+02 0.  0.
         -6    2    1    2    0  502  0.71235238803E+02  0.80380319953E+02 -0.22055524260E+02  0.20333943036E+03  0.17124550419E+03 0.  0.
        -24    2    5    5    0    0  0.67979012647E+01 -0.95002946198E+01 -0.44619973582E+02  0.90370674863E+02  0.77713896912E+02 0.  0.
          5    1    3    3  501    0 -0.20793885819E+02 -0.14092968407E+02 -0.88762832498E+02  0.92368435512E+02  0.47000000000E+01 0. -1.
        -11    1    4    4    0    0 -0.11575402803E+02 -0.63376682218E+02 -0.77878885691E+01  0.64894106106E+02  0.00000000000E+00 0.  1.
         12    1    4    4    0    0 -0.38865950181E+02 -0.29106693282E+01  0.39351434017E+02  0.55385642892E+02  0.00000000000E+00 0. -1.
         -5    1    5    5    0  502  0.64437337539E+02  0.89880614573E+02  0.22564449322E+02  0.11296875550E+03  0.47000000000E+01 0.  1.
         11    1    6    6    0    0  0.31401899880E+02 -0.41619267810E+00  0.72645477181E+01  0.32233929112E+02  0.00000000000E+00 0. -1.
        -12    1    6    6    0    0 -0.24603998616E+02 -0.90841019417E+01 -0.51884521300E+02  0.58136745751E+02  0.00000000000E+00 0.  1.
</event>
<event>
12    1  0.8453150E-002  0.2385551E+03  0.7818608E-02  0.1120935E+00
         21   -1    0    0  501  502  0.00000000000E+00  0.00000000000E+00  0.61828363615E+02  0.61828363615E+02  0.00000000000E+00 0. -1.
         21   -1    0    0  502  503 -0.00000000000E+00 -0.00000000000E+00 -0.10122104966E+04  0.10122104966E+04  0.00000000000E+00 0. -1.
         -6    2    1    2    0  503  0.98762029337E+02 -0.13234438925E+03 -0.63946127853E+03  0.68214559015E+03  0.17071292750E+03 0.  0.
        -24    2    3    3    0    0  0.10089402713E+03 -0.10534937349E+03 -0.31556167529E+03  0.35708202826E+03  0.81549425434E+02 0.  0.
          6    2    1    2  501    0 -0.98762029337E+02  0.13234438925E+03 -0.31092085444E+03  0.39189327005E+03  0.17216149855E+03 0.  0.
         24    2    5    5    0    0  0.13709661707E+02  0.79900650315E+02 -0.12117453332E+03  0.16512029234E+03  0.77520156564E+02 0.  0.
          5    1    5    5  501    0 -0.11247169104E+03  0.52443738931E+02 -0.18974632112E+03  0.22677297770E+03  0.47000000000E+01 0. -1.
        -13    1    6    6    0    0  0.14985306800E+02 -0.36718962979E+01  0.27218995218E+01  0.15666875225E+02  0.00000000000E+00 0.  1.
         14    1    6    6    0    0 -0.12756450935E+01  0.83572546613E+02 -0.12389643284E+03  0.14945341712E+03  0.00000000000E+00 0. -1.
         -5    1    3    3    0  503 -0.21319977893E+01 -0.26995015759E+02 -0.32389960324E+03  0.32506356189E+03  0.47000000000E+01 0.  1.
         13    1    4    4    0    0  0.17612042791E+02 -0.65364439486E+02 -0.84745384159E+02  0.10846416061E+03  0.00000000000E+00 0. -1.
        -14    1    4    4    0    0  0.83281984336E+02 -0.39984934001E+02 -0.23081629113E+03  0.24861786765E+03  0.00000000000E+00 0.  1.
</event>
<event>
12    1  0.8453150E-002  0.2284315E+03  0.7818608E-02  0.1127785E+00
         21   -1    0    0  501  502  0.00000000000E+00  0.00000000000E+00  0.75660659051E+03  0.75660659051E+03  0.00000000000E+00 0.  1.
         21   -1    0    0  502  503 -0.00000000000E+00 -0.00000000000E+00 -0.91434284923E+02  0.91434284923E+02  0.00000000000E+00 0.  1.
         -6    2    1    2    0  503  0.10803413623E+03 -0.10536033212E+03  0.12200165865E+03  0.25879107948E+03  0.17121987014E+03 0.  0.
        -24    2    3    3    0    0  0.65275032964E+02  0.11124866071E+02  0.42754002740E+02  0.11148383839E+03  0.78842557663E+02 0.  0.
          6    2    1    2  501    0 -0.10803413623E+03  0.10536033212E+03  0.54317064693E+03  0.58924979595E+03  0.17148993019E+03 0.  0.
         24    2    5    5    0    0 -0.11858230021E+03  0.40884855659E+02  0.27255291757E+03  0.31081776425E+03  0.81174234539E+02 0.  0.
          5    1    5    5  501    0  0.10548163978E+02  0.64475476465E+02  0.27061772936E+03  0.27843203169E+03  0.47000000000E+01 0. -1.
        -13    1    6    6    0    0 -0.10065230796E+03  0.56195724573E+02  0.25930181782E+03  0.28377152656E+03  0.00000000000E+00 0.  1.
         14    1    6    6    0    0 -0.17929992248E+02 -0.15310868915E+02  0.13251099749E+02  0.27046237696E+02  0.00000000000E+00 0. -1.
         -5    1    3    3    0  503  0.42759103266E+02 -0.11648519819E+03  0.79247655911E+02  0.14730724109E+03  0.47000000000E+01 0.  1.
         11    1    4    4    0    0 -0.17971094812E+02 -0.31057168481E+01  0.45828367007E+01  0.18804470695E+02  0.00000000000E+00 0. -1.
        -12    1    4    4    0    0  0.83246127776E+02  0.14230582919E+02  0.38171166040E+02  0.92679367697E+02  0.00000000000E+00 0.  1.
</event>
<event>
12    1  0.8453150E-002  0.2054473E+03  0.7818608E-02  0.1145642E+00
         21   -1    0    0  503  502  0.00000000000E+00  0.00000000000E+00  0.35840578182E+03  0.35840578182E+03  0.00000000000E+00 0.  1.
         21   -1    0    0  501  503 -0.00000000000E+00 -0.00000000000E+00 -0.17738734823E+03  0.17738734823E+03  0.00000000000E+00 0.  1.
          6    2    1    2  501    0 -0.11110282296E+03 -0.26017726038E+02  0.24703771323E+03  0.31999894232E+03  0.16837734999E+03 0.  0.
         24    2    3    3    0    0 -0.59098731888E+02 -0.40898130011E+02  0.24321833974E+03  0.26556981846E+03  0.78783567712E+02 0.  0.
         -6    2    1    2    0  502  0.11110282296E+03  0.26017726038E+02 -0.66019279639E+02  0.21579418773E+03  0.17084445217E+03 0.  0.
        -24    2    5    5    0    0  0.80101915922E+00 -0.21530447240E+02 -0.40842760825E+02  0.92980247956E+02  0.80703120188E+02 0.  0.
          5    1    3    3  501    0 -0.52004091067E+02  0.14880403973E+02  0.38193734889E+01  0.54429123858E+02  0.47000000000E+01 0. -1.
        -13    1    4    4    0    0 -0.47221070470E+02  0.13986661539E+02  0.93707766842E+02  0.10586123825E+03  0.00000000000E+00 0.  1.
         14    1    4    4    0    0 -0.11877661419E+02 -0.54884791549E+02  0.14951057290E+03  0.15970858021E+03  0.00000000000E+00 0. -1.
         -5    1    5    5    0  502  0.11030180380E+03  0.47548173278E+02 -0.25176518814E+02  0.12281393977E+03  0.47000000000E+01 0.  1.
         13    1    6    6    0    0  0.34389125008E+02 -0.29052912638E+02 -0.86312460277E+01  0.45838652462E+02  0.00000000000E+00 0. -1.
        -14    1    6    6    0    0 -0.33588105848E+02  0.75224653981E+01 -0.32211514797E+02  0.47141595494E+02  0.00000000000E+00 0.  1.
</event>
<event>
12    1  0.8453150E-002  0.2650549E+03  0.7818608E-02  0.1104200E+00
         21   -1    0    0  503  502  0.00000000000E+00  0.00000000000E+00  0.10869822056E+04  0.10869822056E+04  0.00000000000E+00 0.  1.
         21   -1    0    0  501  503 -0.00000000000E+00 -0.00000000000E+00 -0.16358434357E+03  0.16358434357E+03  0.00000000000E+00 0.  1.
          6    2    1    2  501    0  0.12701869259E+03  0.15694830623E+03 -0.24714202005E+02  0.26620457057E+03  0.17171942964E+03 0.  0.
         24    2    3    3    0    0  0.11909365806E+03  0.14029326239E+03 -0.74839343084E+02  0.21258725596E+03  0.75676385106E+02 0.  0.
         -6    2    1    2    0  502 -0.12701869259E+03 -0.15694830623E+03  0.94811206403E+03  0.98436197859E+03  0.17113006703E+03 0.  0.
        -24    2    5    5    0    0 -0.21057651597E+02 -0.40859507268E+02  0.20223850011E+03  0.22209311866E+03  0.79448212113E+02 0.  0.
          5    1    3    3  501    0  0.79250345334E+01  0.16655043841E+02  0.50125141079E+02  0.53617314609E+02  0.47000000000E+01 0. -1.
        -13    1    4    4    0    0  0.11696109501E+02  0.56179918936E+02 -0.83447572891E+00  0.57390579531E+02  0.00000000000E+00 0.  1.
         14    1    4    4    0    0  0.10739754856E+03  0.84113343454E+02 -0.74004867355E+02  0.15519667643E+03  0.00000000000E+00 0. -1.
         -5    1    5    5    0  502 -0.10596104100E+03 -0.11608879896E+03  0.74587356392E+03  0.76226885992E+03  0.47000000000E+01 0.  1.
         11    1    6    6    0    0 -0.34702341957E+02 -0.80887839870E+01  0.17141852571E+03  0.17508281446E+03  0.00000000000E+00 0. -1.
        -12    1    6    6    0    0  0.13644690360E+02 -0.32770723281E+02  0.30819974397E+02  0.47010304203E+02  0.00000000000E+00 0.  1.
</event>
<event>
12    1  0.8453150E-002  0.2129901E+03  0.7818608E-02  0.1139307E+00
         21   -1    0    0  501  502  0.00000000000E+00  0.00000000000E+00  0.33522764640E+03  0.33522764640E+03  0.00000000000E+00 0. -1.
         21   -1    0    0  502  503 -0.00000000000E+00 -0.00000000000E+00 -0.26786540438E+03  0.26786540438E+03  0.00000000000E+00 0. -1.
         -6    2    1    2    0  503 -0.39292019076E+02  0.12027736541E+03 -0.17864284959E+03  0.27798930588E+03  0.17133090522E+03 0.  0.
        -24    2    3    3    0    0 -0.37421379851E+02  0.96248803143E+02 -0.20409071329E+03  0.24262612075E+03  0.80933450680E+02 0.  0.
          6    2    1    2  501    0  0.39292019076E+02 -0.12027736541E+03  0.24600509160E+03  0.32510374490E+03  0.17077304372E+03 0.  0.
         24    2    5    5    0    0 -0.16543276699E+02 -0.26445193398E+02  0.50620134890E+02  0.10123005715E+03  0.81927395637E+02 0.  0.
          5    1    5    5  501    0  0.55835295775E+02 -0.93832172009E+02  0.19538495671E+03  0.22387368775E+03  0.47000000000E+01 0. -1.
        -13    1    6    6    0    0  0.10495926441E+01 -0.46459875249E+02  0.57282196814E+02  0.73762264910E+02  0.00000000000E+00 0.  1.
         14    1    6    6    0    0 -0.17592869343E+02  0.20014681850E+02 -0.66620619240E+01  0.27467792237E+02  0.00000000000E+00 0. -1.
         -5    1    3    3    0  503 -0.18706392256E+01  0.24028562264E+02  0.25447863710E+02  0.35363185136E+02  0.47000000000E+01 0.  1.
         11    1    4    4    0    0  0.15797722005E+02  0.63183896752E+02 -0.13143483111E+03  0.14668635812E+03  0.00000000000E+00 0. -1.
        -12    1    4    4    0    0 -0.53219101855E+02  0.33064906390E+02 -0.72655882183E+02  0.95939762626E+02  0.00000000000E+00 0.  1.
</event>
<event>
12    1  0.8453150E-002  0.2334476E+03  0.7818608E-02  0.1124673E+00
         21   -1    0    0  503  502  0.00000000000E+00  0.00000000000E+00  0.50039047019E+03  0.50039047019E+03  0.00000000000E+00 0.  1.
         21   -1    0    0  501  503 -0.00000000000E+00 -0.00000000000E+00 -0.13277873374E+03  0.13277873374E+03  0.00000000000E+00 0. -1.
          6    2    1    2  501    0  0.15989686178E+01 -0.15431219740E+03  0.32209191941E+03  0.39779516022E+03  0.17516556163E+03 0.  0.
         24    2    3    3    0    0 -0.42643721227E+02 -0.65765074223E+02  0.25359678637E+03  0.27733071784E+03  0.80358353987E+02 0.  0.
         -6    2    1    2    0  502 -0.15989686178E+01  0.15431219740E+03  0.45519817032E+02  0.23537404371E+03  0.17179661156E+03 0.  0.
        -24    2    5    5    0    0  0.27780933820E+02  0.56741704398E+02 -0.32493335614E+02  0.10695550238E+03  0.79951618669E+02 0.  0.
          5    1    3    3  501    0  0.44242689844E+02 -0.88547123175E+02  0.68495133045E+02  0.12046444238E+03  0.47000000000E+01 0. -1.
        -11    1    4    4    0    0  0.21807388189E+02 -0.14044236781E+02  0.95235252515E+02  0.98704387379E+02  0.00000000000E+00 0.  1.
         12    1    4    4    0    0 -0.64451109415E+02 -0.51720837441E+02  0.15836153385E+03  0.17862633046E+03  0.00000000000E+00 0. -1.
         -5    1    5    5    0  502 -0.29379902438E+02  0.97570493000E+02  0.78013152646E+02  0.12841854133E+03  0.47000000000E+01 0.  1.
         11    1    6    6    0    0 -0.19951113217E+02  0.24645995944E+02 -0.37628311419E+02  0.49207335377E+02  0.00000000000E+00 0. -1.
        -12    1    6    6    0    0  0.47732047037E+02  0.32095708454E+02  0.51349758052E+01  0.57748167001E+02  0.00000000000E+00 0.  1.
</event>
<event>
12    1  0.8453150E-002  0.1733183E+03  0.7818608E-02  0.1174645E+00
         21   -1    0    0  501  502  0.00000000000E+00  0.00000000000E+00  0.17920205484E+03  0.17920205484E+03  0.00000000000E+00 0.  1.
         21   -1    0    0  502  503 -0.00000000000E+00 -0.00000000000E+00 -0.17118119438E+03  0.17118119438E+03  0.00000000000E+00 0.  1.
         -6    2    1    2    0  503  0.65304020308E+01 -0.16189679315E+02 -0.23949396289E+02  0.17496516819E+03  0.17243690043E+03 0.  0.
        -24    2    3    3    0    0 -0.12883816266E+02 -0.75831585157E+02 -0.16885910635E+02  0.11167179070E+03  0.79177224190E+02 0.  0.
          6    2    1    2  501    0 -0.65304020308E+01  0.16189679315E+02  0.31970256744E+02  0.17541808103E+03  0.17159444621E+03 0.  0.
         24    2    5    5    0    0 -0.51317298782E+02  0.32785241736E+02 -0.22400302321E+02  0.10289548796E+03  0.79858441435E+02 0.  0.
          5    1    5    5  501    0  0.44786896751E+02 -0.16595562421E+02  0.54370559064E+02  0.72522593070E+02  0.47000000000E+01 0. -1.
        -11    1    6    6    0    0  0.73128219823E+01 -0.19777433907E+02 -0.94038061966E+01  0.23088001825E+02  0.00000000000E+00 0.  1.
         12    1    6    6    0    0 -0.58630120764E+02  0.52562675643E+02 -0.12996496124E+02  0.79807486134E+02  0.00000000000E+00 0. -1.
         -5    1    3    3    0  503  0.19414218297E+02  0.59641905842E+02 -0.70634856535E+01  0.63293377490E+02  0.47000000000E+01 0.  1.
         13    1    4    4    0    0  0.67307259252E+01 -0.48566616438E+02  0.27339598034E+02  0.56137977558E+02  0.00000000000E+00 0. -1.
        -14    1    4    4    0    0 -0.19614542191E+02 -0.27264968719E+02 -0.44225508669E+02  0.55533813138E+02  0.00000000000E+00 0.  1.
</event>
<event>
12    1  0.8453150E-002  0.1799365E+03  0.7818608E-02  0.1168414E+00
         21   -1    0    0  503  502  0.00000000000E+00  0.00000000000E+00  0.55336666104E+02  0.55336666104E+02  0.00000000000E+00 0.  1.
         21   -1    0    0  501  503 -0.00000000000E+00 -0.00000000000E+00 -0.61566386453E+03  0.61566386453E+03  0.00000000000E+00 0.  1.
          6    2    1    2  501    0 -0.34886413118E+02  0.27180334686E+02 -0.36172305834E+03  0.40300662627E+03  0.17208991100E+03 0.  0.
         24    2    3    3    0    0 -0.78668340544E+02 -0.43379141444E+01 -0.30677095529E+03  0.32585689647E+03  0.76594860558E+02 0.  0.
         -6    2    1    2    0  502  0.34886413118E+02 -0.27180334686E+02 -0.19860414009E+03  0.26799390437E+03  0.17441701725E+03 0.  0.
        -24    2    5    5    0    0  0.90423517396E+02 -0.14962276651E+02 -0.11098222425E+03  0.16343128663E+03  0.77410910912E+02 0.  0.
          5    1    3    3  501    0  0.43781927425E+02  0.31518248831E+02 -0.54952103045E+02  0.77149729795E+02  0.47000000000E+01 0. -1.
        -13    1    4    4    0    0 -0.70263314195E+02 -0.14414022391E+01 -0.12141305851E+03  0.14028592851E+03  0.00000000000E+00 0.  1.
         14    1    4    4    0    0 -0.84050263481E+01 -0.28965119053E+01 -0.18535789678E+03  0.18557096796E+03  0.00000000000E+00 0. -1.
         -5    1    5    5    0  502 -0.55537104278E+02 -0.12218058035E+02 -0.87621915844E+02  0.10456261775E+03  0.47000000000E+01 0.  1.
         13    1    6    6    0    0  0.15278574284E+02  0.28398516018E+02 -0.21269838558E+02  0.38630513542E+02  0.00000000000E+00 0. -1.
        -14    1    6    6    0    0  0.75144943112E+02 -0.43360792669E+02 -0.89712385692E+02  0.12480077309E+03  0.00000000000E+00 0.  1.
</event>
<event>
12    1  0.8453150E-002  0.2807970E+03  0.7818608E-02  0.1095323E+00
         21   -1    0    0  501  502  0.00000000000E+00  0.00000000000E+00  0.15055903858E+04  0.15055903858E+04  0.00000000000E+00 0. -1.
         21   -1    0    0  502  503 -0.00000000000E+00 -0.00000000000E+00 -0.88768180612E+02  0.88768180612E+02  0.00000000000E+00 0.  1.
         -6    2    1    2    0  503  0.15221375103E+03 -0.16137721836E+03  0.19690471319E+03  0.34254163989E+03  0.17132330949E+03 0.  0.
        -24    2    3    3    0    0  0.86007765720E+02 -0.16365126549E+03  0.18712997389E+03  0.27541460130E+03  0.81587394997E+02 0.  0.
          6    2    1    2  501    0 -0.15221375103E+03  0.16137721836E+03  0.12199174920E+04  0.12518169265E+04  0.17214905644E+03 0.  0.
         24    2    5    5    0    0 -0.50107286001E+01  0.74036270350E+02  0.53728237595E+03  0.54803431614E+03  0.78503397588E+02 0.  0.
          5    1    5    5  501    0 -0.14720302243E+03  0.87340948011E+02  0.68263511607E+03  0.70378261040E+03  0.47000000000E+01 0. -1.
        -13    1    6    6    0    0  0.24381384255E+02  0.97733332559E+01  0.59309309282E+02  0.64865739097E+02  0.00000000000E+00 0.  1.
         14    1    6    6    0    0 -0.29392112855E+02  0.64262937094E+02  0.47797306667E+03  0.48316857704E+03  0.00000000000E+00 0. -1.
         -5    1    3    3    0  503  0.66205985311E+02  0.22740471281E+01  0.97747393008E+01  0.67127038589E+02  0.47000000000E+01 0.  1.
         13    1    4    4    0    0  0.27643910532E+01 -0.26495892468E+00  0.40587315649E+02  0.40682210519E+02  0.00000000000E+00 0. -1.
        -14    1    4    4    0    0  0.83243374667E+02 -0.16338630656E+03  0.14654265824E+03  0.23473239078E+03  0.00000000000E+00 0.  1.
</event>
<event>
12    1  0.8453150E-002  0.2168258E+03  0.7818608E-02  0.1136394E+00
         21   -1    0    0  503  502  0.00000000000E+00  0.00000000000E+00  0.63417536232E+03  0.63417536232E+03  0.00000000000E+00 0.  1.
         21   -1    0    0  501  503 -0.00000000000E+00 -0.00000000000E+00 -0.10240236597E+03  0.10240236597E+03  0.00000000000E+00 0. -1.
          6    2    1    2  501    0  0.78158459957E+02 -0.10551607049E+03  0.71347315627E+02  0.22765217892E+03  0.17173435627E+03 0.  0.
         24    2    3    3    0    0  0.11581913863E+03 -0.45982407157E+02  0.23636839609E+02  0.14244089263E+03  0.64824787427E+02 0.  0.
         -6    2    1    2    0  502 -0.78158459957E+02  0.10551607049E+03  0.46042568072E+03  0.50892554937E+03  0.17254281015E+03 0.  0.
        -24    2    5    5    0    0 -0.12053160947E+03  0.92707330997E+02  0.34274405379E+03  0.38310582546E+03  0.78575244128E+02 0.  0.
          5    1    3    3  501    0 -0.37660678675E+02 -0.59533663336E+02  0.47710476018E+02  0.85211286285E+02  0.47000000000E+01 0. -1.
        -13    1    4    4    0    0  0.20822256028E+02 -0.13504085785E+02  0.33356277260E+02  0.41576049736E+02  0.00000000000E+00 0.  1.
         14    1    4    4    0    0  0.94996882605E+02 -0.32478321373E+02 -0.97194376513E+01  0.10086484289E+03  0.00000000000E+00 0. -1.
         -5    1    5    5    0  502  0.42373149510E+02  0.12808739496E+02  0.11768162694E+03  0.12581972391E+03  0.47000000000E+01 0.  1.
         13    1    6    6    0    0 -0.52522188171E+02  0.96976813095E+01  0.58170919410E+02  0.78971394429E+02  0.00000000000E+00 0. -1.
        -14    1    6    6    0    0 -0.68009421297E+02  0.83009649688E+02  0.28457313438E+03  0.30413443103E+03  0.00000000000E+00 0.  1.
</event>
<event>
12    1  0.8453150E-002  0.1871674E+03  0.7818608E-02  0.1161239E+00
         21   -1    0    0  501  502  0.00000000000E+00  0.00000000000E+00  0.49480328832E+03  0.49480328832E+03  0.00000000000E+00 0. -1.
         21   -1    0    0  502  503 -0.00000000000E+00 -0.00000000000E+00 -0.40925847095E+03  0.40925847095E+03  0.00000000000E+00 0. -1.
         -6    2    1    2    0  503 -0.48598683536E+02  0.52727771556E+02 -0.36851719569E+03  0.41293657158E+03  0.17195824696E+03 0.  0.
        -24    2    3    3    0    0 -0.55274493715E+02  0.89824273537E+02 -0.34272109362E+03  0.36702093391E+03  0.78249269282E+02 0.  0.
          6    2    1    2  501    0  0.48598683536E+02 -0.52727771556E+02  0.45406201306E+03  0.49112518768E+03  0.17288605594E+03 0.  0.
         24    2    5    5    0    0 -0.30220667514E+01  0.49462196873E+01  0.49456781554E+02  0.79156166412E+02  0.61531516012E+02 0.  0.
          5    1    5    5  501    0  0.51620750288E+02 -0.57673991243E+02  0.40460523150E+03  0.41196902127E+03  0.47000000000E+01 0. -1.
        -11    1    6    6    0    0 -0.23812836638E+02  0.23559248620E+02  0.22468088879E+02  0.40334903027E+02  0.00000000000E+00 0.  1.
         12    1    6    6    0    0  0.20790769887E+02 -0.18613028933E+02  0.26988692676E+02  0.38821263386E+02  0.00000000000E+00 0. -1.
         -5    1    3    3    0  503  0.66758101784E+01 -0.37096501981E+02 -0.25796102064E+02  0.45915637668E+02  0.47000000000E+01 0.  1.
         13    1    4    4    0    0 -0.63784345626E+02  0.40026807257E+02 -0.25396880647E+03  0.26489760796E+03  0.00000000000E+00 0. -1.
        -14    1    4    4    0    0  0.85098519113E+01  0.49797466280E+02 -0.88752287159E+02  0.10212332595E+03  0.00000000000E+00 0.  1.
</event>
<event>
12    1  0.8453150E-002  0.2160684E+03  0.7818608E-02  0.1137439E+00
         21   -1    0    0  503  502  0.00000000000E+00  0.00000000000E+00  0.32368105658E+03  0.32368105658E+03  0.00000000000E+00 0. -1.
         21   -1    0    0  501  503 -0.00000000000E+00 -0.00000000000E+00 -0.15359869494E+03  0.15359869494E+03  0.00000000000E+00 0. -1.
          6    2    1    2  501    0  0.46711276866E+02 -0.12301346387E+03  0.19441419093E+02  0.21388227701E+03  0.16749150415E+03 0.  0.
         24    2    3    3    0    0 -0.87469932482E+01 -0.11104687062E+03 -0.27934222995E+02  0.13981905711E+03  0.79756695970E+02 0.  0.
         -6    2    1    2    0  502 -0.46711276866E+02  0.12301346387E+03  0.15064094254E+03  0.26339747451E+03  0.17138051327E+03 0.  0.
        -24    2    5    5    0    0 -0.90568284986E+02  0.12185813746E+03  0.11500973179E+03  0.20668376258E+03  0.80242877568E+02 0.  0.
          5    1    3    3  501    0  0.55458270114E+02 -0.11966593251E+02  0.47375642087E+02  0.74063219896E+02  0.47000000000E+01 0. -1.
        -13    1    4    4    0    0 -0.17932192003E+02  0.64761971025E+01 -0.25510988134E+01  0.19235715326E+02  0.00000000000E+00 0.  1.
         14    1    4    4    0    0  0.91851987552E+01 -0.11752306772E+03 -0.25383124181E+02  0.12058334179E+03  0.00000000000E+00 0. -1.
         -5    1    5    5    0  502  0.43857008120E+02  0.11553264136E+01  0.35631210758E+02  0.56713711927E+02  0.47000000000E+01 0.  1.
         13    1    6    6    0    0 -0.91159437017E+02  0.58902152039E+02  0.77978362339E+02  0.13364180284E+03  0.00000000000E+00 0. -1.
        -14    1    6    6    0    0  0.59115203073E+00  0.62955985418E+02  0.37031369446E+02  0.73041959748E+02  0.00000000000E+00 0.  1.
</event>
<event>
12    1  0.8453150E-002  0.2942336E+03  0.7818608E-02  0.1088197E+00
         21   -1    0    0  501  502  0.00000000000E+00  0.00000000000E+00  0.24711391291E+03  0.24711391291E+03  0.00000000000E+00 0. -1.
         21   -1    0    0  502  503 -0.00000000000E+00 -0.00000000000E+00 -0.42166996078E+03  0.42166996078E+03  0.00000000000E+00 0.  1.
         -6    2    1    2    0  503 -0.22971536699E+03 -0.62740358058E+02 -0.22518724091E+03  0.37051677316E+03  0.17282327205E+03 0.  0.
        -24    2    3    3    0    0 -0.21554357340E+03 -0.51237172594E+02 -0.12178844274E+03  0.26541413536E+03  0.80795783133E+02 0.  0.
          6    2    1    2  501    0  0.22971536699E+03  0.62740358058E+02  0.50631193048E+02  0.29826710053E+03  0.17232017639E+03 0.  0.
         24    2    5    5    0    0  0.15131325211E+03 -0.27322407735E+02  0.16567416350E+02  0.17400679198E+03  0.79760078614E+02 0.  0.
          5    1    5    5  501    0  0.78402114874E+02  0.90062765793E+02  0.34063776698E+02  0.12426030855E+03  0.47000000000E+01 0. -1.
        -11    1    6    6    0    0  0.68991196831E+02 -0.29776834823E+02 -0.28208839819E+02  0.80263215586E+02  0.00000000000E+00 0.  1.
         12    1    6    6    0    0  0.82322055283E+02  0.24544270881E+01  0.44776256170E+02  0.93743576393E+02  0.00000000000E+00 0. -1.
         -5    1    3    3    0  503 -0.14171793585E+02 -0.11503185463E+02 -0.10339879817E+03  0.10510263780E+03  0.47000000000E+01 0.  1.
         11    1    4    4    0    0 -0.27715716267E+02 -0.25667830924E+02 -0.50112275981E+02  0.62755387630E+02  0.00000000000E+00 0. -1.
        -12    1    4    4    0    0 -0.18782785714E+03 -0.25569341671E+02 -0.71676166759E+02  0.20265874773E+03  0.00000000000E+00 0.  1.
</event>
<event>
12    1  0.8453150E-002  0.1758504E+03  0.7818608E-02  0.1171968E+00
         21   -1    0    0  503  502  0.00000000000E+00  0.00000000000E+00  0.10113630159E+03  0.10113630159E+03  0.00000000000E+00 0.  1.
         21   -1    0    0  501  503 -0.00000000000E+00 -0.00000000000E+00 -0.69531675433E+03  0.69531675433E+03  0.00000000000E+00 0.  1.
          6    2    1    2  501    0  0.34707392859E+02 -0.84974549911E+01 -0.59526784916E+03  0.62059928505E+03  0.17182214787E+03 0.  0.
         24    2    3    3    0    0  0.27097372267E+02  0.49795014013E+02 -0.49339047581E+03  0.50288346812E+03  0.79017782033E+02 0.  0.
         -6    2    1    2    0  502 -0.34707392859E+02  0.84974549911E+01  0.10873964218E+01  0.17585377086E+03  0.17218175407E+03 0.  0.
        -24    2    5    5    0    0 -0.78305996180E+02  0.31583578079E+01 -0.35315544675E+02  0.11861210517E+03  0.81730285305E+02 0.  0.
          5    1    3    3  501    0  0.76100205919E+01 -0.58292469004E+02 -0.10187737335E+03  0.11771581693E+03  0.47000000000E+01 0. -1.
        -13    1    4    4    0    0  0.53628646255E+02  0.45154150518E+02 -0.34118905099E+03  0.34831723690E+03  0.00000000000E+00 0.  1.
         14    1    4    4    0    0 -0.26531273988E+02  0.46408634942E+01 -0.15220142483E+03  0.15456623122E+03  0.00000000000E+00 0. -1.
         -5    1    5    5    0  502  0.43598603321E+02  0.53390971833E+01  0.36402941097E+02  0.57241665689E+02  0.47000000000E+01 0.  1.
         11    1    6    6    0    0 -0.14596660754E+02  0.36972021948E+02 -0.21441092921E+02  0.45163186089E+02  0.00000000000E+00 0. -1.
        -12    1    6    6    0    0 -0.63709335426E+02 -0.33813664140E+02 -0.13874451755E+02  0.73448919084E+02  0.00000000000E+00 0.  1.
</event>
<event>
12    1  0.8453150E-002  0.2985599E+03  0.7818608E-02  0.1086647E+00
         21   -1    0    0  501  502  0.00000000000E+00  0.00000000000E+00  0.16610102357E+03  0.16610102357E+03  0.00000000000E+00 0. -1.
         21   -1    0    0  502  503 -0.00000000000E+00 -0.00000000000E+00 -0.61198619503E+03  0.61198619503E+03  0.00000000000E+00 0.  1.
         -6    2    1    2    0  503 -0.24214688804E+03 -0.32466276642E+02 -0.36966314138E+03  0.47517243359E+03  0.17160661131E+03 0.  0.
        -24    2    3    3    0    0 -0.88144489633E+02 -0.69918350144E+02 -0.14392440692E+03  0.19931112286E+03  0.79703588673E+02 0.  0.
          6    2    1    2  501    0  0.24214688804E+03  0.32466276642E+02 -0.76222030081E+02  0.30291478500E+03  0.16204442167E+03 0.  0.
         24    2    5    5    0    0  0.16663566876E+03 -0.20251429395E+02 -0.94146450480E+02  0.20897610493E+03  0.81424147510E+02 0.  0.
          5    1    5    5  501    0  0.75511219280E+02  0.52717706037E+02  0.17924420399E+02  0.93938680072E+02  0.47000000000E+01 0. -1.
        -13    1    6    6    0    0  0.62210587848E+01  0.20157960596E+02 -0.92042551068E+01  0.23016586625E+02  0.00000000000E+00 0.  1.
         14    1    6    6    0    0  0.16041460998E+03 -0.40409389991E+02 -0.84942195373E+02  0.18595951831E+03  0.00000000000E+00 0. -1.
         -5    1    3    3    0  503 -0.15400239841E+03  0.37452073502E+02 -0.22573873446E+03  0.27586131074E+03  0.47000000000E+01 0.  1.
         13    1    4    4    0    0 -0.12703705496E+02  0.45939754592E+01  0.67222139625E+01  0.15088966314E+02  0.00000000000E+00 0. -1.
        -14    1    4    4    0    0 -0.75440784137E+02 -0.74512325603E+02 -0.15064662088E+03  0.18422215654E+03  0.00000000000E+00 0.  1.
</event>
<event>
12    1  0.8453150E-002  0.2567416E+03  0.7818608E-02  0.1110034E+00
         21   -1    0    0  501  502  0.00000000000E+00  0.00000000000E+00  0.15022649631E+04  0.15022649631E+04  0.00000000000E+00 0. -1.
         21   -1    0    0  502  503 -0.00000000000E+00 -0.00000000000E+00 -0.49701658428E+02  0.49701658428E+02  0.00000000000E+00 0.  1.
         -6    2    1    2    0  503 -0.68858959388E+02 -0.17322969138E+03  0.43129241980E+03  0.49891844421E+03  0.16779863029E+03 0.  0.
        -24    2    3    3    0    0 -0.21202185205E+01 -0.50272526120E+02  0.26564383351E+03  0.28204505220E+03  0.80317762531E+02 0.  0.
          6    2    1    2  501    0  0.68858959388E+02  0.17322969138E+03  0.10212708849E+04  0.10530481773E+04  0.17653940413E+03 0.  0.
         24    2    5    5    0    0 -0.16185287063E+02  0.25256603335E+02  0.38974427525E+03  0.39884904304E+03  0.79247078879E+02 0.  0.
          5    1    5    5  501    0  0.85044246451E+02  0.14797308805E+03  0.63152660960E+03  0.65419913427E+03  0.47000000000E+01 0. -1.
        -13    1    6    6    0    0  0.25414384264E+02 -0.12706745378E+02  0.12927819082E+03  0.13236390342E+03  0.00000000000E+00 0.  1.
         14    1    6    6    0    0 -0.41599671327E+02  0.37963348713E+02  0.26046608443E+03  0.26648513962E+03  0.00000000000E+00 0. -1.
         -5    1    3    3    0  503 -0.66738740868E+02 -0.12295716526E+03  0.16564858629E+03  0.21687339201E+03  0.47000000000E+01 0.  1.
         11    1    4    4    0    0 -0.70135687403E+01 -0.18393833605E+02  0.24009245984E+03  0.24089813726E+03  0.00000000000E+00 0. -1.
        -12    1    4    4    0    0  0.48933502198E+01 -0.31878692515E+02  0.25551373672E+02  0.41146914944E+02  0.00000000000E+00 0.  1.
</event>
<event>
12    1  0.8453150E-002  0.2444989E+03  0.7818608E-02  0.1116886E+00
         21   -1    0    0  503  502  0.00000000000E+00  0.00000000000E+00  0.13992056232E+03  0.13992056232E+03  0.00000000000E+00 0. -1.
         21   -1    0    0  501  503 -0.00000000000E+00 -0.00000000000E+00 -0.42678894948E+03  0.42678894948E+03  0.00000000000E+00 0. -1.
          6    2    1    2  501    0 -0.15647068727E+03 -0.74721584945E+02 -0.14859021631E+03  0.28610971559E+03  0.17237553696E+03 0.  0.
         24    2    3    3    0    0 -0.97021504673E+02  0.18712502029E+02 -0.11791797599E+03  0.17110097572E+03  0.74883674662E+02 0.  0.
         -6    2    1    2    0  502  0.15647068727E+03  0.74721584945E+02 -0.13827817085E+03  0.28059979620E+03  0.17189823113E+03 0.  0.
        -24    2    5    5    0    0  0.11647340328E+03  0.11153013308E+03 -0.72424738824E+02  0.19508128095E+03  0.82500540161E+02 0.  0.
          5    1    3    3  501    0 -0.59449182593E+02 -0.93434086974E+02 -0.30672240323E+02  0.11500873987E+03  0.47000000000E+01 0. -1.
        -13    1    4    4    0    0 -0.10317806419E+03 -0.30263335441E+00 -0.91004898155E+02  0.13757796337E+03  0.00000000000E+00 0.  1.
         14    1    4    4    0    0  0.61565595165E+01  0.19015135383E+02 -0.26913077835E+02  0.33523012354E+02  0.00000000000E+00 0. -1.
         -5    1    5    5    0  502  0.39997283988E+02 -0.36808548135E+02 -0.65853432022E+02  0.85518515254E+02  0.47000000000E+01 0.  1.
         13    1    6    6    0    0  0.10562537048E+03  0.49745935740E+02 -0.59475180019E+02  0.13102928699E+03  0.00000000000E+00 0. -1.
        -14    1    6    6    0    0  0.10848032799E+02  0.61784197339E+02 -0.12949558805E+02  0.64051993956E+02  0.00000000000E+00 0.  1.
</event>
<event>
12    1  0.8453150E-002  0.2598327E+03  0.7818608E-02  0.1107327E+00
         21   -1    0    0  501  502  0.00000000000E+00  0.00000000000E+00  0.42086321228E+03  0.42086321228E+03  0.00000000000E+00 0.  1.
         21   -1    0    0  502  503 -0.00000000000E+00 -0.00000000000E+00 -0.35181358742E+03  0.35181358742E+03  0.00000000000E+00 0.  1.
         -6    2    1    2    0  503  0.55158073591E+02 -0.18569539136E+03 -0.25070228271E+03  0.36066427111E+03  0.17234236404E+03 0.  0.
        -24    2    3    3    0    0  0.39806715918E+02 -0.10671529321E+03 -0.55626977299E+02  0.14959559776E+03  0.79446546996E+02 0.  0.
          6    2    1    2  501    0 -0.55158073591E+02  0.18569539136E+03  0.31975190757E+03  0.41201252859E+03  0.17317000278E+03 0.  0.
         24    2    5    5    0    0 -0.12628318196E+01  0.11021627274E+03  0.27907690249E+03  0.31063037793E+03  0.80362258980E+02 0.  0.
          5    1    5    5  501    0 -0.53895241771E+02  0.75479118627E+02  0.40675005079E+02  0.10138215066E+03  0.47000000000E+01 0. -1.
        -13    1    6    6    0    0 -0.37134480054E+02  0.59990263598E+02  0.11043042971E+03  0.13104457693E+03  0.00000000000E+00 0.  1.
         14    1    6    6    0    0  0.35871648234E+02  0.50226009137E+02  0.16864647278E+03  0.17958580100E+03  0.00000000000E+00 0. -1.
         -5    1    3    3    0  503  0.15351357673E+02 -0.78980098153E+02 -0.19507530541E+03  0.21106867335E+03  0.47000000000E+01 0.  1.
         11    1    4    4    0    0 -0.11575936885E+02 -0.54173171793E+02  0.31585580291E+01  0.55486136518E+02  0.00000000000E+00 0. -1.
        -12    1    4    4    0    0  0.51382652803E+02 -0.52542121417E+02 -0.58785535328E+02  0.94109461245E+02  0.00000000000E+00 0.  1.
</event>
<event>
12    1  0.8453150E-002  0.2175418E+03  0.7818608E-02  0.1135813E+00
         21   -1    0    0  503  502  0.00000000000E+00  0.00000000000E+00  0.55738692751E+02  0.55738692751E+02  0.00000000000E+00 0.  1.
         21   -1    0    0  501  503 -0.00000000000E+00 -0.00000000000E+00 -0.13204826521E+04  0.13204826521E+04  0.00000000000E+00 0. -1.
          6    2    1    2  501    0 -0.50160430216E+02 -0.12460079388E+03 -0.10446974194E+04  0.10671068957E+04  0.17112276930E+03 0.  0.
         24    2    3    3    0    0 -0.21885601013E+02 -0.56211945915E+02 -0.89409984534E+03  0.89924320158E+03  0.74733123625E+02 0.  0.
         -6    2    1    2    0  502  0.50160430216E+02  0.12460079388E+03 -0.22004653987E+03  0.30911444906E+03  0.17055742820E+03 0.  0.
        -24    2    5    5    0    0  0.82297672499E+01  0.90160812811E+02 -0.22437629667E+03  0.25447810963E+03  0.78852295696E+02 0.  0.
          5    1    3    3  501    0 -0.28274829203E+02 -0.68388847969E+02 -0.15059757410E+03  0.16786369416E+03  0.47000000000E+01 0. -1.
        -13    1    4    4    0    0 -0.43350998366E+02 -0.38913226624E+02 -0.38345399916E+03  0.38785373240E+03  0.00000000000E+00 0.  1.
         14    1    4    4    0    0  0.21465397353E+02 -0.17298719291E+02 -0.51064584617E+03  0.51138946918E+03  0.00000000000E+00 0. -1.
         -5    1    5    5    0  502  0.41930662966E+02  0.34439981074E+02  0.43297567980E+01  0.54636339437E+02  0.47000000000E+01 0.  1.
         13    1    6    6    0    0 -0.23945374880E+02  0.39825653621E+01 -0.77129367074E+02  0.80859019722E+02  0.00000000000E+00 0. -1.
        -14    1    6    6    0    0  0.32175142130E+02  0.86178247449E+02 -0.14724692959E+03  0.17361908990E+03  0.00000000000E+00 0.  1.
</event>
<event>
12    1  0.8453150E-002  0.1860669E+03  0.7818608E-02  0.1162115E+00
         21   -1    0    0  501  502  0.00000000000E+00  0.00000000000E+00  0.39503447597E+02  0.39503447597E+02  0.00000000000E+00 0.  1.
         21   -1    0    0  502  503 -0.00000000000E+00 -0.00000000000E+00 -0.95845645174E+03  0.95845645174E+03  0.00000000000E+00 0.  1.
         -6    2    1    2    0  503  0.55952137184E+02 -0.43097469176E+02 -0.60623490314E+03  0.63407325887E+03  0.17187235474E+03 0.  0.
        -24    2    3    3    0    0  0.84308768325E+01 -0.22261666915E+02 -0.11241869174E+03  0.13751617103E+03  0.75538556675E+02 0.  0.
          6    2    1    2  501    0 -0.55952137184E+02  0.43097469176E+02 -0.31271810100E+03  0.36388664047E+03  0.17214192665E+03 0.  0.
         24    2    5    5    0    0 -0.97365147431E+02  0.23998089210E+01 -0.18390005700E+03  0.22250943074E+03  0.78774899482E+02 0.  0.
          5    1    5    5  501    0  0.41413010247E+02  0.40697660255E+02 -0.12881804400E+03  0.14137720972E+03  0.47000000000E+01 0. -1.
        -11    1    6    6    0    0 -0.81149031679E+02  0.31541814842E+02 -0.10215161946E+03  0.13421998653E+03  0.00000000000E+00 0.  1.
         12    1    6    6    0    0 -0.16216115752E+02 -0.29142005921E+02 -0.81748437544E+02  0.88289444217E+02  0.00000000000E+00 0. -1.
         -5    1    3    3    0  503  0.47521260351E+02 -0.20835802261E+02 -0.49381621140E+03  0.49655708784E+03  0.47000000000E+01 0.  1.
         13    1    4    4    0    0 -0.64013697610E+01  0.17096265356E+01  0.99435950040E+01  0.11948867700E+02  0.00000000000E+00 0. -1.
        -14    1    4    4    0    0  0.14832246594E+02 -0.23971293451E+02 -0.12236228674E+03  0.12556730333E+03  0.00000000000E+00 0.  1.
</event>
<event>
12    1  0.8453150E-002  0.2158032E+03  0.7818608E-02  0.1138535E+00
         21   -1    0    0  503  502  0.00000000000E+00  0.00000000000E+00  0.79853770545E+02  0.79853770545E+02  0.00000000000E+00 0. -1.
         21   -1    0    0  501  503 -0.00000000000E+00 -0.00000000000E+00 -0.77283064166E+03  0.77283064166E+03  0.00000000000E+00 0.  1.
          6    2    1    2  501    0 -0.27770526048E+02  0.12640613053E+03 -0.57325045109E+03  0.61252518150E+03  0.17268846613E+03 0.  0.
         24    2    3    3    0    0  0.33636495340E+02  0.22591278382E+02 -0.20679234728E+03  0.22669882463E+03  0.83591282542E+02 0.  0.
         -6    2    1    2    0  502  0.27770526048E+02 -0.12640613053E+03 -0.11972642002E+03  0.24015923071E+03  0.16307154409E+03 0.  0.
        -24    2    5    5    0    0  0.71644668891E+02 -0.67694386999E+02 -0.10677632309E+03  0.16558172573E+03  0.79376546350E+02 0.  0.
          5    1    3    3  501    0 -0.61407021388E+02  0.10381485215E+03 -0.36645810382E+03  0.38582635687E+03  0.47000000000E+01 0. -1.
        -11    1    4    4    0    0  0.46320308767E+02  0.20885495407E+02 -0.20774199545E+03  0.21386563912E+03  0.00000000000E+00 0.  1.
         12    1    4    4    0    0 -0.12683813428E+02  0.17057829751E+01  0.94964817166E+00  0.12833185508E+02  0.00000000000E+00 0. -1.
         -5    1    5    5    0  502 -0.43874142842E+02 -0.58711743531E+02 -0.12950096928E+02  0.74577504980E+02  0.47000000000E+01 0.  1.
         13    1    6    6    0    0  0.82847004986E+02 -0.76072027352E+02 -0.92927865494E+02  0.14589779904E+03  0.00000000000E+00 0. -1.
        -14    1    6    6    0    0 -0.11202336095E+02  0.83776403527E+01 -0.13848457600E+02  0.19683926686E+02  0.00000000000E+00 0.  1.
</event>
<event>
12    1  0.8453150E-002  0.1788822E+03  0.7818608E-02  0.1169998E+00
         21   -1    0    0  501  502  0.00000000000E+00  0.00000000000E+00  0.29898989566E+03  0.29898989566E+03  0.00000000000E+00 0.  1.
         21   -1    0    0  502  503 -0.00000000000E+00 -0.00000000000E+00 -0.33561879322E+03  0.33561879322E+03  0.00000000000E+00 0. -1.
         -6    2    1    2    0  503  0.19769943074E+02 -0.39716377025E+02 -0.28162818953E+03  0.33125492931E+03  0.16866282875E+03 0.  0.
        -24    2    3    3    0    0  0.11376660323E+01  0.40764188028E+02 -0.11098320703E+03  0.14160766950E+03  0.77925903976E+02 0.  0.
          6    2    1    2  501    0 -0.19769943074E+02  0.39716377025E+02  0.24499929197E+03  0.30335375957E+03  0.17329341917E+03 0.  0.
         24    2    5    5    0    0 -0.68487266275E+02  0.38968152620E+01  0.20099483790E+03  0.22842111940E+03  0.84092758994E+02 0.  0.
          5    1    5    5  501    0  0.48717323201E+02  0.35819561763E+02  0.44004454074E+02  0.74932640172E+02  0.47000000000E+01 0. -1.
        -11    1    6    6    0    0  0.17411668420E+02 -0.67191087391E+01  0.61375741441E+02  0.64150559287E+02  0.00000000000E+00 0.  1.
         12    1    6    6    0    0 -0.85898934696E+02  0.10615924001E+02  0.13961909646E+03  0.16427056011E+03  0.00000000000E+00 0. -1.
         -5    1    3    3    0  503  0.18632277042E+02 -0.80480565053E+02 -0.17064498250E+03  0.18964725981E+03  0.47000000000E+01 0.  1.
         13    1    4    4    0    0 -0.86444140554E+01  0.37022444492E+02 -0.12117185715E+03  0.12699608756E+03  0.00000000000E+00 0. -1.
        -14    1    4    4    0    0  0.97820800876E+01  0.37417435366E+01  0.10188650123E+02  0.14611581943E+02  0.00000000000E+00 0.  1.
</event>
<event>
12    1  0.8453150E-002  0.2396011E+03  0.7818608E-02  0.1121480E+00
         21   -1    0    0  503  502  0.00000000000E+00  0.00000000000E+00  0.34565555437E+03  0.34565555437E+03  0.00000000000E+00 0.  1.
         21   -1    0    0  501  503 -0.00000000000E+00 -0.00000000000E+00 -0.56248216502E+03  0.56248216502E+03  0.00000000000E+00 0. -1.
          6    2    1    2  501    0  0.15287318015E+03 -0.27945658953E+02 -0.49287613775E+03  0.54802881237E+03  0.18236645241E+03 0.  0.
         24    2    3    3    0    0  0.16496030787E+03 -0.34222585826E+02 -0.49847836781E+03  0.53257004628E+03  0.82262278530E+02 0.  0.
         -6    2    1    2    0  502 -0.15287318015E+03  0.27945658953E+02  0.27604952710E+03  0.36010890702E+03  0.17124226826E+03 0.  0.
        -24    2    5    5    0    0 -0.15251377867E+03  0.34256308408E+02  0.14388566135E+03  0.22771052759E+03  0.81945429901E+02 0.  0.
          5    1    3    3  501    0 -0.12087127718E+02  0.62769268732E+01  0.56022300603E+01  0.15458766092E+02  0.47000000000E+01 0. -1.
        -11    1    4    4    0    0  0.40946071915E+02  0.26440506985E+02 -0.15095679511E+03  0.15863049898E+03  0.00000000000E+00 0.  1.
         12    1    4    4    0    0  0.12401423595E+03 -0.60663092811E+02 -0.34752157269E+03  0.37393954730E+03  0.00000000000E+00 0. -1.
         -5    1    5    5    0  502 -0.35940147553E+00 -0.63106494547E+01  0.13216386575E+03  0.13239837943E+03  0.47000000000E+01 0.  1.
         13    1    6    6    0    0 -0.61596240042E+02 -0.17071151780E+02  0.22881412460E+02  0.67890205822E+02  0.00000000000E+00 0. -1.
        -14    1    6    6    0    0 -0.90917538630E+02  0.51327460188E+02  0.12100424889E+03  0.15982032177E+03  0.00000000000E+00 0.  1.
</event>
<event>
12    1  0.8453150E-002  0.2152524E+03  0.7818608E-02  0.1137626E+00
         21   -1    0    0  503  502  0.00000000000E+00  0.00000000000E+00  0.88221451258E+03  0.88221451258E+03  0.00000000000E+00 0.  1.
         21   -1    0    0  501  503 -0.00000000000E+00 -0.00000000000E+00 -0.79573909816E+02  0.79573909816E+02  0.00000000000E+00 0.  1.
          6    2    1    2  501    0  0.87690381800E+01 -0.12845567595E+03  0.11942143689E+03  0.24546306302E+03  0.17150183382E+03 0.  0.
         24    2    3    3    0    0  0.21066453320E+02 -0.14039603946E+03  0.14047656727E+03  0.21790934793E+03  0.87154888646E+02 0.  0.
         -6    2    1    2    0  502 -0.87690381800E+01  0.12845567595E+03  0.68321916588E+03  0.71632535938E+03  0.17249879755E+03 0.  0.
        -24    2    5    5    0    0 -0.52359154712E+02  0.24192320322E+02  0.37494988580E+03  0.38796125564E+03  0.81238965846E+02 0.  0.
          5    1    3    3  501    0 -0.12297415140E+02  0.11940363508E+02 -0.21055130376E+02  0.27553715084E+02  0.47000000000E+01 0. -1.
        -11    1    4    4    0    0  0.76201653124E+01 -0.53594692468E+02  0.23059964083E+01  0.54182798004E+02  0.00000000000E+00 0.  1.
         12    1    4    4    0    0  0.13446288007E+02 -0.86801346991E+02  0.13817057086E+03  0.16372654993E+03  0.00000000000E+00 0. -1.
         -5    1    5    5    0  502  0.43590116532E+02  0.10426335563E+03  0.30826928007E+03  0.32836410374E+03  0.47000000000E+01 0.  1.
         11    1    6    6    0    0 -0.18633572280E+02  0.32375807927E+02  0.57170752376E+02  0.68292736672E+02  0.00000000000E+00 0. -1.
        -12    1    6    6    0    0 -0.33725582432E+02 -0.81834876052E+01  0.31777913343E+03  0.31966851897E+03  0.00000000000E+00 0.  1.
</event>
<event>
12    1  0.8453150E-002  0.2453546E+03  0.7818608E-02  0.1116416E+00
         21   -1    0    0  503  502  0.00000000000E+00  0.00000000000E+00  0.24886514999E+03  0.24886514999E+03  0.00000000000E+00 0.  1.
         21   -1    0    0  501  503 -0.00000000000E+00 -0.00000000000E+00 -0.71742136212E+03  0.71742136212E+03  0.00000000000E+00 0. -1.
          6    2    1    2  501    0  0.50730988150E+02  0.16727540658E+03 -0.62811382003E+03  0.67433363742E+03  0.17217487865E+03 0.  0.
         24    2    3    3    0    0  0.53693614052E+02  0.41513397237E+02 -0.16081747214E+03  0.19037823978E+03  0.75995055753E+02 0.  0.
         -6    2    1    2    0  502 -0.50730988150E+02 -0.16727540658E+03  0.15955760790E+03  0.29195287470E+03  0.17094781661E+03 0.  0.
        -24    2    5    5    0    0 -0.44584940921E+02 -0.13131073386E+02  0.64721071664E+02  0.11080567501E+03  0.76998950978E+02 0.  0.
          5    1    3    3  501    0 -0.29626259017E+01  0.12576200934E+03 -0.46729634789E+03  0.48395539763E+03  0.47000000000E+01 0. -1.
        -13    1    4    4    0    0 -0.13518881824E+01 -0.12434199911E+02 -0.52479077943E+00  0.12518479718E+02  0.00000000000E+00 0.  1.
         14    1    4    4    0    0  0.55045502234E+02  0.53947597148E+02 -0.16029268136E+03  0.17785976007E+03  0.00000000000E+00 0. -1.
         -5    1    5    5    0  502 -0.61460472295E+01 -0.15414433319E+03  0.94836536231E+02  0.18114719969E+03  0.47000000000E+01 0.  1.
         13    1    6    6    0    0 -0.46653244880E+02 -0.12541435460E+02  0.23175580400E+01  0.48365110735E+02  0.00000000000E+00 0. -1.
        -14    1    6    6    0    0  0.20683039588E+01 -0.58963792671E+00  0.62403513624E+02  0.62440564274E+02  0.00000000000E+00 0.  1.
</event>
<event>
12    1  0.8453150E-002  0.2138341E+03  0.7818608E-02  0.1138695E+00
         21   -1    0    0  503  502  0.00000000000E+00  0.00000000000E+00  0.48312070101E+02  0.48312070101E+02  0.00000000000E+00 0.  1.
         21   -1    0    0  501  503 -0.00000000000E+00 -0.00000000000E+00 -0.96066457987E+03  0.96066457987E+03  0.00000000000E+00 0. -1.
          6    2    1    2  501    0 -0.41418159289E+02 -0.11768305447E+03 -0.52294550842E+03  0.56472126151E+03  0.17283903841E+03 0.  0.
         24    2    3    3    0    0  0.23587464439E+02 -0.12338882201E+03 -0.36905197588E+03  0.39749806857E+03  0.77615615315E+02 0.  0.
         -6    2    1    2    0  502  0.41418159289E+02  0.11768305447E+03 -0.38940700135E+03  0.44425538846E+03  0.17366713059E+03 0.  0.
        -24    2    5    5    0    0 -0.63447497484E+01  0.45205783711E+02 -0.31929918643E+03  0.33257976011E+03  0.81077170927E+02 0.  0.
          5    1    3    3  501    0 -0.65005623729E+02  0.57057675379E+01 -0.15389353254E+03  0.16722319294E+03  0.47000000000E+01 0. -1.
        -13    1    4    4    0    0 -0.11042130774E+02 -0.38933815554E+02 -0.43596906990E+02  0.59484964022E+02  0.00000000000E+00 0.  1.
         14    1    4    4    0    0  0.34629595213E+02 -0.84455006453E+02 -0.32545506889E+03  0.33801310455E+03  0.00000000000E+00 0. -1.
         -5    1    5    5    0  502  0.47762909038E+02  0.72477270758E+02 -0.70107814920E+02  0.11167562836E+03  0.47000000000E+01 0.  1.
         11    1    6    6    0    0 -0.20308423013E+02  0.54922966467E+02 -0.30435219252E+03  0.30993422106E+03  0.00000000000E+00 0. -1.
        -12    1    6    6    0    0  0.13963673265E+02 -0.97171827557E+01 -0.14946993910E+02  0.22645539046E+02  0.00000000000E+00 0.  1.
</event>
<event>
12    1  0.8453150E-002  0.1846921E+03  0.7818608E-02  0.1163760E+00
         21   -1    0    0  503  502  0.00000000000E+00  0.00000000000E+00  0.19780923036E+03  0.19780923036E+03  0.00000000000E+00 0. -1.
         21   -1    0    0  501  503 -0.00000000000E+00 -0.00000000000E+00 -0.56936808593E+03  0.56936808593E+03  0.00000000000E+00 0. -1.
          6    2    1    2  501    0 -0.35589064540E+02 -0.48587151277E+02 -0.50645475279E+03  0.53846770581E+03  0.17269557259E+03 0.  0.
         24    2    3    3    0    0 -0.18886271532E+02 -0.26676096134E+02 -0.86914248139E+02  0.11799725182E+03  0.72807688818E+02 0.  0.
         -6    2    1    2    0  502  0.35589064540E+02  0.48587151277E+02  0.13489589722E+03  0.22870961048E+03  0.17459636323E+03 0.  0.
        -24    2    5    5    0    0 -0.40720147391E+02  0.43875113304E+02  0.45202838647E+02  0.11075947744E+03  0.81493614779E+02 0.  0.
          5    1    3    3  501    0 -0.16702793008E+02 -0.21911055143E+02 -0.41954050466E+03  0.42047045399E+03  0.47000000000E+01 0. -1.
        -11    1    4    4    0    0  0.27995137966E+02 -0.11530076745E+02 -0.37805719001E+02  0.48434933763E+02  0.00000000000E+00 0.  1.
         12    1    4    4    0    0 -0.46881409497E+02 -0.15146019389E+02 -0.49108529138E+02  0.69562318060E+02  0.00000000000E+00 0. -1.
         -5    1    5    5    0  502  0.76309211931E+02  0.47120379724E+01  0.89693058577E+02  0.11795013304E+03  0.47000000000E+01 0.  1.
         11    1    6    6    0    0  0.22628865024E+02  0.24545366272E+02  0.63846478888E+01  0.33989767083E+02  0.00000000000E+00 0. -1.
        -12    1    6    6    0    0 -0.63349012415E+02  0.19329747032E+02  0.38818190758E+02  0.76769710355E+02  0.00000000000E+00 0.  1.
</event>
<event>
12    1  0.8453150E-002  0.1907286E+03  0.7818608E-02  0.1158149E+00
         21   -1    0    0  503  502  0.00000000000E+00  0.00000000000E+00  0.46166975866E+03  0.46166975866E+03  0.00000000000E+00 0. -1.
         21   -1    0    0  501  503 -0.00000000000E+00 -0.00000000000E+00 -0.82053846330E+02  0.82053846330E+02  0.00000000000E+00 0. -1.
          6    2    1    2  501    0 -0.65397980549E+02 -0.49851860894E+02  0.24825412828E+03  0.31213493746E+03  0.17039953956E+03 0.  0.
         24    2    3    3    0    0 -0.65728958700E+02 -0.88365132531E+02  0.13738878999E+03  0.19467603030E+03  0.83032430397E+02 0.  0.
         -6    2    1    2    0  502  0.65397980549E+02  0.49851860894E+02  0.13136178405E+03  0.23158866753E+03  0.17209093156E+03 0.  0.
        -24    2    5    5    0    0  0.25381296128E+02  0.10206002616E+03  0.94059215829E+02  0.15582192582E+03  0.66127735118E+02 0.  0.
          5    1    3    3  501    0  0.33097815128E+00  0.38513271637E+02  0.11086533829E+03  0.11745890716E+03  0.47000000000E+01 0. -1.
        -13    1    4    4    0    0 -0.28163742163E+02  0.11691855823E+02  0.23549464925E+02  0.38528861435E+02  0.00000000000E+00 0.  1.
         14    1    4    4    0    0 -0.37565216537E+02 -0.10005698835E+03  0.11383932507E+03  0.15614716886E+03  0.00000000000E+00 0. -1.
         -5    1    5    5    0  502  0.40016684421E+02 -0.52208165267E+02  0.37302568223E+02  0.75766741706E+02  0.47000000000E+01 0.  1.
         11    1    6    6    0    0 -0.96599347320E+01  0.35762271039E+02  0.20162669193E+01  0.37098783015E+02  0.00000000000E+00 0. -1.
        -12    1    6    6    0    0  0.35041230860E+02  0.66297755123E+02  0.92042948910E+02  0.11872314281E+03  0.00000000000E+00 0.  1.
</event>
<event>
12    1  0.8453150E-002  0.2028517E+03  0.7818608E-02  0.1147863E+00
         21   -1    0    0  501  502  0.00000000000E+00  0.00000000000E+00  0.28115137484E+03  0.28115137484E+03  0.00000000000E+00 0. -1.
         21   -1    0    0  502  503 -0.00000000000E+00 -0.00000000000E+00 -0.18520881736E+03  0.18520881736E+03  0.00000000000E+00 0. -1.
         -6    2    1    2    0  503 -0.31542174258E+02 -0.98757272502E+02 -0.61433509797E+02  0.20961899786E+03  0.17151717263E+03 0.  0.
        -24    2    3    3    0    0 -0.71153314151E+02 -0.11205036704E+03 -0.55846484130E+02  0.16720374563E+03  0.84971665249E+02 0.  0.
          6    2    1    2  501    0  0.31542174258E+02  0.98757272502E+02  0.15737606728E+03  0.25674119434E+03  0.17435855784E+03 0.  0.
         24    2    5    5    0    0  0.17528777672E+01 -0.15728743041E+02  0.83917802990E+02  0.11741188468E+03  0.80578452869E+02 0.  0.
          5    1    5    5  501    0  0.29789296491E+02  0.11448601554E+03  0.73458264287E+02  0.13932930967E+03  0.47000000000E+01 0. -1.
        -11    1    6    6    0    0  0.63882981516E+00 -0.95685861060E+01 -0.15267356718E+02  0.18029368396E+02  0.00000000000E+00 0.  1.
         12    1    6    6    0    0  0.11140479521E+01 -0.61601569349E+01  0.99185159708E+02  0.99382516282E+02  0.00000000000E+00 0. -1.
         -5    1    3    3    0  503  0.39611139894E+02  0.13293094533E+02 -0.55870256674E+01  0.42415252230E+02  0.47000000000E+01 0.  1.
         13    1    4    4    0    0  0.97513614398E+01 -0.23386835718E+02 -0.38266193379E+02  0.45894822045E+02  0.00000000000E+00 0. -1.
        -14    1    4    4    0    0 -0.80904675591E+02 -0.88663531317E+02 -0.17580290751E+02  0.12130892358E+03  0.00000000000E+00 0.  1.
</event>
<event>
12    1  0.8453150E-002  0.2429819E+03  0.7818608E-02  0.1118087E+00
         21   -1    0    0  501  502  0.00000000000E+00  0.00000000000E+00  0.98299462782E+02  0.98299462782E+02  0.00000000000E+00 0. -1.
         21   -1    0    0  502  503 -0.00000000000E+00 -0.00000000000E+00 -0.77309419685E+03  0.77309419685E+03  0.00000000000E+00 0.  1.
         -6    2    1    2    0  503 -0.15037875417E+03  0.80899857146E+02 -0.54468543178E+03  0.59576958974E+03  0.17058906141E+03 0.  0.
        -24    2    3    3    0    0 -0.11800837714E+03  0.14657840966E+01 -0.42608040849E+03  0.44932214244E+03  0.80110845644E+02 0.  0.
          6    2    1    2  501    0  0.15037875417E+03 -0.80899857146E+02 -0.13010930229E+03  0.27562406990E+03  0.17286306943E+03 0.  0.
         24    2    5    5    0    0  0.18621943711E+02 -0.71077148862E+02 -0.40728054998E+02  0.11603885734E+03  0.80046886696E+02 0.  0.
          5    1    5    5  501    0  0.13175681046E+03 -0.98227082836E+01 -0.89381247291E+02  0.15958521256E+03  0.47000000000E+01 0. -1.
        -13    1    6    6    0    0 -0.95945830005E+01  0.19492280911E+01 -0.36331341998E+02  0.37627409218E+02  0.00000000000E+00 0.  1.
         14    1    6    6    0    0  0.28216526711E+02 -0.73026376953E+02 -0.43967129999E+01  0.78411448117E+02  0.00000000000E+00 0. -1.
         -5    1    3    3    0  503 -0.32370377035E+02  0.79434073049E+02 -0.11860502329E+03  0.14644744729E+03  0.47000000000E+01 0.  1.
         11    1    4    4    0    0 -0.49268086369E+02  0.24948774345E+02 -0.90900291407E+02  0.10636093575E+03  0.00000000000E+00 0. -1.
        -12    1    4    4    0    0 -0.68740290766E+02 -0.23482990248E+02 -0.33518011709E+03  0.34296120669E+03  0.00000000000E+00 0.  1.
</event>
<event>
12    1  0.8453150E-002  0.1786195E+03  0.7818608E-02  0.1169961E+00
         21   -1    0    0  501  502  0.00000000000E+00  0.00000000000E+00  0.28297990459E+04  0.28297990459E+04  0.00000000000E+00 0.  1.
         21   -1    0    0  502  503 -0.00000000000E+00 -0.00000000000E+00 -0.29700337858E+02  0.29700337858E+02  0.00000000000E+00 0.  1.
         -6    2    1    2    0  503  0.36208836558E+02 -0.13429756098E+02  0.26273968413E+03  0.31586109831E+03  0.17101068276E+03 0.  0.
        -24    2    3    3    0    0  0.31176610898E+02  0.52009963991E+02  0.10049631790E+03  0.14078203005E+03  0.77737073850E+02 0.  0.
          6    2    1    2  501    0 -0.36208836558E+02  0.13429756098E+02  0.25373590240E+04  0.25436382855E+04  0.17439458923E+03 0.  0.
         24    2    5    5    0    0  0.28009837989E+02  0.39237506032E+02  0.19399903981E+04  0.19422553432E+04  0.80429724392E+02 0.  0.
          5    1    5    5  501    0 -0.64218674547E+02 -0.25807749934E+02  0.59736862585E+03  0.60138294228E+03  0.47000000000E+01 0. -1.
        -13    1    6    6    0    0 -0.38249459081E+01  0.41272261549E+02  0.16491449639E+04  0.16496657667E+04  0.00000000000E+00 0.  1.
         14    1    6    6    0    0  0.31834783897E+02 -0.20347555169E+01  0.29084543418E+03  0.29258957650E+03  0.00000000000E+00 0. -1.
         -5    1    3    3    0  503  0.50322256595E+01 -0.65439720089E+02  0.16224336623E+03  0.17507906827E+03  0.47000000000E+01 0.  1.
         11    1    4    4    0    0  0.43886787158E+02 -0.11103637289E+01  0.42155841138E+02  0.60863765384E+02  0.00000000000E+00 0. -1.
        -12    1    4    4    0    0 -0.12710176260E+02  0.53120327720E+02  0.58340476764E+02  0.79918264663E+02  0.00000000000E+00 0.  1.
</event>
<event>
12    1  0.8453150E-002  0.1859377E+03  0.7818608E-02  0.1162936E+00
         21   -1    0    0  501  502  0.00000000000E+00  0.00000000000E+00  0.15332938928E+04  0.15332938928E+04  0.00000000000E+00 0.  1.
         21   -1    0    0  502  503 -0.00000000000E+00 -0.00000000000E+00 -0.42225969522E+02  0.42225969522E+02  0.00000000000E+00 0.  1.
         -6    2    1    2    0  503  0.26978028300E+02 -0.59320652741E+02  0.19901769761E+03  0.27015914538E+03  0.17067854587E+03 0.  0.
        -24    2    3    3    0    0 -0.46221846979E+02 -0.17622398447E+02  0.73866187810E+02  0.11922221631E+03  0.79440009418E+02 0.  0.
          6    2    1    2  501    0 -0.26978028300E+02  0.59320652741E+02  0.12920502257E+04  0.13053607170E+04  0.17414379639E+03 0.  0.
         24    2    5    5    0    0 -0.58905447003E+02 -0.12164100648E+02  0.53911122794E+03  0.54834773532E+03  0.80165489533E+02 0.  0.
          5    1    5    5  501    0  0.31927418703E+02  0.71484753390E+02  0.75293899775E+03  0.75701298163E+03  0.47000000000E+01 0. -1.
        -13    1    6    6    0    0 -0.41335549583E+02  0.23309234806E+02  0.15244320192E+03  0.15965862926E+03  0.00000000000E+00 0.  1.
         14    1    6    6    0    0 -0.17569897419E+02 -0.35473335455E+02  0.38666802602E+03  0.38868910606E+03  0.00000000000E+00 0. -1.
         -5    1    3    3    0  503  0.73199875278E+02 -0.41698254295E+02  0.12515150980E+03  0.15093692907E+03  0.47000000000E+01 0.  1.
         11    1    4    4    0    0 -0.11004827320E+00 -0.85491662116E+01  0.71666595191E+02  0.72174796293E+02  0.00000000000E+00 0. -1.
        -12    1    4    4    0    0 -0.46111798706E+02 -0.90732322351E+01  0.21995926185E+01  0.47047420022E+02  0.00000000000E+00 0.  1.
</event>
<event>
12    1  0.8453150E-002  0.2125908E+03  0.7818608E-02  0.1139671E+00
         21   -1    0    0  503  502  0.00000000000E+00  0.00000000000E+00  0.63496880170E+03  0.63496880170E+03  0.00000000000E+00 0.  1.
         21   -1    0    0  501  503 -0.00000000000E+00 -0.00000000000E+00 -0.19522419906E+03  0.19522419906E+03  0.00000000000E+00 0.  1.
          6    2    1    2  501    0  0.94473942916E+02  0.81334774823E+02 -0.11146677101E+03  0.23940637724E+03  0.17131812787E+03 0.  0.
         24    2    3    3    0    0  0.12687182777E+03  0.93946334193E+02 -0.97767451309E+02  0.20174425126E+03  0.78866304544E+02 0.  0.
         -6    2    1    2    0  502 -0.94473942916E+02 -0.81334774823E+02  0.55121137366E+03  0.59078662352E+03  0.17220390412E+03 0.  0.
        -24    2    5    5    0    0  0.64512786933E+01 -0.77345798251E+02  0.28180658391E+03  0.30303179206E+03  0.79933251897E+02 0.  0.
          5    1    3    3  501    0 -0.32397884853E+02 -0.12611559370E+02 -0.13699319703E+02  0.37662125976E+02  0.47000000000E+01 0. -1.
        -11    1    4    4    0    0  0.23721893866E+02  0.52347413781E+02 -0.62860561278E+02  0.85172942549E+02  0.00000000000E+00 0.  1.
         12    1    4    4    0    0  0.10314993390E+03  0.41598920412E+02 -0.34906890030E+02  0.11657130871E+03  0.00000000000E+00 0. -1.
         -5    1    5    5    0  502 -0.10092522161E+03 -0.39889765724E+01  0.26940478975E+03  0.28775483146E+03  0.47000000000E+01 0.  1.
         13    1    6    6    0    0 -0.32120557581E+02 -0.41315250148E+02  0.90138146128E+02  0.10422842943E+03  0.00000000000E+00 0. -1.
        -14    1    6    6    0    0  0.38571836274E+02 -0.36030548103E+02  0.19166843778E+03  0.19880336263E+03  0.00000000000E+00 0.  1.
</event>
<event>
12    1  0.8453150E-002  0.2572167E+03  0.7818608E-02  0.1108955E+00
         21   -1    0    0  501  502  0.00000000000E+00  0.00000000000E+00  0.39196925719E+03  0.39196925719E+03  0.00000000000E+00 0. -1.
         21   -1    0    0  502  503 -0.00000000000E+00 -0.00000000000E+00 -0.35921410216E+03  0.35921410216E+03  0.00000000000E+00 0.  1.
         -6    2    1    2    0  503 -0.33621808875E+02  0.18788272579E+03 -0.25749335059E+03  0.36336297428E+03  0.17117091107E+03 0.  0.
        -24    2    3    3    0    0 -0.38091944129E+02  0.21310185896E+03 -0.23440752656E+03  0.32856308839E+03  0.78379946682E+02 0.  0.
          6    2    1    2  501    0  0.33621808875E+02 -0.18788272579E+03  0.29024850562E+03  0.38782038507E+03  0.17242421923E+03 0.  0.
         24    2    5    5    0    0 -0.23420290827E+02 -0.35075934156E+02  0.71565151143E+02  0.11496838080E+03  0.79481611369E+02 0.  0.
          5    1    5    5  501    0  0.57042099702E+02 -0.15280679163E+03  0.21868335448E+03  0.27285200427E+03  0.47000000000E+01 0. -1.
        -13    1    6    6    0    0 -0.16203345850E+02 -0.48669122453E+02  0.10978031150E+02  0.52457116438E+02  0.00000000000E+00 0.  1.
         14    1    6    6    0    0 -0.72169449771E+01  0.13593188296E+02  0.60587119993E+02  0.62511264360E+02  0.00000000000E+00 0. -1.
         -5    1    3    3    0  503  0.44701352543E+01 -0.25219133171E+02 -0.23085824024E+02  0.34799885890E+02  0.47000000000E+01 0.  1.
         13    1    4    4    0    0 -0.67647528467E+01  0.36389134013E+00 -0.33841139192E+02  0.34512562928E+02  0.00000000000E+00 0. -1.
        -14    1    4    4    0    0 -0.31327191283E+02  0.21273796762E+03 -0.20056638737E+03  0.29405052546E+03  0.00000000000E+00 0.  1.
</event>
<event>
12    1  0.8453150E-002  0.2204882E+03  0.7818608E-02  0.1133688E+00
         21   -1    0    0  503  502  0.00000000000E+00  0.00000000000E+00  0.41462243998E+03  0.41462243998E+03  0.00000000000E+00 0.  1.
         21   -1    0    0  501  503 -0.00000000000E+00 -0.00000000000E+00 -0.13817705107E+03  0.13817705107E+03  0.00000000000E+00 0.  1.
          6    2    1    2  501    0 -0.86279528784E+02 -0.10658683908E+03  0.29189060891E+02  0.22151299929E+03  0.17149663619E+03 0.  0.
         24    2    3    3    0    0 -0.62588700161E+02 -0.11439531631E+03  0.71545742314E+02  0.17213277917E+03  0.86644484180E+02 0.  0.
         -6    2    1    2    0  502  0.86279528784E+02  0.10658683908E+03  0.24725632803E+03  0.33128649176E+03  0.17265612217E+03 0.  0.
        -24    2    5    5    0    0 -0.22376473912E+02  0.37557048048E+02  0.10616773061E+03  0.14023853628E+03  0.80523422640E+02 0.  0.
          5    1    3    3  501    0 -0.23690828624E+02  0.78084772340E+01 -0.42356681423E+02  0.49380220117E+02  0.47000000000E+01 0. -1.
        -13    1    4    4    0    0 -0.81302442281E+02 -0.73405063525E+02  0.62699601663E+02  0.12621264010E+03  0.00000000000E+00 0.  1.
         14    1    4    4    0    0  0.18713742120E+02 -0.40990252790E+02  0.88461406505E+01  0.45920139071E+02  0.00000000000E+00 0. -1.
         -5    1    5    5    0  502  0.10865600270E+03  0.69029791033E+02  0.14108859742E+03  0.19104795548E+03  0.47000000000E+01 0.  1.
         13    1    6    6    0    0  0.13541118514E+02 -0.19057698738E+02  0.18171512434E+02  0.29610161026E+02  0.00000000000E+00 0. -1.
        -14    1    6    6    0    0 -0.35917592426E+02  0.56614746786E+02  0.87996218172E+02  0.11062837526E+03  0.00000000000E+00 0.  1.
</event>
<event>
12    1  0.8453150E-002  0.2012914E+03  0.7818608E-02  0.1148743E+00
         21   -1    0    0  503  502  0.00000000000E+00  0.00000000000E+00  0.37564289444E+03  0.37564289444E+03  0.00000000000E+00 0.  1.
         21   -1    0    0  501  503 -0.00000000000E+00 -0.00000000000E+00 -0.14797553684E+03  0.14797553684E+03  0.00000000000E+00 0.  1.
          6    2    1    2  501    0  0.76703904182E+02 -0.71229502917E+02  0.25061699922E+03  0.32144535388E+03  0.17193342965E+03 0.  0.
         24    2    3    3    0    0 -0.16200759880E+02 -0.14675556520E+02  0.15958961128E+03  0.17953798687E+03  0.79291917112E+02 0.  0.
         -6    2    1    2    0  502 -0.76703904182E+02  0.71229502917E+02 -0.22949641625E+02  0.20217307739E+03  0.17143551607E+03 0.  0.
        -24    2    5    5    0    0 -0.11543050241E+03  0.71823572748E+02 -0.35655615671E+02  0.16114096673E+03  0.78817902416E+02 0.  0.
          5    1    3    3  501    0  0.92904664062E+02 -0.56553946397E+02  0.91027387939E+02  0.14190736701E+03  0.47000000000E+01 0. -1.
        -13    1    4    4    0    0  0.70625583807E+01 -0.29892951025E+02  0.14485531338E+03  0.14807609553E+03  0.00000000000E+00 0.  1.
         14    1    4    4    0    0 -0.23263318261E+02  0.15217394506E+02  0.14734297901E+02  0.31461891340E+02  0.00000000000E+00 0. -1.
         -5    1    5    5    0  502  0.38726598225E+02 -0.59406983146E+00  0.12705974046E+02  0.41032110664E+02  0.47000000000E+01 0.  1.
         13    1    6    6    0    0 -0.58900142557E+02  0.53864575764E+02  0.17251304896E+02  0.81659211582E+02  0.00000000000E+00 0. -1.
        -14    1    6    6    0    0 -0.56530359850E+02  0.17958996984E+02 -0.52906920567E+02  0.79481755147E+02  0.00000000000E+00 0.  1.
</event>
<event>
12    1  0.8453150E-002  0.1824356E+03  0.7818608E-02  0.1165557E+00
         21   -1    0    0  501  502  0.00000000000E+00  0.00000000000E+00  0.54505219586E+03  0.54505219586E+03  0.00000000000E+00 0. -1.
         21   -1    0    0  502  503 -0.00000000000E+00 -0.00000000000E+00 -0.92717978236E+02  0.92717978236E+02  0.00000000000E+00 0.  1.
         -6    2    1    2    0  503  0.58567729629E+02 -0.10919366338E+02  0.41271117657E+03  0.45108133747E+03  0.17203036428E+03 0.  0.
        -24    2    3    3    0    0  0.10553291354E+03 -0.79978337935E+01  0.28087672171E+03  0.31102178820E+03  0.81496372635E+02 0.  0.
          6    2    1    2  501    0 -0.58567729629E+02  0.10919366338E+02  0.39623041055E+02  0.18668883663E+03  0.17243353741E+03 0.  0.
         24    2    5    5    0    0 -0.52378351051E+02  0.13309653382E+02  0.92636471165E+02  0.13305549204E+03  0.78750299306E+02 0.  0.
          5    1    5    5  501    0 -0.61893785770E+01 -0.23902870439E+01 -0.53013430110E+02  0.53633344584E+02  0.47000000000E+01 0. -1.
        -11    1    6    6    0    0 -0.52327691971E+01  0.32915312083E+02  0.81050986471E+01  0.34300033048E+02  0.00000000000E+00 0.  1.
         12    1    6    6    0    0 -0.47145581854E+02 -0.19605658701E+02  0.84531372518E+02  0.98755458995E+02  0.00000000000E+00 0. -1.
         -5    1    3    3    0  503 -0.46965183915E+02 -0.29215325442E+01  0.13183445486E+03  0.14005954927E+03  0.47000000000E+01 0.  1.
         13    1    4    4    0    0  0.27904843929E+02  0.32364912537E+02  0.61955082011E+02  0.75263537421E+02  0.00000000000E+00 0. -1.
        -14    1    4    4    0    0  0.77628069615E+02 -0.40362746331E+02  0.21892163970E+03  0.23575825078E+03  0.00000000000E+00 0.  1.
</event>
<event>
12    1  0.8453150E-002  0.2077376E+03  0.7818608E-02  0.1143985E+00
         21   -1    0    0  501  502  0.00000000000E+00  0.00000000000E+00  0.42360985512E+02  0.42360985512E+02  0.00000000000E+00 0.  1.
         21   -1    0    0  502  503 -0.00000000000E+00 -0.00000000000E+00 -0.11083648226E+04  0.11083648226E+04  0.00000000000E+00 0. -1.
         -6    2    1    2    0  503 -0.10595761664E+03  0.49781390994E+02 -0.70607887822E+03  0.73515284843E+03  0.16791999544E+03 0.  0.
        -24    2    3    3    0    0 -0.36380479843E+02 -0.12298894774E+02 -0.51252960599E+03  0.52026136272E+03  0.80687585191E+02 0.  0.
          6    2    1    2  501    0  0.10595761664E+03 -0.49781390994E+02 -0.35992495891E+03  0.41557295972E+03  0.17160916466E+03 0.  0.
         24    2    5    5    0    0 -0.56928040187E+01 -0.53975281225E+02 -0.12238473031E+03  0.15302609657E+03  0.74116293873E+02 0.  0.
          5    1    5    5  501    0  0.11165042066E+03  0.41938902304E+01 -0.23754022860E+03  0.26254686315E+03  0.47000000000E+01 0. -1.
        -13    1    6    6    0    0  0.22996187763E+02  0.67337357055E+01 -0.41306576100E+02  0.47753545180E+02  0.00000000000E+00 0.  1.
         14    1    6    6    0    0 -0.28688991781E+02 -0.60709016930E+02 -0.81078154211E+02  0.10527255139E+03  0.00000000000E+00 0. -1.
         -5    1    3    3    0  503 -0.69577136801E+02  0.62080285769E+02 -0.19354927224E+03  0.21489148571E+03  0.47000000000E+01 0.  1.
         11    1    4    4    0    0 -0.34312077705E+02  0.16801891221E+02 -0.10579886501E+03  0.11248565269E+03  0.00000000000E+00 0. -1.
        -12    1    4    4    0    0 -0.20684021382E+01 -0.29100785995E+02 -0.40673074098E+03  0.40777571003E+03  0.00000000000E+00 0.  1.
</event>
<event>
12    1  0.8453150E-002  0.2302209E+03  0.7818608E-02  0.1126571E+00
         21   -1    0    0  501  502  0.00000000000E+00  0.00000000000E+00  0.19924116810E+03  0.19924116810E+03  0.00000000000E+00 0. -1.
         21   -1    0    0  502  503 -0.00000000000E+00 -0.00000000000E+00 -0.29781731532E+03  0.29781731532E+03  0.00000000000E+00 0. -1.
         -6    2    1    2    0  503  0.13471834280E+03 -0.72422773867E+02  0.32595442308E+02  0.23251688752E+03  0.17206844587E+03 0.  0.
        -24    2    3    3    0    0  0.14791632143E+03 -0.85634491934E+02  0.62525489267E+02  0.19692708779E+03  0.75221916627E+02 0.  0.
          6    2    1    2  501    0 -0.13471834280E+03  0.72422773867E+02 -0.13117158952E+03  0.26454159590E+03  0.17141230994E+03 0.  0.
         24    2    5    5    0    0 -0.70090250267E+02  0.10616572328E+03 -0.58249458240E+02  0.16131803168E+03  0.80291369259E+02 0.  0.
          5    1    5    5  501    0 -0.64628092531E+02 -0.33742949411E+02 -0.72922131282E+02  0.10322356422E+03  0.47000000000E+01 0. -1.
        -11    1    6    6    0    0 -0.73031429394E+02  0.52336216710E+02 -0.12698956191E+02  0.90741020201E+02  0.00000000000E+00 0.  1.
         12    1    6    6    0    0  0.29411791271E+01  0.53829506569E+02 -0.45550502049E+02  0.70577011477E+02  0.00000000000E+00 0. -1.
         -5    1    3    3    0  503 -0.13197978636E+02  0.13211718068E+02 -0.29930046959E+02  0.35589799737E+02  0.47000000000E+01 0.  1.
         11    1    4    4    0    0  0.13240806712E+03 -0.96268041624E+02  0.41830176694E+02  0.16896507260E+03  0.00000000000E+00 0. -1.
        -12    1    4    4    0    0  0.15508254318E+02  0.10633549690E+02  0.20695312573E+02  0.27962015190E+02  0.00000000000E+00 0.  1.
</event>
<event>
12    1  0.8453150E-002  0.1863484E+03  0.7818608E-02  0.1162013E+00
         21   -1    0    0  501  502  0.00000000000E+00  0.00000000000E+00  0.12219364993E+03  0.12219364993E+03  0.00000000000E+00 0. -1.
         21   -1    0    0  502  503 -0.00000000000E+00 -0.00000000000E+00 -0.44494023870E+03  0.44494023870E+03  0.00000000000E+00 0.  1.
         -6    2    1    2    0  503 -0.18000970307E+02 -0.67182377937E+02 -0.33231332794E+03  0.38054008156E+03  0.17187524230E+03 0.  0.
        -24    2    3    3    0    0  0.20960695569E+02 -0.67756926188E+02 -0.32288552040E+03  0.34017530647E+03  0.80211146613E+02 0.  0.
          6    2    1    2  501    0  0.18000970307E+02  0.67182377937E+02  0.95667391616E+01  0.18659380707E+03  0.17288209711E+03 0.  0.
         24    2    5    5    0    0 -0.53510406782E+02  0.51489153635E+02  0.24645601894E+02  0.11169643433E+03  0.79713180677E+02 0.  0.
          5    1    5    5  501    0  0.71511377088E+02  0.15693224302E+02 -0.15078862733E+02  0.74897372740E+02  0.47000000000E+01 0. -1.
        -11    1    6    6    0    0 -0.40586633555E+02  0.71119589370E+02  0.30658201102E+02  0.87436812101E+02  0.00000000000E+00 0.  1.
         12    1    6    6    0    0 -0.12923773226E+02 -0.19630435735E+02 -0.60125992075E+01  0.24259622231E+02  0.00000000000E+00 0. -1.
         -5    1    3    3    0  503 -0.38961665876E+02  0.57454825077E+00 -0.94278075356E+01  0.40364775095E+02  0.47000000000E+01 0.  1.
         13    1    4    4    0    0  0.63660356555E+01  0.97915216053E+00  0.27799434162E+01  0.70152144884E+01  0.00000000000E+00 0. -1.
        -14    1    4    4    0    0  0.14594659914E+02 -0.68736078349E+02 -0.32566546382E+03  0.33316009198E+03  0.00000000000E+00 0.  1.
</event>
<event>
12    1  0.8453150E-002  0.2578964E+03  0.7818608E-02  0.1108617E+00
         21   -1    0    0  501  502  0.00000000000E+00  0.00000000000E+00  0.73424981997E+03  0.73424981997E+03  0.00000000000E+00 0.  1.
         21   -1    0    0  502  503 -0.00000000000E+00 -0.00000000000E+00 -0.91619036291E+02  0.91619036291E+02  0.00000000000E+00 0. -1.
         -6    2    1    2    0  503 -0.25707118099E+02 -0.18839331988E+03  0.26759927896E+03  0.37072144107E+03  0.17225595454E+03 0.  0.
        -24    2    3    3    0    0  0.29941006369E+02 -0.13636091832E+03  0.11033931282E+03  0.19591620225E+03  0.81961152035E+02 0.  0.
          6    2    1    2  501    0  0.25707118099E+02  0.18839331988E+03  0.37503150472E+03  0.45514741520E+03  0.17423444300E+03 0.  0.
         24    2    5    5    0    0  0.53075216392E+02  0.10168941863E+03  0.31896510964E+03  0.34822636977E+03  0.79781871269E+02 0.  0.
          5    1    5    5  501    0 -0.27368098292E+02  0.86703901251E+02  0.56066395084E+02  0.10692104542E+03  0.47000000000E+01 0. -1.
        -11    1    6    6    0    0 -0.95854542765E+01  0.38247024183E+01  0.98235537310E+02  0.98776161460E+02  0.00000000000E+00 0.  1.
         12    1    6    6    0    0  0.62660670668E+02  0.97864716207E+02  0.22072957233E+03  0.24945020831E+03  0.00000000000E+00 0. -1.
         -5    1    3    3    0  503 -0.55648124468E+02 -0.52032401559E+02  0.15725996614E+03  0.17480523882E+03  0.47000000000E+01 0.  1.
         13    1    4    4    0    0  0.31813268539E+02 -0.10312166662E+03  0.34838874307E+02  0.11340154031E+03  0.00000000000E+00 0. -1.
        -14    1    4    4    0    0 -0.18722621704E+01 -0.33239251694E+02  0.75500438509E+02  0.82514661933E+02  0.00000000000E+00 0.  1.
</event>
<event>
12    1  0.8453150E-002  0.1867685E+03  0.7818608E-02  0.1161725E+00
         21   -1    0    0  501  502  0.00000000000E+00  0.00000000000E+00  0.76736240788E+03  0.76736240788E+03  0.00000000000E+00 0. -1.
         21   -1    0    0  502  503 -0.00000000000E+00 -0.00000000000E+00 -0.47018491175E+02  0.47018491175E+02  0.00000000000E+00 0. -1.
         -6    2    1    2    0  503  0.55505082155E+02 -0.40310024584E+02  0.27721304745E+03  0.33349896721E+03  0.17224626332E+03 0.  0.
        -24    2    3    3    0    0  0.16257944865E+02 -0.47335112743E+01  0.38860167106E+02  0.89285512107E+02  0.78581570260E+02 0.  0.
          6    2    1    2  501    0 -0.55505082155E+02  0.40310024584E+02  0.44313086926E+03  0.48088193185E+03  0.17371457297E+03 0.  0.
         24    2    5    5    0    0 -0.59082329924E+02 -0.38767721023E+02  0.27473875558E+03  0.29475272806E+03  0.80025801971E+02 0.  0.
          5    1    5    5  501    0  0.35772477693E+01  0.79077745608E+02  0.16839211368E+03  0.18612920378E+03  0.47000000000E+01 0. -1.
        -13    1    6    6    0    0 -0.27311042344E+01 -0.39431162631E+02  0.53914903128E+02  0.66851269966E+02  0.00000000000E+00 0.  1.
         14    1    6    6    0    0 -0.56351225690E+02  0.66344160794E+00  0.22082385245E+03  0.22790145810E+03  0.00000000000E+00 0. -1.
         -5    1    3    3    0  503  0.39247137290E+02 -0.35576513310E+02  0.23835288034E+03  0.24421345510E+03  0.47000000000E+01 0.  1.
         11    1    4    4    0    0  0.42584910369E+02  0.10331801625E+02  0.39428239651E+02  0.58947491872E+02  0.00000000000E+00 0. -1.
        -12    1    4    4    0    0 -0.26326965504E+02 -0.15065312899E+02 -0.56807254539E+00  0.30338020236E+02  0.00000000000E+00 0.  1.
</event>
<event>
12    1  0.8453150E-002  0.2302991E+03  0.7818608E-02  0.1126469E+00
         21   -1    0    0  503  502  0.00000000000E+00  0.00000000000E+00  0.23430975384E+03  0.23430975384E+03  0.00000000000E+00 0.  1.
         21   -1    0    0  501  503 -0.00000000000E+00 -0.00000000000E+00 -0.26993962310E+03  0.26993962310E+03  0.00000000000E+00 0. -1.
          6    2    1    2  501    0 -0.14956698291E+03 -0.29833532069E+02 -0.11938881838E+03  0.25940581200E+03  0.17256118722E+03 0.  0.
         24    2    3    3    0    0 -0.10130866796E+03 -0.84221070679E+02 -0.61395373274E+02  0.16628116976E+03  0.80767571506E+02 0.  0.
         -6    2    1    2    0  502  0.14956698291E+03  0.29833532069E+02  0.83758949116E+02  0.24484356493E+03  0.17225703967E+03 0.  0.
        -24    2    5    5    0    0  0.18631637166E+02  0.25574958655E+02  0.46146898075E+02  0.10846557332E+03  0.92919470398E+02 0.  0.
          5    1    3    3  501    0 -0.48258314952E+02  0.54387538610E+02 -0.57993445103E+02  0.93124642244E+02  0.47000000000E+01 0. -1.
        -11    1    4    4    0    0  0.13636104733E+02 -0.13573335626E+02 -0.11594021370E+02  0.22463306164E+02  0.00000000000E+00 0.  1.
         12    1    4    4    0    0 -0.11494477269E+03 -0.70647735052E+02 -0.49801351904E+02  0.14381786360E+03  0.00000000000E+00 0. -1.
         -5    1    5    5    0  502  0.13093534575E+03  0.42585734134E+01  0.37612051041E+02  0.13637799162E+03  0.47000000000E+01 0.  1.
         13    1    6    6    0    0  0.18437191501E+02  0.88666942149E+01 -0.26750886688E+02  0.33677265853E+02  0.00000000000E+00 0. -1.
        -14    1    6    6    0    0  0.19444566549E+00  0.16708264440E+02  0.72897784764E+02  0.74788307463E+02  0.00000000000E+00 0.  1.
</event>
<event>
12    1  0.8453150E-002  0.3424606E+03  0.7818608E-02  0.1065762E+00
         21   -1    0    0  503  502  0.00000000000E+00  0.00000000000E+00  0.13471166535E+04  0.13471166535E+04  0.00000000000E+00 0. -1.
         21   -1    0    0  501  503 -0.00000000000E+00 -0.00000000000E+00 -0.87852781692E+02  0.87852781692E+02  0.00000000000E+00 0. -1.
          6    2    1    2  501    0 -0.28332628312E+03  0.84520078653E+02  0.69867658405E+03  0.77805440972E+03  0.17263333682E+03 0.  0.
         24    2    3    3    0    0 -0.10963939054E+03  0.43230824684E+02  0.17040695821E+03  0.22041399984E+03  0.75193748128E+02 0.  0.
         -6    2    1    2    0  502  0.28332628312E+03 -0.84520078653E+02  0.56058728771E+03  0.65691502542E+03  0.17280572063E+03 0.  0.
        -24    2    5    5    0    0  0.25876502495E+03 -0.86431305918E+02  0.56369062265E+03  0.63164391780E+03  0.82445206302E+02 0.  0.
          5    1    3    3  501    0 -0.17368689258E+03  0.41289253969E+02  0.52826962584E+03  0.55764040988E+03  0.47000000000E+01 0. -1.
        -13    1    4    4    0    0  0.30703963080E+01 -0.88785792038E+01 -0.20774477150E+00  0.93967898804E+01  0.00000000000E+00 0.  1.
         14    1    4    4    0    0 -0.11270978685E+03  0.52109403888E+02  0.17061470299E+03  0.21101720996E+03  0.00000000000E+00 0. -1.
         -5    1    5    5    0  502  0.24561258177E+02  0.19112272651E+01 -0.31033349456E+01  0.25271107626E+02  0.47000000000E+01 0.  1.
         13    1    6    6    0    0  0.12494502638E+03 -0.66765676628E+02  0.21334654070E+03  0.25609697698E+03  0.00000000000E+00 0. -1.
        -14    1    6    6    0    0  0.13381999857E+03 -0.19665629290E+02  0.35034408196E+03  0.37554694081E+03  0.00000000000E+00 0.  1.
</event>
<event>
12    1  0.8453150E-002  0.1830613E+03  0.7818608E-02  0.1164919E+00
         21   -1    0    0  503  502  0.00000000000E+00  0.00000000000E+00  0.21504137888E+03  0.21504137888E+03  0.00000000000E+00 0.  1.
         21   -1    0    0  501  503 -0.00000000000E+00 -0.00000000000E+00 -0.19926323932E+03  0.19926323932E+03  0.00000000000E+00 0.  1.
          6    2    1    2  501    0  0.49003868446E+02  0.40812610890E+02 -0.88998938392E+02  0.20354917505E+03  0.17159372745E+03 0.  0.
         24    2    3    3    0    0  0.95148223284E+02  0.51117526679E+02 -0.57617350095E+02  0.14660721463E+03  0.80670505278E+02 0.  0.
         -6    2    1    2    0  502 -0.49003868446E+02 -0.40812610890E+02  0.10477707795E+03  0.21075544315E+03  0.17138428289E+03 0.  0.
        -24    2    5    5    0    0 -0.94311168554E+02 -0.42817481644E+02  0.51894123837E+02  0.14093089313E+03  0.80253244800E+02 0.  0.
          5    1    3    3  501    0 -0.46144354838E+02 -0.10304915789E+02 -0.31381588297E+02  0.56941960423E+02  0.47000000000E+01 0. -1.
        -11    1    4    4    0    0  0.13536256697E+02  0.43334110640E+02  0.16762691571E+01  0.45430004057E+02  0.00000000000E+00 0.  1.
         12    1    4    4    0    0  0.81611966586E+02  0.77834160391E+01 -0.59293619252E+02  0.10117721057E+03  0.00000000000E+00 0. -1.
         -5    1    5    5    0  502  0.45307300108E+02  0.20048707537E+01  0.52882954111E+02  0.69824550019E+02  0.47000000000E+01 0.  1.
         11    1    6    6    0    0 -0.70212717882E+02 -0.90093083218E+01 -0.44664794724E+01  0.70929139482E+02  0.00000000000E+00 0. -1.
        -12    1    6    6    0    0 -0.24098450673E+02 -0.33808173322E+02  0.56360603310E+02  0.70001753647E+02  0.00000000000E+00 0.  1.
</event>
<event>
12    1  0.8453150E-002  0.1905797E+03  0.7818608E-02  0.1158251E+00
         21   -1    0    0  503  502  0.00000000000E+00  0.00000000000E+00  0.76262492561E+03  0.76262492561E+03  0.00000000000E+00 0. -1.
         21   -1    0    0  501  503 -0.00000000000E+00 -0.00000000000E+00 -0.56532471087E+02  0.56532471087E+02  0.00000000000E+00 0. -1.
          6    2    1    2  501    0 -0.72548617173E+02  0.28817654625E+02  0.18628365158E+03  0.26551327343E+03  0.17234250912E+03 0.  0.
         24    2    3    3    0    0 -0.39166816239E+02  0.15258677573E+02  0.82667753590E+01  0.83825935646E+02  0.72052627826E+02 0.  0.
         -6    2    1    2    0  502  0.72548617173E+02 -0.28817654625E+02  0.51980880295E+03  0.55364412327E+03  0.17385874881E+03 0.  0.
        -24    2    5    5    0    0  0.10390042767E+03  0.19574887310E+02  0.35804720556E+03  0.38184866778E+03  0.80200552332E+02 0.  0.
          5    1    3    3  501    0 -0.33381800933E+02  0.13558977052E+02  0.17801687622E+03  0.18168733778E+03  0.47000000000E+01 0. -1.
        -13    1    4    4    0    0 -0.49917321986E+02 -0.82858614942E+01 -0.10723016623E+02  0.51724052630E+02  0.00000000000E+00 0.  1.
         14    1    4    4    0    0  0.10750505747E+02  0.23544539067E+02  0.18989791982E+02  0.32101883016E+02  0.00000000000E+00 0. -1.
         -5    1    5    5    0  502 -0.31351810498E+02 -0.48392541935E+02  0.16176159738E+03  0.17179545548E+03  0.47000000000E+01 0.  1.
         13    1    6    6    0    0  0.49386353442E+02  0.34269744296E+02  0.27455460765E+03  0.28105810763E+03  0.00000000000E+00 0. -1.
        -14    1    6    6    0    0  0.54514074229E+02 -0.14694856986E+02  0.83492597910E+02  0.10079056016E+03  0.00000000000E+00 0.  1.
</event>
<event>
12    1  0.8453150E-002  0.1823829E+03  0.7818608E-02  0.1165528E+00
         21   -1    0    0  501  502  0.00000000000E+00  0.00000000000E+00  0.97275193278E+02  0.97275193278E+02  0.00000000000E+00 0. -1.
         21   -1    0    0  502  503 -0.00000000000E+00 -0.00000000000E+00 -0.34967866037E+03  0.34967866037E+03  0.00000000000E+00 0. -1.
         -6    2    1    2    0  503  0.55309759611E+02  0.24106476816E+02 -0.92780211845E+02  0.20458405323E+03  0.17206445127E+03 0.  0.
        -24    2    3    3    0    0  0.93600184973E+02  0.42511847201E+02 -0.38640206650E+02  0.13560474839E+03  0.79544518579E+02 0.  0.
          6    2    1    2  501    0 -0.55309759611E+02 -0.24106476816E+02 -0.15962325525E+03  0.24236980042E+03  0.17211404593E+03 0.  0.
         24    2    5    5    0    0  0.19377327352E+02  0.30022975355E+02 -0.95393600062E+02  0.12987225753E+03  0.80560564043E+02 0.  0.
          5    1    5    5  501    0 -0.74687086963E+02 -0.54129452171E+02 -0.64229655186E+02  0.11249754289E+03  0.47000000000E+01 0. -1.
        -11    1    6    6    0    0  0.17332043961E+02  0.28553885622E+02 -0.11004669921E+03  0.11500434835E+03  0.00000000000E+00 0.  1.
         12    1    6    6    0    0  0.20452833906E+01  0.14690897326E+01  0.14653099149E+02  0.14867909182E+02  0.00000000000E+00 0. -1.
         -5    1    3    3    0  503 -0.38290425363E+02 -0.18405370385E+02 -0.54140005195E+02  0.68979304838E+02  0.47000000000E+01 0.  1.
         11    1    4    4    0    0  0.82708432496E+02  0.14863816382E+02 -0.56194294082E+02  0.10109112983E+03  0.00000000000E+00 0. -1.
        -12    1    4    4    0    0  0.10891752477E+02  0.27648030819E+02  0.17554087432E+02  0.34513618555E+02  0.00000000000E+00 0.  1.
</event>
<event>
12    1  0.8453150E-002  0.1861615E+03  0.7818608E-02  0.1162801E+00
         21   -1    0    0  503  502  0.00000000000E+00  0.00000000000E+00  0.11393067803E+03  0.11393067803E+03  0.00000000000E+00 0.  1.
         21   -1    0    0  501  503 -0.00000000000E+00 -0.00000000000E+00 -0.34356829056E+03  0.34356829056E+03  0.00000000000E+00 0.  1.
          6    2    1    2  501    0  0.14817745781E+02 -0.60134279627E+02 -0.19678795162E+03  0.26846143321E+03  0.17178575622E+03 0.  0.
         24    2    3    3    0    0  0.68212104740E+02 -0.19856820423E+02 -0.16406383532E+03  0.19385453623E+03  0.74936337026E+02 0.  0.
         -6    2    1    2    0  502 -0.14817745781E+02  0.60134279627E+02 -0.32849660909E+02  0.18903753538E+03  0.17555737633E+03 0.  0.
        -24    2    5    5    0    0  0.13841910927E+02  0.89518831342E+02  0.19999361484E+02  0.12195596585E+03  0.79171102585E+02 0.  0.
          5    1    3    3  501    0 -0.53394358959E+02 -0.40277459204E+02 -0.32724116297E+02  0.74606896973E+02  0.47000000000E+01 0. -1.
        -11    1    4    4    0    0  0.66206305909E+02 -0.29473672069E+02 -0.16823627614E+03  0.18318137705E+03  0.00000000000E+00 0.  1.
         12    1    4    4    0    0  0.20057988313E+01  0.96168516455E+01  0.41724408213E+01  0.10673159182E+02  0.00000000000E+00 0. -1.
         -5    1    5    5    0  502 -0.28659656709E+02 -0.29384551715E+02 -0.52849022393E+02  0.67081569526E+02  0.47000000000E+01 0.  1.
         13    1    6    6    0    0  0.26269198406E+02  0.24712516443E+01 -0.11187394490E+02  0.28658954361E+02  0.00000000000E+00 0. -1.
        -14    1    6    6    0    0 -0.12427287478E+02  0.87047579698E+02  0.31186755974E+02  0.93297011493E+02  0.00000000000E+00 0.  1.
</event>
<event>
12    1  0.8453150E-002  0.1987055E+03  0.7818608E-02  0.1150855E+00
         21   -1    0    0  503  502  0.00000000000E+00  0.00000000000E+00  0.13496598863E+02  0.13496598863E+02  0.00000000000E+00 0.  1.
         21   -1    0    0  501  503 -0.00000000000E+00 -0.00000000000E+00 -0.29272138293E+04  0.29272138293E+04  0.00000000000E+00 0.  1.
          6    2    1    2  501    0 -0.44109432674E+02  0.88916775177E+02 -0.15042076475E+04  0.15172635041E+04  0.17203505189E+03 0.  0.
         24    2    3    3    0    0  0.31127008982E+02  0.87709555311E+02 -0.75940403693E+03  0.76865380081E+03  0.73975113399E+02 0.  0.
         -6    2    1    2    0  502  0.44109432674E+02 -0.88916775177E+02 -0.14095095830E+04  0.14234469241E+04  0.17213961284E+03 0.  0.
        -24    2    5    5    0    0  0.51018516587E+02  0.14167719858E+02 -0.76263836374E+03  0.76836020250E+03  0.77178453079E+02 0.  0.
          5    1    3    3  501    0 -0.75236441656E+02  0.12072198656E+01 -0.74480361057E+03  0.74860970328E+03  0.47000000000E+01 0. -1.
        -13    1    4    4    0    0  0.21930389442E+02  0.16264010061E+02 -0.45595870686E+03  0.45677543976E+03  0.00000000000E+00 0.  1.
         14    1    4    4    0    0  0.91966195405E+01  0.71445545251E+02 -0.30344533007E+03  0.31187836105E+03  0.00000000000E+00 0. -1.
         -5    1    5    5    0  502 -0.69090839127E+01 -0.10308449503E+03 -0.64687121923E+03  0.65508672161E+03  0.47000000000E+01 0.  1.
         13    1    6    6    0    0  0.27980114239E+02  0.29852742734E+02 -0.67836262081E+03  0.67959540784E+03  0.00000000000E+00 0. -1.
        -14    1    6    6    0    0  0.23038402348E+02 -0.15685022876E+02 -0.84275742932E+02  0.88764794666E+02  0.00000000000E+00 0.  1.
</event>
<event>
12    1  0.8453150E-002  0.1933096E+03  0.7818608E-02  0.1155540E+00
         21   -1    0    0  501  502  0.00000000000E+00  0.00000000000E+00  0.14599795383E+04  0.14599795383E+04  0.00000000000E+00 0.  1.
         21   -1    0    0  502  503 -0.00000000000E+00 -0.00000000000E+00 -0.25647708768E+02  0.25647708768E+02  0.00000000000E+00 0. -1.
         -6    2    1    2    0  503  0.51968608991E+01 -0.88397781691E+02  0.67792461704E+03  0.70490933794E+03  0.17168055557E+03 0.  0.
        -24    2    3    3    0    0  0.10741476461E+02  0.13213428617E+02  0.19583797230E+03  0.21217695231E+03  0.79853451284E+02 0.  0.
          6    2    1    2  501    0 -0.51968608991E+01  0.88397781691E+02  0.75640721248E+03  0.78071790911E+03  0.17183540772E+03 0.  0.
         24    2    5    5    0    0  0.45969342190E+02  0.48303352870E+02  0.63085850010E+03  0.63926080345E+03  0.78902049168E+02 0.  0.
          5    1    5    5  501    0 -0.51166203089E+02  0.40094428821E+02  0.12554871238E+03  0.14145710566E+03  0.47000000000E+01 0. -1.
        -13    1    6    6    0    0  0.60875994434E+02  0.13435190254E+02  0.31296948370E+03  0.31911798564E+03  0.00000000000E+00 0.  1.
         14    1    6    6    0    0 -0.14906652244E+02  0.34868162616E+02  0.31788901640E+03  0.32014281781E+03  0.00000000000E+00 0. -1.
         -5    1    3    3    0  503 -0.55446155619E+01 -0.10161121031E+03  0.48208664474E+03  0.49273238564E+03  0.47000000000E+01 0.  1.
         13    1    4    4    0    0  0.23130899202E+02 -0.28952385279E+02  0.76481567243E+02  0.84986523868E+02  0.00000000000E+00 0. -1.
        -14    1    4    4    0    0 -0.12389422741E+02  0.42165813896E+02  0.11935640506E+03  0.12719042844E+03  0.00000000000E+00 0.  1.
</event>
<event>
12    1  0.8453150E-002  0.2345376E+03  0.7818608E-02  0.1123999E+00
         21   -1    0    0  501  502  0.00000000000E+00  0.00000000000E+00  0.52582487694E+02  0.52582487694E+02  0.00000000000E+00 0.  1.
         21   -1    0    0  502  503 -0.00000000000E+00 -0.00000000000E+00 -0.10383951574E+04  0.10383951574E+04  0.00000000000E+00 0. -1.
         -6    2    1    2    0  503  0.26849322420E+02  0.15541478252E+03 -0.45015901428E+03  0.50622749598E+03  0.16955382274E+03 0.  0.
        -24    2    3    3    0    0 -0.40255855686E+02  0.56426660699E+02 -0.26545987077E+03  0.28614201985E+03  0.81263833150E+02 0.  0.
          6    2    1    2  501    0 -0.26849322420E+02 -0.15541478252E+03 -0.53565365543E+03  0.58475014912E+03  0.17358933602E+03 0.  0.
         24    2    5    5    0    0 -0.28062521310E+02 -0.17827361514E+03 -0.38861591732E+03  0.43586702546E+03  0.79929629913E+02 0.  0.
          5    1    5    5  501    0  0.12131988897E+01  0.22858832616E+02 -0.14703773812E+03  0.14888312366E+03  0.47000000000E+01 0. -1.
        -11    1    6    6    0    0  0.14368213748E+02 -0.11947039135E+03 -0.28535362689E+03  0.30968744300E+03  0.00000000000E+00 0.  1.
         12    1    6    6    0    0 -0.42430735058E+02 -0.58803223786E+02 -0.10326229043E+03  0.12617958246E+03  0.00000000000E+00 0. -1.
         -5    1    3    3    0  503  0.67105178107E+02  0.98988121822E+02 -0.18469914351E+03  0.22008547613E+03  0.47000000000E+01 0.  1.
         13    1    4    4    0    0 -0.15406634677E+02 -0.16652036479E+02 -0.25783601286E+02  0.34343104203E+02  0.00000000000E+00 0. -1.
        -14    1    4    4    0    0 -0.24849221009E+02  0.73078697178E+02 -0.23967626948E+03  0.25179891564E+03  0.00000000000E+00 0.  1.
</event>
<event>
12    1  0.8453150E-002  0.2094838E+03  0.7818608E-02  0.1142030E+00
         21   -1    0    0  501  502  0.00000000000E+00  0.00000000000E+00  0.40123264116E+02  0.40123264116E+02  0.00000000000E+00 0.  1.
         21   -1    0    0  502  503 -0.00000000000E+00 -0.00000000000E+00 -0.27714800938E+04  0.27714800938E+04  0.00000000000E+00 0.  1.
         -6    2    1    2    0  503 -0.10504210927E+03  0.57680084770E+02 -0.24602828028E+04  0.24691850767E+04  0.17182152467E+03 0.  0.
        -24    2    3    3    0    0 -0.76615600100E+02  0.73618776824E+02 -0.23557728730E+04  0.23596107925E+04  0.82508111857E+02 0.  0.
          6    2    1    2  501    0  0.10504210927E+03 -0.57680084770E+02 -0.27107402684E+03  0.34241828117E+03  0.17148852544E+03 0.  0.
         24    2    5    5    0    0  0.48079861574E+02 -0.10378937252E+02 -0.44728995691E+02  0.10422453788E+03  0.80266280674E+02 0.  0.
          5    1    5    5  501    0  0.56962247692E+02 -0.47301147518E+02 -0.22634503115E+03  0.23819374329E+03  0.47000000000E+01 0. -1.
        -13    1    6    6    0    0  0.17335631543E+02 -0.41877501548E+02 -0.39084540232E+02  0.59848563408E+02  0.00000000000E+00 0.  1.
         14    1    6    6    0    0  0.30744230031E+02  0.31498564296E+02 -0.56444554594E+01  0.44375974472E+02  0.00000000000E+00 0. -1.
         -5    1    3    3    0  503 -0.28426509166E+02 -0.15938692055E+02 -0.10450992988E+03  0.10957428426E+03  0.47000000000E+01 0.  1.
         13    1    4    4    0    0 -0.52901095101E+02  0.11603284562E+02 -0.56047273298E+03  0.56308333885E+03  0.00000000000E+00 0. -1.
        -14    1    4    4    0    0 -0.23714504999E+02  0.62015492262E+02 -0.17953001400E+04  0.17965274536E+04  0.00000000000E+00 0.  1.
</event>
<event>
12    1  0.8453150E-002  0.4392747E+03  0.7818608E-02  0.1030989E+00
         21   -1    0    0  501  502  0.00000000000E+00  0.00000000000E+00  0.10574648670E+04  0.10574648670E+04  0.00000000000E+00 0. -1.
         21   -1    0    0  502  503 -0.00000000000E+00 -0.00000000000E+00 -0.22846470856E+03  0.22846470856E+03  0.00000000000E+00 0.  1.
         -6    2    1    2    0  503 -0.29105255554E+03  0.28024426516E+03  0.70320470187E+03  0.82899763946E+03  0.17173175378E+03 0.  0.
        -24    2    3    3    0    0 -0.13929909617E+03  0.22302945532E+03  0.43632498223E+03  0.51666845150E+03  0.86141874407E+02 0.  0.
          6    2    1    2  501    0  0.29105255554E+03 -0.28024426516E+03  0.12579545655E+03  0.45693193609E+03  0.17237708400E+03 0.  0.
         24    2    5    5    0    0  0.23980639231E+03 -0.14489391191E+03  0.11002927407E+03  0.31127291687E+03  0.79265604904E+02 0.  0.
          5    1    5    5  501    0  0.51246163222E+02 -0.13535035325E+03  0.15766182481E+02  0.14565901922E+03  0.47000000000E+01 0. -1.
        -13    1    6    6    0    0  0.39448195213E+02 -0.62539626393E+02  0.19316696576E+02  0.76423162336E+02  0.00000000000E+00 0.  1.
         14    1    6    6    0    0  0.20035819710E+03 -0.82354285518E+02  0.90712577493E+02  0.23484975453E+03  0.00000000000E+00 0. -1.
         -5    1    3    3    0  503 -0.15175345936E+03  0.57214809839E+02  0.26687971964E+03  0.31232918795E+03  0.47000000000E+01 0.  1.
         11    1    4    4    0    0 -0.13923287170E+03  0.15390675847E+03  0.33125600795E+03  0.39090104332E+03  0.00000000000E+00 0. -1.
        -12    1    4    4    0    0 -0.66224475686E-01  0.69122696853E+02  0.10506897428E+03  0.12576740819E+03  0.00000000000E+00 0.  1.
</event>
<event>
12    1  0.8453150E-002  0.2250794E+03  0.7818608E-02  0.1130185E+00
         21   -1    0    0  501  502  0.00000000000E+00  0.00000000000E+00  0.46294112855E+03  0.46294112855E+03  0.00000000000E+00 0.  1.
         21   -1    0    0  502  503 -0.00000000000E+00 -0.00000000000E+00 -0.14047788266E+03  0.14047788266E+03  0.00000000000E+00 0. -1.
         -6    2    1    2    0  503  0.13486931120E+03 -0.53036010162E+02  0.19143178612E+02  0.22571040920E+03  0.17197726028E+03 0.  0.
        -24    2    3    3    0    0  0.47799042783E+02 -0.70055275078E+02  0.54383962199E+02  0.13013379151E+03  0.82369280019E+02 0.  0.
          6    2    1    2  501    0 -0.13486931120E+03  0.53036010162E+02  0.30332006728E+03  0.37770860201E+03  0.17221549099E+03 0.  0.
         24    2    5    5    0    0 -0.13262292128E+02  0.46976408515E+02  0.18636357468E+03  0.20881248890E+03  0.80551860349E+02 0.  0.
          5    1    5    5  501    0 -0.12160701908E+03  0.60596016470E+01  0.11695649260E+03  0.16889611310E+03  0.47000000000E+01 0. -1.
        -13    1    6    6    0    0 -0.17398826800E+00  0.62519090002E+02  0.85481733779E+02  0.10590464436E+03  0.00000000000E+00 0.  1.
         14    1    6    6    0    0 -0.13088303860E+02 -0.15542681488E+02  0.10088184090E+03  0.10290784455E+03  0.00000000000E+00 0. -1.
         -5    1    3    3    0  503  0.87070268420E+02  0.17019264916E+02 -0.35240783587E+02  0.95576617689E+02  0.47000000000E+01 0.  1.
         11    1    4    4    0    0  0.30881906681E+02 -0.35600568748E+02 -0.16161068265E+02  0.49822412456E+02  0.00000000000E+00 0. -1.
        -12    1    4    4    0    0  0.16917136102E+02 -0.34454706330E+02  0.70545030465E+02  0.80311379053E+02  0.00000000000E+00 0.  1.
</event>
<event>
12    1  0.8453150E-002  0.2002532E+03  0.7818608E-02  0.1149860E+00
         21   -1    0    0  503  502  0.00000000000E+00  0.00000000000E+00  0.28097421317E+02  0.28097421317E+02  0.00000000000E+00 0. -1.
         21   -1    0    0  501  503 -0.00000000000E+00 -0.00000000000E+00 -0.15722365445E+04  0.15722365445E+04  0.00000000000E+00 0. -1.
          6    2    1    2  501    0 -0.65560798222E+02 -0.80193475418E+02 -0.10270799783E+04  0.10464199008E+04  0.17138294850E+03 0.  0.
         24    2    3    3    0    0  0.31119749565E+02 -0.40221670908E+02 -0.45025742184E+03  0.46016805628E+03  0.80228875529E+02 0.  0.
         -6    2    1    2    0  502  0.65560798222E+02  0.80193475418E+02 -0.51705914487E+03  0.55391406508E+03  0.16953294795E+03 0.  0.
        -24    2    5    5    0    0  0.95687893454E+02  0.10097533841E+03 -0.39306546225E+03  0.42454617484E+03  0.79917488933E+02 0.  0.
          5    1    3    3  501    0 -0.96680547786E+02 -0.39971804509E+02 -0.57682255649E+03  0.58625184448E+03  0.47000000000E+01 0. -1.
        -11    1    4    4    0    0 -0.36533585872E+01  0.11406148448E+02 -0.10204889494E+02  0.15734898187E+02  0.00000000000E+00 0.  1.
         12    1    4    4    0    0  0.34773108152E+02 -0.51627819356E+02 -0.44005253235E+03  0.44443315809E+03  0.00000000000E+00 0. -1.
         -5    1    5    5    0  502 -0.30127095232E+02 -0.20781862991E+02 -0.12399368262E+03  0.12936789024E+03  0.47000000000E+01 0.  1.
         11    1    6    6    0    0  0.70470569089E+02  0.11184018088E+03 -0.34009035193E+03  0.36487775302E+03  0.00000000000E+00 0. -1.
        -12    1    6    6    0    0  0.25217324365E+02 -0.10864842472E+02 -0.52975110318E+02  0.59668421826E+02  0.00000000000E+00 0.  1.
</event>
<event>
12    1  0.8453150E-002  0.1767606E+03  0.7818608E-02  0.1171010E+00
         21   -1    0    0  503  502  0.00000000000E+00  0.00000000000E+00  0.36988882702E+03  0.36988882702E+03  0.00000000000E+00 0.  1.
         21   -1    0    0  501  503 -0.00000000000E+00 -0.00000000000E+00 -0.92402312286E+02  0.92402312286E+02  0.00000000000E+00 0.  1.
          6    2    1    2  501    0  0.68102144602E+00 -0.39380135975E+02  0.70678621942E+02  0.19023630753E+03  0.17217179271E+03 0.  0.
         24    2    3    3    0    0 -0.39923006052E+02 -0.59026895889E+02  0.15644383188E+01  0.10757106331E+03  0.80567148047E+02 0.  0.
         -6    2    1    2    0  502 -0.68102144602E+00  0.39380135975E+02  0.20680789279E+03  0.27205483177E+03  0.17231676666E+03 0.  0.
        -24    2    5    5    0    0  0.49829564294E+02  0.54130302130E+02  0.80379181586E+02  0.13503222163E+03  0.79748435466E+02 0.  0.
          5    1    3    3  501    0  0.40604027498E+02  0.19646759914E+02  0.69114183623E+02  0.82665244220E+02  0.47000000000E+01 0. -1.
        -11    1    4    4    0    0  0.19388851068E+02  0.40552211391E+01 -0.58861474214E+01  0.20664440367E+02  0.00000000000E+00 0.  1.
         12    1    4    4    0    0 -0.59311857120E+02 -0.63082117028E+02  0.74505857402E+01  0.86906622945E+02  0.00000000000E+00 0. -1.
         -5    1    5    5    0  502 -0.50510585740E+02 -0.14750166155E+02  0.12642871121E+03  0.13702261014E+03  0.47000000000E+01 0.  1.
         13    1    6    6    0    0  0.14742328128E+02  0.59678515748E+02  0.78162943457E+02  0.99439967871E+02  0.00000000000E+00 0. -1.
        -14    1    6    6    0    0  0.35087236166E+02 -0.55482136171E+01  0.22162381290E+01  0.35592253758E+02  0.00000000000E+00 0.  1.
</event>
<event>
12    1  0.8453150E-002  0.1888165E+03  0.7818608E-02  0.1159718E+00
         21   -1    0    0  501  502  0.00000000000E+00  0.00000000000E+00  0.11380761015E+03  0.11380761015E+03  0.00000000000E+00 0. -1.
         21   -1    0    0  502  503 -0.00000000000E+00 -0.00000000000E+00 -0.60933470445E+03  0.60933470445E+03  0.00000000000E+00 0. -1.
         -6    2    1    2    0  503  0.66245200872E+02  0.39343049890E+02 -0.50009826165E+03  0.53427047783E+03  0.17149451876E+03 0.  0.
        -24    2    3    3    0    0 -0.24097827352E+02  0.46534026277E+02 -0.30546772759E+03  0.31952246811E+03  0.77704273655E+02 0.  0.
          6    2    1    2  501    0 -0.66245200872E+02 -0.39343049890E+02  0.45711673537E+01  0.18887183676E+03  0.17238147504E+03 0.  0.
         24    2    5    5    0    0 -0.10471572178E+03 -0.15705427490E+02 -0.25063270295E+02  0.13465921769E+03  0.79327766580E+02 0.  0.
          5    1    5    5  501    0  0.38470520910E+02 -0.23637622401E+02  0.29634437648E+02  0.54212619071E+02  0.47000000000E+01 0. -1.
        -13    1    6    6    0    0 -0.28927671997E+02 -0.13324032237E+02 -0.46043089414E+02  0.55984874073E+02  0.00000000000E+00 0.  1.
         14    1    6    6    0    0 -0.75788049785E+02 -0.23813952526E+01  0.20979819119E+02  0.78674343618E+02  0.00000000000E+00 0. -1.
         -5    1    3    3    0  503  0.90343028224E+02 -0.71909763866E+01 -0.19463053407E+03  0.21474800973E+03  0.47000000000E+01 0.  1.
         11    1    4    4    0    0  0.19314927028E+02  0.37975299826E+02 -0.21028170353E+03  0.21455438621E+03  0.00000000000E+00 0. -1.
        -12    1    4    4    0    0 -0.43412754381E+02  0.85587264506E+01 -0.95186024054E+02  0.10496808189E+03  0.00000000000E+00 0.  1.
</event>
<event>
12    1  0.8453150E-002  0.2191916E+03  0.7818608E-02  0.1134637E+00
         21   -1    0    0  503  502  0.00000000000E+00  0.00000000000E+00  0.93773291929E+02  0.93773291929E+02  0.00000000000E+00 0. -1.
         21   -1    0    0  501  503 -0.00000000000E+00 -0.00000000000E+00 -0.68462943400E+03  0.68462943400E+03  0.00000000000E+00 0.  1.
          6    2    1    2  501    0  0.39675578019E+02 -0.13005373417E+03 -0.49211990796E+03  0.53872715922E+03  0.17192097898E+03 0.  0.
         24    2    3    3    0    0 -0.11333779270E+02 -0.11956802884E+03 -0.44648132819E+03  0.46932345247E+03  0.80585101268E+02 0.  0.
         -6    2    1    2    0  502 -0.39675578019E+02  0.13005373417E+03 -0.98736234114E+02  0.23967556671E+03  0.17090174981E+03 0.  0.
        -24    2    5    5    0    0 -0.83496975665E+02  0.73896543282E+02 -0.97893357964E+02  0.16828407267E+03  0.79397578853E+02 0.  0.
          5    1    3    3  501    0  0.51009357289E+02 -0.10485705336E+02 -0.45638579769E+02  0.69403706750E+02  0.47000000000E+01 0. -1.
        -11    1    4    4    0    0 -0.12695110897E+02 -0.55090478425E+02 -0.84669998606E+02  0.10180930860E+03  0.00000000000E+00 0.  1.
         12    1    4    4    0    0  0.13613316271E+01 -0.64477550411E+02 -0.36181132958E+03  0.36751414387E+03  0.00000000000E+00 0. -1.
         -5    1    5    5    0  502  0.43821397646E+02  0.56157190891E+02 -0.84287614991E+00  0.71391494035E+02  0.47000000000E+01 0.  1.
         11    1    6    6    0    0 -0.40284067794E+02  0.76553446641E+02 -0.38252901303E+02  0.94586049546E+02  0.00000000000E+00 0. -1.
        -12    1    6    6    0    0 -0.43212907870E+02 -0.26569033592E+01 -0.59640456661E+02  0.73698023126E+02  0.00000000000E+00 0.  1.
</event>
<event>
12    1  0.8453150E-002  0.3406108E+03  0.7818608E-02  0.1066557E+00
         21   -1    0    0  501  502  0.00000000000E+00  0.00000000000E+00  0.55379297998E+03  0.55379297998E+03  0.00000000000E+00 0.  1.
         21   -1    0    0  502  503 -0.00000000000E+00 -0.00000000000E+00 -0.92318043565E+03  0.92318043565E+03  0.00000000000E+00 0. -1.
         -6    2    1    2    0  503 -0.28777210194E+03  0.56908774715E+02 -0.83404951789E+03  0.90084275442E+03  0.17270691531E+03 0.  0.
        -24    2    3    3    0    0 -0.97224532330E+02 -0.80875309354E+01 -0.44736013014E+03  0.46485689613E+03  0.80267241080E+02 0.  0.
          6    2    1    2  501    0  0.28777210194E+03 -0.56908774715E+02  0.46466206222E+03  0.57613066120E+03  0.17310203757E+03 0.  0.
         24    2    5    5    0    0  0.10786539165E+03 -0.78270752551E+02  0.26453068868E+03  0.30613544794E+03  0.77338048941E+02 0.  0.
          5    1    5    5  501    0  0.17990671029E+03  0.21361977836E+02  0.20013137355E+03  0.26999521326E+03  0.47000000000E+01 0. -1.
        -11    1    6    6    0    0  0.34496544981E+02  0.82684152929E+01  0.33697922952E+02  0.48927786771E+02  0.00000000000E+00 0.  1.
         12    1    6    6    0    0  0.73368846673E+02 -0.86539167844E+02  0.23083276573E+03  0.25720766117E+03  0.00000000000E+00 0. -1.
         -5    1    3    3    0  503 -0.19054756961E+03  0.64996305650E+02 -0.38668938775E+03  0.43598585830E+03  0.47000000000E+01 0.  1.
         11    1    4    4    0    0 -0.45205091950E+02 -0.38014608793E+02 -0.14445181752E+03  0.15606068821E+03  0.00000000000E+00 0. -1.
        -12    1    4    4    0    0 -0.52019440380E+02  0.29927077858E+02 -0.30290831262E+03  0.30879620792E+03  0.00000000000E+00 0.  1.
</event>
<event>
12    1  0.8453150E-002  0.1880476E+03  0.7818608E-02  0.1160705E+00
         21   -1    0    0  501  502  0.00000000000E+00  0.00000000000E+00  0.45715780149E+02  0.45715780149E+02  0.00000000000E+00 0. -1.
         21   -1    0    0  502  503 -0.00000000000E+00 -0.00000000000E+00 -0.11407629277E+04  0.11407629277E+04  0.00000000000E+00 0. -1.
         -6    2    1    2    0  503  0.46380722413E+02  0.58219026115E+02 -0.88995991866E+03  0.90961010582E+03  0.17268833591E+03 0.  0.
        -24    2    3    3    0    0 -0.25746277777E+02 -0.17204892748E+02 -0.41236896677E+03  0.42072742149E+03  0.77488833338E+02 0.  0.
          6    2    1    2  501    0 -0.46380722413E+02 -0.58219026115E+02 -0.20508722885E+03  0.27686860200E+03  0.17045475916E+03 0.  0.
         24    2    5    5    0    0 -0.10795964552E+02  0.23298838729E+02 -0.15136348539E+03  0.17285048871E+03  0.79416610360E+02 0.  0.
          5    1    5    5  501    0 -0.35584757861E+02 -0.81517864844E+02 -0.53723743464E+02  0.10401811329E+03  0.47000000000E+01 0. -1.
        -11    1    6    6    0    0  0.34092115132E+02  0.17116050392E+02 -0.68196878452E+02  0.78141190967E+02  0.00000000000E+00 0.  1.
         12    1    6    6    0    0 -0.44888079684E+02  0.61827883375E+01 -0.83166606934E+02  0.94709297739E+02  0.00000000000E+00 0. -1.
         -5    1    3    3    0  503  0.72127000190E+02  0.75423918863E+02 -0.47759095190E+03  0.48888268432E+03  0.47000000000E+01 0.  1.
         11    1    4    4    0    0  0.22838242758E+02  0.12682141194E+02 -0.11398170964E+03  0.11693695810E+03  0.00000000000E+00 0. -1.
        -12    1    4    4    0    0 -0.48584520535E+02 -0.29887033942E+02 -0.29838725713E+03  0.30379046340E+03  0.00000000000E+00 0.  1.
</event>
<event>
12    1  0.8453150E-002  0.1753921E+03  0.7818608E-02  0.1172803E+00
         21   -1    0    0  503  502  0.00000000000E+00  0.00000000000E+00  0.23923812907E+03  0.23923812907E+03  0.00000000000E+00 0. -1.
         21   -1    0    0  501  503 -0.00000000000E+00 -0.00000000000E+00 -0.20413224308E+03  0.20413224308E+03  0.00000000000E+00 0. -1.
          6    2    1    2  501    0 -0.13094580875E+02 -0.15972183229E+02 -0.11856384005E+03  0.21018211217E+03  0.17231528494E+03 0.  0.
         24    2    3    3    0    0  0.50447872062E+01  0.42181494667E+02 -0.17548852040E+02  0.92127020245E+02  0.79841701391E+02 0.  0.
         -6    2    1    2    0  502  0.13094580875E+02  0.15972183229E+02  0.15366972604E+03  0.23318825999E+03  0.17417175778E+03 0.  0.
        -24    2    5    5    0    0  0.21292393124E+02 -0.29621644630E+02  0.17949363083E+02  0.89702692120E+02  0.79959899343E+02 0.  0.
          5    1    3    3  501    0 -0.18139368081E+02 -0.58153677895E+02 -0.10101498801E+03  0.11805509193E+03  0.47000000000E+01 0. -1.
        -13    1    4    4    0    0 -0.35750990130E+02  0.12592873765E+02 -0.17456702269E+02  0.41730686779E+02  0.00000000000E+00 0.  1.
         14    1    4    4    0    0  0.40795777336E+02  0.29588620901E+02 -0.92149771727E-01  0.50396333466E+02  0.00000000000E+00 0. -1.
         -5    1    5    5    0  502 -0.81978122485E+01  0.45593827859E+02  0.13572036296E+03  0.14348556787E+03  0.47000000000E+01 0.  1.
         13    1    6    6    0    0  0.12847112438E+02 -0.55976648526E+00  0.46409920338E+02  0.48158512667E+02  0.00000000000E+00 0. -1.
        -14    1    6    6    0    0  0.84452806863E+01 -0.29061878145E+02 -0.28460557255E+02  0.41544179453E+02  0.00000000000E+00 0.  1.
</event>
<event>
12    1  0.8453150E-002  0.2630599E+03  0.7818608E-02  0.1105469E+00
         21   -1    0    0  501  502  0.00000000000E+00  0.00000000000E+00  0.19069820368E+04  0.19069820368E+04  0.00000000000E+00 0. -1.
         21   -1    0    0  502  503 -0.00000000000E+00 -0.00000000000E+00 -0.25334695757E+03  0.25334695757E+03  0.00000000000E+00 0. -1.
         -6    2    1    2    0  503 -0.78292356829E+02 -0.18230019899E+03 -0.17309430731E+03  0.31490023588E+03  0.17273524146E+03 0.  0.
        -24    2    3    3    0    0  0.19404825367E+02 -0.36797214009E+02 -0.55374474839E+02  0.10372280573E+03  0.77210787838E+02 0.  0.
          6    2    1    2  501    0  0.78292356829E+02  0.18230019899E+03  0.18267293866E+04  0.18454287585E+04  0.17118409768E+03 0.  0.
         24    2    5    5    0    0  0.64467862594E+02  0.94596389702E+02  0.15109268134E+04  0.15173488445E+04  0.79643568405E+02 0.  0.
          5    1    5    5  501    0  0.13824494234E+02  0.87703809283E+02  0.31580257316E+03  0.32807991408E+03  0.47000000000E+01 0. -1.
        -11    1    6    6    0    0 -0.51285201652E+01  0.20908846086E+02  0.80296813476E+02  0.83132784256E+02  0.00000000000E+00 0.  1.
         12    1    6    6    0    0  0.69596382759E+02  0.73687543617E+02  0.14306300000E+04  0.14342160602E+04  0.00000000000E+00 0. -1.
         -5    1    3    3    0  503 -0.97697182195E+02 -0.14550298498E+03 -0.11771983248E+03  0.21117743015E+03  0.47000000000E+01 0.  1.
         13    1    4    4    0    0  0.78059314167E+01  0.12401272600E+01 -0.62777503850E+02  0.63273102267E+02  0.00000000000E+00 0. -1.
        -14    1    4    4    0    0  0.11598893950E+02 -0.38037341269E+02  0.74030290112E+01  0.40449703463E+02  0.00000000000E+00 0.  1.
</event>
<event>
12    1  0.8453150E-002  0.1848008E+03  0.7818608E-02  0.1164521E+00
         21   -1    0    0  501  502  0.00000000000E+00  0.00000000000E+00  0.10473424922E+03  0.10473424922E+03  0.00000000000E+00 0.  1.
         21   -1    0    0  502  503 -0.00000000000E+00 -0.00000000000E+00 -0.34696479313E+03  0.34696479313E+03  0.00000000000E+00 0.  1.
         -6    2    1    2    0  503 -0.34315333338E+02 -0.36073663065E+02 -0.18627920458E+03  0.25861381285E+03  0.17234358378E+03 0.  0.
        -24    2    3    3    0    0  0.37933245991E+02 -0.40664818084E+02 -0.14489497391E+03  0.17509327366E+03  0.81058882505E+02 0.  0.
          6    2    1    2  501    0  0.34315333338E+02  0.36073663065E+02 -0.55951339321E+02  0.19308522950E+03  0.17796769991E+03 0.  0.
         24    2    5    5    0    0  0.14057770011E+02  0.93868597230E+02 -0.43734214211E+02  0.13045958433E+03  0.78090250398E+02 0.  0.
          5    1    5    5  501    0  0.20257563327E+02 -0.57794934165E+02 -0.12217125110E+02  0.62625645171E+02  0.47000000000E+01 0. -1.
        -11    1    6    6    0    0  0.37193375916E+02  0.60674584533E+02 -0.53263127114E+02  0.88891580762E+02  0.00000000000E+00 0.  1.
         12    1    6    6    0    0 -0.23135605905E+02  0.33194012697E+02  0.95289129038E+01  0.41568003568E+02  0.00000000000E+00 0. -1.
         -5    1    3    3    0  503 -0.72248579329E+02  0.45911550189E+01 -0.41384230666E+02  0.83520539194E+02  0.47000000000E+01 0.  1.
         13    1    4    4    0    0 -0.12618430444E+02 -0.13093617335E+01  0.37511532744E+01  0.13229148344E+02  0.00000000000E+00 0. -1.
        -14    1    4    4    0    0  0.50551676435E+02 -0.39355456350E+02 -0.14864612719E+03  0.16186412531E+03  0.00000000000E+00 0.  1.
</event>
<event>
12    1  0.8453150E-002  0.2419927E+03  0.7818608E-02  0.1118487E+00
         21   -1    0    0  503  502  0.00000000000E+00  0.00000000000E+00  0.47366645787E+02  0.47366645787E+02  0.00000000000E+00 0. -1.
         21   -1    0    0  501  503 -0.00000000000E+00 -0.00000000000E+00 -0.13866960840E+04  0.13866960840E+04  0.00000000000E+00 0. -1.
          6    2    1    2  501    0 -0.11074820874E+03  0.12865354216E+03 -0.90625064373E+03  0.93800357123E+03  0.17246324455E+03 0.  0.
         24    2    3    3    0    0 -0.60040392350E+01  0.48904046288E+02 -0.55739768867E+03  0.56510707434E+03  0.78906070110E+02 0.  0.
         -6    2    1    2    0  502  0.11074820874E+03 -0.12865354216E+03 -0.43307879443E+03  0.49605915851E+03  0.17233846612E+03 0.  0.
        -24    2    5    5    0    0  0.75575204714E+02 -0.10626361311E+02 -0.13670227199E+03  0.17507833559E+03  0.78360585130E+02 0.  0.
          5    1    3    3  501    0 -0.10474416951E+03  0.79749495871E+02 -0.34885295506E+03  0.37289649689E+03  0.47000000000E+01 0. -1.
        -11    1    4    4    0    0 -0.15207331337E+02  0.53138122717E+02 -0.54947114265E+03  0.55224402180E+03  0.00000000000E+00 0.  1.
         12    1    4    4    0    0  0.92032921015E+01 -0.42340764289E+01 -0.79265460239E+01  0.12863052537E+02  0.00000000000E+00 0. -1.
         -5    1    5    5    0  502  0.35173004030E+02 -0.11802718085E+03 -0.29637652244E+03  0.32098082292E+03  0.47000000000E+01 0.  1.
         13    1    6    6    0    0  0.47928464562E+02 -0.33766115429E+02 -0.37668894772E+02  0.69686683805E+02  0.00000000000E+00 0. -1.
        -14    1    6    6    0    0  0.27646740152E+02  0.23139754118E+02 -0.99033377222E+02  0.10539165178E+03  0.00000000000E+00 0.  1.
</event>
<event>
12    1  0.8453150E-002  0.2418655E+03  0.7818608E-02  0.1118857E+00
         21   -1    0    0  501  502  0.00000000000E+00  0.00000000000E+00  0.19816138477E+03  0.19816138477E+03  0.00000000000E+00 0.  1.
         21   -1    0    0  502  503 -0.00000000000E+00 -0.00000000000E+00 -0.30377132495E+03  0.30377132495E+03  0.00000000000E+00 0.  1.
         -6    2    1    2    0  503 -0.83306947579E+02 -0.14522220785E+03 -0.99885398911E+02  0.25999950529E+03  0.17202648827E+03 0.  0.
        -24    2    3    3    0    0  0.26280508890E+01 -0.10337192912E+03 -0.98124409864E+02  0.16428398474E+03  0.81658835714E+02 0.  0.
          6    2    1    2  501    0  0.83306947579E+02  0.14522220785E+03 -0.57245412732E+01  0.24193320443E+03  0.17455477039E+03 0.  0.
         24    2    5    5    0    0  0.45382489978E+01  0.47743768562E+02  0.45297192941E+02  0.10653800006E+03  0.83656718971E+02 0.  0.
          5    1    5    5  501    0  0.78768698582E+02  0.97478439288E+02 -0.51021734214E+02  0.13539520436E+03  0.47000000000E+01 0. -1.
        -11    1    6    6    0    0  0.13424251548E+02  0.69323697998E+02  0.43927195917E+02  0.83159991432E+02  0.00000000000E+00 0.  1.
         12    1    6    6    0    0 -0.88860025503E+01 -0.21579929436E+02  0.13699970236E+01  0.23378008633E+02  0.00000000000E+00 0. -1.
         -5    1    3    3    0  503 -0.85934998468E+02 -0.41850278735E+02 -0.17609890475E+01  0.95715520551E+02  0.47000000000E+01 0.  1.
         13    1    4    4    0    0  0.41633529630E+02 -0.56566454299E+02 -0.44723513438E+02  0.83266483027E+02  0.00000000000E+00 0. -1.
        -14    1    4    4    0    0 -0.39005478741E+02 -0.46805474817E+02 -0.53400896426E+02  0.81017501712E+02  0.00000000000E+00 0.  1.
</event>
<event>
12    1  0.8453150E-002  0.2027067E+03  0.7818608E-02  0.1147706E+00
         21   -1    0    0  503  502  0.00000000000E+00  0.00000000000E+00  0.55129572787E+03  0.55129572787E+03  0.00000000000E+00 0.  1.
         21   -1    0    0  501  503 -0.00000000000E+00 -0.00000000000E+00 -0.77383881053E+02  0.77383881053E+02  0.00000000000E+00 0. -1.
          6    2    1    2  501    0  0.86263082606E+02  0.61691069790E+02  0.17182733743E+03  0.26488699179E+03  0.17144496791E+03 0.  0.
         24    2    3    3    0    0 -0.52687492323E+01  0.62249995493E+02  0.12855937270E+03  0.16353317879E+03  0.79452920657E+02 0.  0.
         -6    2    1    2    0  502 -0.86263082606E+02 -0.61691069790E+02  0.30208450938E+03  0.36379261712E+03  0.17275100565E+03 0.  0.
        -24    2    5    5    0    0 -0.10407286415E+03 -0.97200774872E+02  0.24452641119E+03  0.29369873621E+03  0.78655134580E+02 0.  0.
          5    1    3    3  501    0  0.91531831838E+02 -0.55892570272E+00  0.43267964734E+02  0.10135381300E+03  0.47000000000E+01 0. -1.
        -11    1    4    4    0    0 -0.39042520512E+01  0.56937782238E+02  0.29357064386E+02  0.64179369424E+02  0.00000000000E+00 0.  1.
         12    1    4    4    0    0 -0.13644971811E+01  0.53122132546E+01  0.99202308310E+02  0.99353809369E+02  0.00000000000E+00 0. -1.
         -5    1    5    5    0  502  0.17809781545E+02  0.35509705082E+02  0.57558098190E+02  0.70093880910E+02  0.47000000000E+01 0.  1.
         13    1    6    6    0    0 -0.66336022571E+02 -0.65807824961E+02  0.83350673093E+02  0.12521370700E+03  0.00000000000E+00 0. -1.
        -14    1    6    6    0    0 -0.37736841579E+02 -0.31392949912E+02  0.16117573810E+03  0.16848502921E+03  0.00000000000E+00 0.  1.
</event>
<event>
12    1  0.8453150E-002  0.1964416E+03  0.7818608E-02  0.1152822E+00
         21   -1    0    0  501  502  0.00000000000E+00  0.00000000000E+00  0.27599415115E+03  0.27599415115E+03  0.00000000000E+00 0.  1.
         21   -1    0    0  502  503 -0.00000000000E+00 -0.00000000000E+00 -0.30685407878E+03  0.30685407878E+03  0.00000000000E+00 0.  1.
         -6    2    1    2    0  503  0.93180832985E+02 -0.16443016163E+01 -0.23053569805E+03  0.30274159032E+03  0.17268581608E+03 0.  0.
        -24    2    3    3    0    0  0.11904453477E+03  0.39350829989E+01 -0.11227729920E+03  0.18146834719E+03  0.78342089451E+02 0.  0.
          6    2    1    2  501    0 -0.93180832985E+02  0.16443016163E+01  0.19967577041E+03  0.28010663961E+03  0.17292757126E+03 0.  0.
         24    2    5    5    0    0 -0.12076064855E+03  0.39180440210E+02  0.15060553395E+03  0.21228639165E+03  0.79153294883E+02 0.  0.
          5    1    5    5  501    0  0.27579815563E+02 -0.37536138594E+02  0.49070236459E+02  0.67820247959E+02  0.47000000000E+01 0. -1.
        -11    1    6    6    0    0 -0.72490841706E+02 -0.18081198418E+02  0.74189886564E+02  0.10529003341E+03  0.00000000000E+00 0.  1.
         12    1    6    6    0    0 -0.48269806843E+02  0.57261638628E+02  0.76415647389E+02  0.10699635824E+03  0.00000000000E+00 0. -1.
         -5    1    3    3    0  503 -0.25863701785E+02 -0.55793846152E+01 -0.11825839884E+03  0.12127324313E+03  0.47000000000E+01 0.  1.
         13    1    4    4    0    0  0.65021863507E+02 -0.36512265614E+02 -0.66544685453E+02  0.99945902549E+02  0.00000000000E+00 0. -1.
        -14    1    4    4    0    0  0.54022671264E+02  0.40447348613E+02 -0.45732613749E+02  0.81522444644E+02  0.00000000000E+00 0.  1.
</event>
<event>
12    1  0.8453150E-002  0.1866342E+03  0.7818608E-02  0.1161548E+00
         21   -1    0    0  501  502  0.00000000000E+00  0.00000000000E+00  0.74196118454E+02  0.74196118454E+02  0.00000000000E+00 0.  1.
         21   -1    0    0  502  503 -0.00000000000E+00 -0.00000000000E+00 -0.50912514552E+03  0.50912514552E+03  0.00000000000E+00 0.  1.
         -6    2    1    2    0  503  0.32659044490E+02  0.66277122382E+02 -0.29900458565E+03  0.35243649975E+03  0.17131396318E+03 0.  0.
        -24    2    3    3    0    0  0.27131442972E+02  0.11122196121E+03 -0.20557159311E+03  0.24850187120E+03  0.79919085608E+02 0.  0.
          6    2    1    2  501    0 -0.32659044490E+02 -0.66277122382E+02 -0.13592444142E+03  0.23088476422E+03  0.17138567746E+03 0.  0.
         24    2    5    5    0    0 -0.54012892934E+02 -0.12323685266E+02 -0.14256109951E+03  0.17229214139E+03  0.79319915982E+02 0.  0.
          5    1    5    5  501    0  0.21353848444E+02 -0.53953437116E+02  0.66366580867E+01  0.58592622834E+02  0.47000000000E+01 0. -1.
        -13    1    6    6    0    0 -0.74316431392E+02 -0.84210769932E+01 -0.99023044501E+02  0.12409435867E+03  0.00000000000E+00 0.  1.
         14    1    6    6    0    0  0.20303538458E+02 -0.39026082730E+01 -0.43538055004E+02  0.48197782716E+02  0.00000000000E+00 0. -1.
         -5    1    3    3    0  503  0.55276015180E+01 -0.44944838832E+02 -0.93432992539E+02  0.10393462855E+03  0.47000000000E+01 0.  1.
         11    1    4    4    0    0  0.42563516948E+01  0.57927015669E+02 -0.17188099800E+03  0.18142969202E+03  0.00000000000E+00 0. -1.
        -12    1    4    4    0    0  0.22875091277E+02  0.53294945545E+02 -0.33690595115E+02  0.67072179186E+02  0.00000000000E+00 0.  1.
</event>
<event>
12    1  0.8453150E-002  0.2425501E+03  0.7818608E-02  0.1118216E+00
         21   -1    0    0  503  502  0.00000000000E+00  0.00000000000E+00  0.14872844551E+03  0.14872844551E+03  0.00000000000E+00 0.  1.
         21   -1    0    0  501  503 -0.00000000000E+00 -0.00000000000E+00 -0.19050471396E+04  0.19050471396E+04  0.00000000000E+00 0. -1.
          6    2    1    2  501    0  0.11783173898E+03 -0.12312944197E+03 -0.17923207937E+04  0.18085681491E+04  0.17163841194E+03 0.  0.
         24    2    3    3    0    0  0.15210227245E+03 -0.97422918714E+02 -0.13742390727E+04  0.13882709802E+04  0.78338746245E+02 0.  0.
         -6    2    1    2    0  502 -0.11783173898E+03  0.12312944197E+03  0.36002099523E+02  0.24520743604E+03  0.17258434844E+03 0.  0.
        -24    2    5    5    0    0 -0.53427803011E+02  0.87636977636E+02 -0.44828707900E+02  0.13583060384E+03  0.76847705906E+02 0.  0.
          5    1    3    3  501    0 -0.34270533473E+02 -0.25706523256E+02 -0.41808172096E+03  0.42029716892E+03  0.47000000000E+01 0. -1.
        -11    1    4    4    0    0  0.48703837536E+02  0.44625406088E+01 -0.25397826316E+03  0.25864442043E+03  0.00000000000E+00 0.  1.
         12    1    4    4    0    0  0.10339843492E+03 -0.10188545932E+03 -0.11202608095E+04  0.11296265598E+04  0.00000000000E+00 0. -1.
         -5    1    5    5    0  502 -0.64403935971E+02  0.35492464333E+02  0.80830807423E+02  0.10937683220E+03  0.47000000000E+01 0.  1.
         13    1    6    6    0    0 -0.33915826618E+02 -0.31049656765E+01 -0.35263019765E+01  0.34239727111E+02  0.00000000000E+00 0. -1.
        -14    1    6    6    0    0 -0.19511976393E+02  0.90741943313E+02 -0.41302405923E+02  0.10159087673E+03  0.00000000000E+00 0.  1.
</event>
<event>
12    1  0.8453150E-002  0.2329331E+03  0.7818608E-02  0.1124714E+00
         21   -1    0    0  503  502  0.00000000000E+00  0.00000000000E+00  0.18820342323E+03  0.18820342323E+03  0.00000000000E+00 0.  1.
         21   -1    0    0  501  503 -0.00000000000E+00 -0.00000000000E+00 -0.32036846794E+03  0.32036846794E+03  0.00000000000E+00 0. -1.
          6    2    1    2  501    0 -0.45405187558E+02  0.15041122801E+03  0.15368066161E+02  0.23343949284E+03  0.17196700494E+03 0.  0.
         24    2    3    3    0    0  0.40267723574E+02  0.77827378194E+02 -0.66157567084E+01  0.11892468408E+03  0.80129407140E+02 0.  0.
         -6    2    1    2    0  502  0.45405187558E+02 -0.15041122801E+03 -0.14753311087E+03  0.27513239833E+03  0.17101651744E+03 0.  0.
        -24    2    5    5    0    0  0.79296555492E+02 -0.15881525618E+03 -0.13801273371E+03  0.23863609590E+03  0.79933987067E+02 0.  0.
          5    1    3    3  501    0 -0.85672911132E+02  0.72583849819E+02  0.21983822869E+02  0.11451480876E+03  0.47000000000E+01 0. -1.
        -13    1    4    4    0    0  0.60646748393E+01  0.82471547957E+02 -0.13327410892E+02  0.83761306010E+02  0.00000000000E+00 0.  1.
         14    1    4    4    0    0  0.34203048735E+02 -0.46441697628E+01  0.67116541840E+01  0.35163378072E+02  0.00000000000E+00 0. -1.
         -5    1    5    5    0  502 -0.33891367934E+02  0.84040281713E+01 -0.95203771583E+01  0.36496302431E+02  0.47000000000E+01 0.  1.
         13    1    6    6    0    0  0.63871769341E+02 -0.11599041409E+03 -0.53833618037E+02  0.14293857950E+03  0.00000000000E+00 0. -1.
        -14    1    6    6    0    0  0.15424786151E+02 -0.42824842096E+02 -0.84179115674E+02  0.95697516394E+02  0.00000000000E+00 0.  1.
</event>
<event>
12    1  0.8453150E-002  0.2020364E+03  0.7818608E-02  0.1148371E+00
         21   -1    0    0  503  502  0.00000000000E+00  0.00000000000E+00  0.18781778693E+03  0.18781778693E+03  0.00000000000E+00 0. -1.
         21   -1    0    0  501  503 -0.00000000000E+00 -0.00000000000E+00 -0.36163226044E+03  0.36163226044E+03  0.00000000000E+00 0. -1.
          6    2    1    2  501    0  0.28156131660E+02 -0.98550416128E+02 -0.26128171150E+03  0.32929274195E+03  0.17222260266E+03 0.  0.
         24    2    3    3    0    0  0.15377364245E+02  0.16441603477E+02 -0.92696263805E+02  0.12476987124E+03  0.80424708820E+02 0.  0.
         -6    2    1    2    0  502 -0.28156131660E+02  0.98550416128E+02  0.87467237996E+02  0.22015730542E+03  0.17410849818E+03 0.  0.
        -24    2    5    5    0    0  0.28354707124E+02  0.11194106164E+03  0.72924824146E+02  0.16010436138E+03  0.83549900412E+02 0.  0.
          5    1    3    3  501    0  0.12778767416E+02 -0.11499201961E+03 -0.16858544770E+03  0.20452287071E+03  0.47000000000E+01 0. -1.
        -11    1    4    4    0    0  0.15989755971E+02 -0.46013177663E+01  0.10350081817E+02  0.19595117116E+02  0.00000000000E+00 0.  1.
         12    1    4    4    0    0 -0.61239172586E+00  0.21042921244E+02 -0.10304634562E+03  0.10517475412E+03  0.00000000000E+00 0. -1.
         -5    1    5    5    0  502 -0.56510838784E+02 -0.13390645516E+02  0.14542413850E+02  0.60052944042E+02  0.47000000000E+01 0.  1.
         13    1    6    6    0    0 -0.31135633518E+01  0.36153222667E+02  0.68987319162E+02  0.77948701023E+02  0.00000000000E+00 0. -1.
        -14    1    6    6    0    0  0.31468270476E+02  0.75787838977E+02  0.39375049833E+01  0.82155660359E+02  0.00000000000E+00 0.  1.
</event>
<event>
12    1  0.8453150E-002  0.2840570E+03  0.7818608E-02  0.1093609E+00
         21   -1    0    0  503  502  0.00000000000E+00  0.00000000000E+00  0.18757195168E+03  0.18757195168E+03  0.00000000000E+00 0.  1.
         21   -1    0    0  501  503 -0.00000000000E+00 -0.00000000000E+00 -0.94967479401E+03  0.94967479401E+03  0.00000000000E+00 0.  1.
          6    2    1    2  501    0  0.14075264946E+03  0.17468520722E+03 -0.80240212476E+03  0.85119770830E+03  0.17424734958E+03 0.  0.
         24    2    3    3    0    0  0.90500974971E+02  0.21456125567E+02 -0.35692050749E+03  0.37740414188E+03  0.79942766058E+02 0.  0.
         -6    2    1    2    0  502 -0.14075264946E+03 -0.17468520722E+03  0.40299282433E+02  0.28604903739E+03  0.17284035893E+03 0.  0.
        -24    2    5    5    0    0 -0.89286779720E+02 -0.18256623311E+03  0.65542608643E+02  0.22799594242E+03  0.79898421187E+02 0.  0.
          5    1    3    3  501    0  0.50251674493E+02  0.15322908165E+03 -0.44548161728E+03  0.47379356642E+03  0.47000000000E+01 0. -1.
        -11    1    4    4    0    0  0.29994714185E+02  0.42591711910E+02 -0.22206347222E+03  0.22809191677E+03  0.00000000000E+00 0.  1.
         12    1    4    4    0    0  0.60506260786E+02 -0.21135586343E+02 -0.13485703527E+03  0.14931222511E+03  0.00000000000E+00 0. -1.
         -5    1    5    5    0  502 -0.51465869744E+02  0.78810258882E+01 -0.25243326210E+02  0.58053094971E+02  0.47000000000E+01 0.  1.
         11    1    6    6    0    0 -0.18606625849E+02 -0.48156530268E+02 -0.17998004783E+02  0.54673449764E+02  0.00000000000E+00 0. -1.
        -12    1    6    6    0    0 -0.70680153871E+02 -0.13440970284E+03  0.83540613426E+02  0.17332249266E+03  0.00000000000E+00 0.  1.
</event>
<event>
12    1  0.8453150E-002  0.2169580E+03  0.7818608E-02  0.1138843E+00
         21   -1    0    0  501  502  0.00000000000E+00  0.00000000000E+00  0.20204976873E+03  0.20204976873E+03  0.00000000000E+00 0. -1.
         21   -1    0    0  502  503 -0.00000000000E+00 -0.00000000000E+00 -0.24050232487E+03  0.24050232487E+03  0.00000000000E+00 0. -1.
         -6    2    1    2    0  503  0.30651803689E+02  0.12788631465E+03 -0.85415831713E+02  0.22056940607E+03  0.15511465451E+03 0.  0.
        -24    2    3    3    0    0  0.57966280998E+02  0.58130065390E+02 -0.91606075884E+02  0.14525390897E+03  0.77251735880E+02 0.  0.
          6    2    1    2  501    0 -0.30651803689E+02 -0.12788631465E+03  0.46963275573E+02  0.22198268753E+03  0.17255816923E+03 0.  0.
         24    2    5    5    0    0  0.50620956737E+02 -0.60350752250E+02  0.17472061170E+02  0.11217314558E+03  0.77928474325E+02 0.  0.
          5    1    5    5  501    0 -0.81272760426E+02 -0.67535562398E+02  0.29491214403E+02  0.10980954195E+03  0.47000000000E+01 0. -1.
        -13    1    6    6    0    0  0.15737936004E+02 -0.21965478493E+01 -0.26821465985E+02  0.31175286522E+02  0.00000000000E+00 0.  1.
         14    1    6    6    0    0  0.34883020733E+02 -0.58154204401E+02  0.44293527155E+02  0.80997859063E+02  0.00000000000E+00 0. -1.
         -5    1    3    3    0  503 -0.27314477309E+02  0.69756249258E+02  0.61902441710E+01  0.75315497105E+02  0.47000000000E+01 0.  1.
         11    1    4    4    0    0 -0.65312365287E+00  0.45643581924E+02 -0.65602260285E+02  0.79921334422E+02  0.00000000000E+00 0. -1.
        -12    1    4    4    0    0  0.58619404651E+02  0.12486483466E+02 -0.26003815599E+02  0.65332574545E+02  0.00000000000E+00 0.  1.
</event>
<event>
12    1  0.8453150E-002  0.1977409E+03  0.7818608E-02  0.1151842E+00
         21   -1    0    0  501  502  0.00000000000E+00  0.00000000000E+00  0.61380441077E+03  0.61380441077E+03  0.00000000000E+00 0.  1.
         21   -1    0    0  502  503 -0.00000000000E+00 -0.00000000000E+00 -0.68501270613E+02  0.68501270613E+02  0.00000000000E+00 0. -1.
         -6    2    1    2    0  503 -0.38458125011E+02 -0.87503902546E+02  0.18036875206E+03  0.26764592095E+03  0.17310543590E+03 0.  0.
        -24    2    3    3    0    0 -0.34971889247E+02 -0.95245234892E+02  0.54838967415E+02  0.14174159656E+03  0.82393446588E+02 0.  0.
          6    2    1    2  501    0  0.38458125011E+02  0.87503902546E+02  0.36493438810E+03  0.41465976044E+03  0.17213264935E+03 0.  0.
         24    2    5    5    0    0  0.25810770175E+02  0.83438090451E+02  0.13321497245E+03  0.18251225560E+03  0.89086383729E+02 0.  0.
          5    1    5    5  501    0  0.12647354836E+02  0.40658120947E+01  0.23171941565E+03  0.23214750483E+03  0.47000000000E+01 0. -1.
        -11    1    6    6    0    0  0.57662755231E+02  0.39461833850E+02  0.66124545644E+02  0.96201274463E+02  0.00000000000E+00 0.  1.
         12    1    6    6    0    0 -0.31851985056E+02  0.43976256601E+02  0.67090426805E+02  0.86310981142E+02  0.00000000000E+00 0. -1.
         -5    1    3    3    0  503 -0.34862357640E+01  0.77413323463E+01  0.12552978465E+03  0.12590432439E+03  0.47000000000E+01 0.  1.
         11    1    4    4    0    0 -0.45129301312E+02 -0.11811700193E+02  0.20128754120E+02  0.50806858206E+02  0.00000000000E+00 0. -1.
        -12    1    4    4    0    0  0.10157412065E+02 -0.83433534699E+02  0.34710213295E+02  0.90934738353E+02  0.00000000000E+00 0.  1.
</event>
<event>
12    1  0.8453150E-002  0.1740141E+03  0.7818608E-02  0.1173745E+00
         21   -1    0    0  501  502  0.00000000000E+00  0.00000000000E+00  0.13408728701E+04  0.13408728701E+04  0.00000000000E+00 0.  1.
         21   -1    0    0  502  503 -0.00000000000E+00 -0.00000000000E+00 -0.32474777010E+02  0.32474777010E+02  0.00000000000E+00 0. -1.
         -6    2    1    2    0  503  0.20473257850E+02  0.17329767607E+02  0.27493223774E+03  0.32533401723E+03  0.17185753484E+03 0.  0.
        -24    2    3    3    0    0  0.28851534351E+02  0.31860416147E+02  0.57098947470E+02  0.10680537468E+03  0.79370026496E+02 0.  0.
          6    2    1    2  501    0 -0.20473257850E+02 -0.17329767607E+02  0.10334658553E+04  0.10480136299E+04  0.17193434538E+03 0.  0.
         24    2    5    5    0    0 -0.75181453334E+02  0.13458055261E+02  0.69819040690E+03  0.70687935570E+03  0.79844906242E+02 0.  0.
          5    1    5    5  501    0  0.54708195483E+02 -0.30787822869E+02  0.33527544845E+03  0.34113427418E+03  0.47000000000E+01 0. -1.
        -11    1    6    6    0    0 -0.26127762432E+02  0.72921404072E+01  0.50669400146E+02  0.57473675649E+02  0.00000000000E+00 0.  1.
         12    1    6    6    0    0 -0.49053690902E+02  0.61659148541E+01  0.64752100675E+03  0.64940568005E+03  0.00000000000E+00 0. -1.
         -5    1    3    3    0  503 -0.83782765012E+01 -0.14530648539E+02  0.21783329027E+03  0.21852864255E+03  0.47000000000E+01 0.  1.
         11    1    4    4    0    0  0.12939202490E+02  0.57172090101E+02  0.47365912054E+02  0.75363124088E+02  0.00000000000E+00 0. -1.
        -12    1    4    4    0    0  0.15912331861E+02 -0.25311673954E+02  0.97330354164E+01  0.31442250588E+02  0.00000000000E+00 0.  1.
</event>
<event>
12    1  0.8453150E-002  0.1978775E+03  0.7818608E-02  0.1151684E+00
         21   -1    0    0  501  502  0.00000000000E+00  0.00000000000E+00  0.39269195062E+03  0.39269195062E+03  0.00000000000E+00 0.  1.
         21   -1    0    0  502  503 -0.00000000000E+00 -0.00000000000E+00 -0.10382678894E+03  0.10382678894E+03  0.00000000000E+00 0. -1.
         -6    2    1    2    0  503 -0.68930579588E+02  0.71002915774E+02  0.92811493704E+02  0.21796434255E+03  0.17059203501E+03 0.  0.
        -24    2    3    3    0    0 -0.10969883218E+03  0.60886207548E+02  0.71526111929E+02  0.17064039848E+03  0.90891126376E+02 0.  0.
          6    2    1    2  501    0  0.68930579588E+02 -0.71002915774E+02  0.19605366798E+03  0.27855439702E+03  0.17135539828E+03 0.  0.
         24    2    5    5    0    0  0.10644619044E+02  0.53758914446E+01  0.15623114601E+03  0.17444436559E+03  0.76684141624E+02 0.  0.
          5    1    5    5  501    0  0.58285960544E+02 -0.76378807218E+02  0.39822521963E+02  0.10411003143E+03  0.47000000000E+01 0. -1.
        -11    1    6    6    0    0  0.40152215337E+02 -0.13052338804E+02  0.96278174845E+02  0.10512873487E+03  0.00000000000E+00 0.  1.
         12    1    6    6    0    0 -0.29507596293E+02  0.18428230249E+02  0.59952971169E+02  0.69315630713E+02  0.00000000000E+00 0. -1.
         -5    1    3    3    0  503  0.40768252595E+02  0.10116708226E+02  0.21285381775E+02  0.47323944070E+02  0.47000000000E+01 0.  1.
         13    1    4    4    0    0 -0.10117041903E+03  0.90019918979E+01  0.55104920166E+02  0.11555536237E+03  0.00000000000E+00 0. -1.
        -14    1    4    4    0    0 -0.85284131480E+01  0.51884215650E+02  0.16421191763E+02  0.55085036111E+02  0.00000000000E+00 0.  1.
</event>
<event>
12    1  0.8453150E-002  0.2192641E+03  0.7818608E-02  0.1134784E+00
         21   -1    0    0  503  502  0.00000000000E+00  0.00000000000E+00  0.21261779336E+04  0.21261779336E+04  0.00000000000E+00 0. -1.
         21   -1    0    0  501  503 -0.00000000000E+00 -0.00000000000E+00 -0.32530209233E+02  0.32530209233E+02  0.00000000000E+00 0.  1.
          6    2    1    2  501    0 -0.10210619638E+03 -0.90440048277E+02  0.16454761988E+04  0.16597748042E+04  0.16927906522E+03 0.  0.
         24    2    3    3    0    0 -0.44227922538E+02 -0.11668396597E+03  0.13086177061E+04  0.13169419412E+04  0.79274956465E+02 0.  0.
         -6    2    1    2    0  502  0.10210619638E+03  0.90440048277E+02  0.44817152555E+03  0.49893333869E+03  0.17167318507E+03 0.  0.
        -24    2    5    5    0    0  0.40003137277E+02  0.11547676501E+03  0.24561286164E+03  0.28554231390E+03  0.79206066547E+02 0.  0.
          5    1    3    3  501    0 -0.57878273840E+02  0.26243917697E+02  0.33685849274E+03  0.34283286297E+03  0.47000000000E+01 0. -1.
        -11    1    4    4    0    0  0.19991281093E+02 -0.52345771680E+02  0.57140913949E+03  0.57414992452E+03  0.00000000000E+00 0.  1.
         12    1    4    4    0    0 -0.64219203631E+02 -0.64338194294E+02  0.73720856661E+03  0.74279201668E+03  0.00000000000E+00 0. -1.
         -5    1    5    5    0  502  0.62103059102E+02 -0.25036716729E+02  0.20255866391E+03  0.21339102478E+03  0.47000000000E+01 0.  1.
         13    1    6    6    0    0  0.13704226598E+02  0.70580120907E+01  0.10462264226E+03  0.10575215664E+03  0.00000000000E+00 0. -1.
        -14    1    6    6    0    0  0.26298910679E+02  0.10841875292E+03  0.14099021938E+03  0.17979015726E+03  0.00000000000E+00 0.  1.
</event>
<event>
12    1  0.8453150E-002  0.2249630E+03  0.7818608E-02  0.1130757E+00
         21   -1    0    0  501  502  0.00000000000E+00  0.00000000000E+00  0.25148088462E+03  0.25148088462E+03  0.00000000000E+00 0. -1.
         21   -1    0    0  502  503 -0.00000000000E+00 -0.00000000000E+00 -0.20418463307E+03  0.20418463307E+03  0.00000000000E+00 0. -1.
         -6    2    1    2    0  503  0.13453709492E+03 -0.35363870057E+02  0.61161036655E+02  0.23312875002E+03  0.17679793117E+03 0.  0.
        -24    2    3    3    0    0  0.23360929755E+02  0.33036738833E+02  0.44141636521E+02  0.10140732816E+03  0.81840106167E+02 0.  0.
          6    2    1    2  501    0 -0.13453709492E+03  0.35363870057E+02 -0.13864785105E+02  0.22253676767E+03  0.17314602936E+03 0.  0.
         24    2    5    5    0    0 -0.57849362234E+02 -0.46076388978E+02 -0.16926181820E+02  0.11053236469E+03  0.80382371703E+02 0.  0.
          5    1    5    5  501    0 -0.76687732686E+02  0.81440259035E+02  0.30613967152E+01  0.11200440298E+03  0.47000000000E+01 0. -1.
        -13    1    6    6    0    0 -0.52084745690E+02 -0.15831900796E+02  0.23853907072E+02  0.59434659072E+02  0.00000000000E+00 0.  1.
         14    1    6    6    0    0 -0.57646165435E+01 -0.30244488182E+02 -0.40780088892E+02  0.51097705617E+02  0.00000000000E+00 0. -1.
         -5    1    3    3    0  503  0.11117616516E+03 -0.68400608890E+02  0.17019400134E+02  0.13172142186E+03  0.47000000000E+01 0.  1.
         13    1    4    4    0    0  0.51341744753E+00 -0.21885998490E+02  0.34914918976E+02  0.41210582312E+02  0.00000000000E+00 0. -1.
        -14    1    4    4    0    0  0.22847512308E+02  0.54922737323E+02  0.92267175451E+01  0.60196745845E+02  0.00000000000E+00 0.  1.
</event>
<event>
12    1  0.8453150E-002  0.1804904E+03  0.7818608E-02  0.1167504E+00
         21   -1    0    0  503  502  0.00000000000E+00  0.00000000000E+00  0.48547902477E+03  0.48547902477E+03  0.00000000000E+00 0.  1.
         21   -1    0    0  501  503 -0.00000000000E+00 -0.00000000000E+00 -0.71371422077E+02  0.71371422077E+02  0.00000000000E+00 0.  1.
          6    2    1    2  501    0 -0.53246108183E+02  0.78062008820E+01  0.13646199008E+03  0.22569506850E+03  0.17152348062E+03 0.  0.
         24    2    3    3    0    0 -0.61881868008E+02 -0.67963804740E+01  0.12262313989E+02  0.10025400159E+03  0.77620513485E+02 0.  0.
         -6    2    1    2    0  502  0.53246108183E+02 -0.78062008820E+01  0.27764561261E+03  0.33115537834E+03  0.17228091476E+03 0.  0.
        -24    2    5    5    0    0  0.10189021038E+03 -0.23838880351E+02  0.21641637004E+03  0.25119035076E+03  0.72874137430E+02 0.  0.
          5    1    3    3  501    0  0.86357598258E+01  0.14602581356E+02  0.12419967609E+03  0.12544106692E+03  0.47000000000E+01 0. -1.
        -11    1    4    4    0    0 -0.42177862373E+02 -0.33665011564E+02  0.30788332279E+02  0.62130720923E+02  0.00000000000E+00 0.  1.
         12    1    4    4    0    0 -0.19704005636E+02  0.26868631090E+02 -0.18526018289E+02  0.38123280662E+02  0.00000000000E+00 0. -1.
         -5    1    5    5    0  502 -0.48644102196E+02  0.16032679469E+02  0.61229242574E+02  0.79965027578E+02  0.47000000000E+01 0.  1.
         13    1    6    6    0    0 -0.95196267875E+01 -0.12146407075E+02  0.28856803303E+02  0.32724205045E+02  0.00000000000E+00 0. -1.
        -14    1    6    6    0    0  0.11140983717E+03 -0.11692473276E+02  0.18755956674E+03  0.21846614571E+03  0.00000000000E+00 0.  1.
</event>
<event>
12    1  0.8453150E-002  0.1747097E+03  0.7818608E-02  0.1173154E+00
         21   -1    0    0  503  502  0.00000000000E+00  0.00000000000E+00  0.45481691623E+03  0.45481691623E+03  0.00000000000E+00 0.  1.
         21   -1    0    0  501  503 -0.00000000000E+00 -0.00000000000E+00 -0.75213730373E+02  0.75213730373E+02  0.00000000000E+00 0.  1.
          6    2    1    2  501    0 -0.13747006567E+02 -0.27433414321E+02  0.10201336213E+03  0.20231210644E+03  0.17199386602E+03 0.  0.
         24    2    3    3    0    0  0.30289236083E+02  0.18679565883E+02  0.10752681590E+03  0.13813979323E+03  0.79083641371E+02 0.  0.
         -6    2    1    2    0  502  0.13747006567E+02  0.27433414321E+02  0.27758982374E+03  0.32771854017E+03  0.17146941102E+03 0.  0.
        -24    2    5    5    0    0  0.62288470845E+02 -0.14734299271E+02  0.11479762303E+03  0.15262490683E+03  0.77581665078E+02 0.  0.
          5    1    3    3  501    0 -0.44036242650E+02 -0.46112980204E+02 -0.55134537760E+01  0.64172313209E+02  0.47000000000E+01 0. -1.
        -11    1    4    4    0    0 -0.27533586956E+01 -0.28578059961E+02  0.41706307218E+02  0.50633018447E+02  0.00000000000E+00 0.  1.
         12    1    4    4    0    0  0.33042594778E+02  0.47257625844E+02  0.65820508684E+02  0.87506774787E+02  0.00000000000E+00 0. -1.
         -5    1    5    5    0  502 -0.48541464278E+02  0.42167713592E+02  0.16279220071E+03  0.17509363334E+03  0.47000000000E+01 0.  1.
         11    1    6    6    0    0  0.48056585484E+02  0.23439720603E+02  0.90711464166E+02  0.10529684535E+03  0.00000000000E+00 0. -1.
        -12    1    6    6    0    0  0.14231885362E+02 -0.38174019874E+02  0.24086158862E+02  0.47328061475E+02  0.00000000000E+00 0.  1.
</event>
<event>
12    1  0.8453150E-002  0.1885685E+03  0.7818608E-02  0.1161008E+00
         21   -1    0    0  503  502  0.00000000000E+00  0.00000000000E+00  0.11656301657E+03  0.11656301657E+03  0.00000000000E+00 0.  1.
         21   -1    0    0  501  503 -0.00000000000E+00 -0.00000000000E+00 -0.47884598375E+03  0.47884598375E+03  0.00000000000E+00 0.  1.
          6    2    1    2  501    0  0.76282950410E+02 -0.33039915943E+01 -0.36327207702E+03  0.40683788728E+03  0.16649462365E+03 0.  0.
         24    2    3    3    0    0  0.88172908405E+02 -0.53059707149E+02 -0.25469456824E+03  0.28672057902E+03  0.82155785218E+02 0.  0.
         -6    2    1    2    0  502 -0.76282950410E+02  0.33039915943E+01  0.98910984320E+00  0.18857111304E+03  0.17241833270E+03 0.  0.
        -24    2    5    5    0    0 -0.99523261456E+02  0.72459531802E+01  0.49016962715E+02  0.13486435583E+03  0.76343620763E+02 0.  0.
          5    1    3    3  501    0 -0.11889957995E+02  0.49755715555E+02 -0.10857750878E+03  0.12011730826E+03  0.47000000000E+01 0. -1.
        -13    1    4    4    0    0  0.13142480144E+02  0.15587665941E+02 -0.12187930086E+02  0.23753857657E+02  0.00000000000E+00 0.  1.
         14    1    4    4    0    0  0.75030428262E+02 -0.68647373090E+02 -0.24250663815E+03  0.26296672136E+03  0.00000000000E+00 0. -1.
         -5    1    5    5    0  502  0.23240311046E+02 -0.39419615859E+01 -0.48027852871E+02  0.53706757211E+02  0.47000000000E+01 0.  1.
         13    1    6    6    0    0 -0.25163590636E+02  0.23364907895E+02  0.47689946649E+02  0.58766114608E+02  0.00000000000E+00 0. -1.
        -14    1    6    6    0    0 -0.74359670819E+02 -0.16118954714E+02  0.13270160652E+01  0.76098241222E+02  0.00000000000E+00 0.  1.
</event>
<event>
12    1  0.8453150E-002  0.2737459E+03  0.7818608E-02  0.1099798E+00
         21   -1    0    0  503  502  0.00000000000E+00  0.00000000000E+00  0.64544066278E+03  0.64544066278E+03  0.00000000000E+00 0. -1.
         21   -1    0    0  501  503 -0.00000000000E+00 -0.00000000000E+00 -0.11728044229E+03  0.11728044229E+03  0.00000000000E+00 0. -1.
          6    2    1    2  501    0 -0.17920444332E+03 -0.11072417408E+03  0.20428212149E+03  0.34156700634E+03  0.17482207935E+03 0.  0.
         24    2    3    3    0    0 -0.49759138598E+02 -0.99520917144E+02  0.65073993950E+02  0.15108710542E+03  0.78818169940E+02 0.  0.
         -6    2    1    2    0  502  0.17920444332E+03  0.11072417408E+03  0.32387809900E+03  0.42115409874E+03  0.16762958165E+03 0.  0.
        -24    2    5    5    0    0  0.20406473727E+03  0.10024345581E+03  0.28536200938E+03  0.37389461472E+03  0.81697852394E+02 0.  0.
          5    1    3    3  501    0 -0.12944530472E+03 -0.11203256932E+02  0.13920812754E+03  0.19047990092E+03  0.47000000000E+01 0. -1.
        -11    1    4    4    0    0 -0.38134348784E+00 -0.27920097102E+02 -0.16002146491E+02  0.32183006966E+02  0.00000000000E+00 0.  1.
         12    1    4    4    0    0 -0.49377795110E+02 -0.71600820043E+02  0.81076140441E+02  0.11890409846E+03  0.00000000000E+00 0. -1.
         -5    1    5    5    0  502 -0.24860293950E+02  0.10480718263E+02  0.38516089619E+02  0.47259484023E+02  0.47000000000E+01 0.  1.
         11    1    6    6    0    0  0.48532757372E+01  0.20651465489E+02  0.67479577138E+01  0.22261452009E+02  0.00000000000E+00 0. -1.
        -12    1    6    6    0    0  0.19921146153E+03  0.79591990324E+02  0.27861405167E+03  0.35163316271E+03  0.00000000000E+00 0.  1.
</event>
<event>
12    1  0.8453150E-002  0.1909982E+03  0.7818608E-02  0.1157873E+00
         21   -1    0    0  501  502  0.00000000000E+00  0.00000000000E+00  0.83973314514E+03  0.83973314514E+03  0.00000000000E+00 0.  1.
         21   -1    0    0  502  503 -0.00000000000E+00 -0.00000000000E+00 -0.58140790325E+02  0.58140790325E+02  0.00000000000E+00 0.  1.
         -6    2    1    2    0  503  0.75809065916E+02  0.26465202344E+02  0.16373792902E+03  0.25157586283E+03  0.17329998254E+03 0.  0.
        -24    2    3    3    0    0  0.97710965146E+00 -0.32911254084E+02  0.35946191122E+02  0.91956930583E+02  0.77973348251E+02 0.  0.
          6    2    1    2  501    0 -0.75809065916E+02 -0.26465202344E+02  0.61785442579E+03  0.64629807264E+03  0.17178383454E+03 0.  0.
         24    2    5    5    0    0  0.15657475395E+02  0.17603759228E+02  0.35113845593E+03  0.36087260051E+03  0.79848416992E+02 0.  0.
          5    1    5    5  501    0 -0.91466541311E+02 -0.44068961572E+02  0.26671596987E+03  0.28542547212E+03  0.47000000000E+01 0. -1.
        -11    1    6    6    0    0 -0.19146817484E+02  0.18228038019E+02  0.28417383672E+03  0.28540082597E+03  0.00000000000E+00 0.  1.
         12    1    6    6    0    0  0.34804292879E+02 -0.62427879109E+00  0.66964619205E+02  0.75471774539E+02  0.00000000000E+00 0. -1.
         -5    1    3    3    0  503  0.74831956265E+02  0.59376456428E+02  0.12779173790E+03  0.15961893225E+03  0.47000000000E+01 0.  1.
         13    1    4    4    0    0 -0.85385826810E+01 -0.51672311688E+02  0.45004575707E+02  0.69053218781E+02  0.00000000000E+00 0. -1.
        -14    1    4    4    0    0  0.95156923324E+01  0.18761057604E+02 -0.90583845859E+01  0.22903711802E+02  0.00000000000E+00 0.  1.
</event>
<event>
12    1  0.8453150E-002  0.2754507E+03  0.7818608E-02  0.1098241E+00
         21   -1    0    0  501  502  0.00000000000E+00  0.00000000000E+00  0.27120762757E+03  0.27120762757E+03  0.00000000000E+00 0.  1.
         21   -1    0    0  502  503 -0.00000000000E+00 -0.00000000000E+00 -0.36658190410E+03  0.36658190410E+03  0.00000000000E+00 0. -1.
         -6    2    1    2    0  503 -0.20730519830E+03 -0.57557120530E+02 -0.20313136605E+03  0.34201142249E+03  0.17152607347E+03 0.  0.
        -24    2    3    3    0    0 -0.11077505194E+03 -0.67286302223E+02 -0.18777875466E+03  0.24367262644E+03  0.85539052933E+02 0.  0.
          6    2    1    2  501    0  0.20730519830E+03  0.57557120530E+02  0.10775708952E+03  0.29577810918E+03  0.17200241907E+03 0.  0.
         24    2    5    5    0    0  0.86245556429E+02  0.35630697591E+02 -0.12610362552E+02  0.12359617509E+03  0.80057171060E+02 0.  0.
          5    1    5    5  501    0  0.12105964187E+03  0.21926422939E+02  0.12036745207E+03  0.17218193410E+03  0.47000000000E+01 0. -1.
        -13    1    6    6    0    0  0.40602545174E+02  0.39779804930E+02  0.27084336135E+02  0.62964758546E+02  0.00000000000E+00 0.  1.
         14    1    6    6    0    0  0.45643011255E+02 -0.41491073383E+01 -0.39694698687E+02  0.60631416542E+02  0.00000000000E+00 0. -1.
         -5    1    3    3    0  503 -0.96530146360E+02  0.97291816927E+01 -0.15352611388E+02  0.98338796052E+02  0.47000000000E+01 0.  1.
         13    1    4    4    0    0 -0.42651042667E+02  0.70524624685E+01 -0.10382440140E+03  0.11246490561E+03  0.00000000000E+00 0. -1.
        -14    1    4    4    0    0 -0.68124009269E+02 -0.74338764691E+02 -0.83954353259E+02  0.13120772083E+03  0.00000000000E+00 0.  1.
</event>
<event>
12    1  0.8453150E-002  0.2454817E+03  0.7818608E-02  0.1116471E+00
         21   -1    0    0  503  502  0.00000000000E+00  0.00000000000E+00  0.12189354130E+03  0.12189354130E+03  0.00000000000E+00 0. -1.
         21   -1    0    0  501  503 -0.00000000000E+00 -0.00000000000E+00 -0.85269430872E+03  0.85269430872E+03  0.00000000000E+00 0. -1.
          6    2    1    2  501    0 -0.17046742290E+03 -0.35523784076E+02 -0.68352899020E+03  0.72627347156E+03  0.17303234827E+03 0.  0.
         24    2    3    3    0    0 -0.15265305344E+02 -0.30463329787E+02 -0.23478361901E+03  0.25139685216E+03  0.83162404436E+02 0.  0.
         -6    2    1    2    0  502  0.17046742290E+03  0.35523784076E+02 -0.47271777221E+02  0.24831437847E+03  0.17059990658E+03 0.  0.
        -24    2    5    5    0    0  0.17592836092E+03  0.17931553993E+02  0.33085054544E+01  0.19427954342E+03  0.80382000331E+02 0.  0.
          5    1    3    3  501    0 -0.15520211756E+03 -0.50604542883E+01 -0.44874537118E+03  0.47487661940E+03  0.47000000000E+01 0. -1.
        -11    1    4    4    0    0 -0.37565471096E+02 -0.10022458850E+02 -0.46111205906E+02  0.60314655020E+02  0.00000000000E+00 0.  1.
         12    1    4    4    0    0  0.22300165752E+02 -0.20440870938E+02 -0.18867241311E+03  0.19108219714E+03  0.00000000000E+00 0. -1.
         -5    1    5    5    0  502 -0.54609380177E+01  0.17592230083E+02 -0.50580282676E+02  0.54034835050E+02  0.47000000000E+01 0.  1.
         11    1    6    6    0    0  0.11130685283E+02  0.26500385451E+02 -0.44072217029E+01  0.29078964684E+02  0.00000000000E+00 0. -1.
        -12    1    6    6    0    0  0.16479767564E+03 -0.85688314584E+01  0.77157271573E+01  0.16520057873E+03  0.00000000000E+00 0.  1.
</event>
<event>
12    1  0.8453150E-002  0.1929933E+03  0.7818608E-02  0.1156741E+00
         21   -1    0    0  501  502  0.00000000000E+00  0.00000000000E+00  0.13238077018E+03  0.13238077018E+03  0.00000000000E+00 0.  1.
         21   -1    0    0  502  503 -0.00000000000E+00 -0.00000000000E+00 -0.27684156902E+03  0.27684156902E+03  0.00000000000E+00 0.  1.
         -6    2    1    2    0  503  0.24210916403E+02 -0.73520792866E+02 -0.57213887060E+02  0.20129542595E+03  0.17679067900E+03 0.  0.
        -24    2    3    3    0    0 -0.52487310573E+02 -0.25513198518E+02 -0.10391802649E+02  0.99306481824E+02  0.79674002662E+02 0.  0.
          6    2    1    2  501    0 -0.24210916403E+02  0.73520792866E+02 -0.87246911780E+02  0.20792691324E+03  0.17213396578E+03 0.  0.
         24    2    5    5    0    0 -0.42023400548E+02  0.99831983492E+02 -0.10548092847E+03  0.17099274602E+03  0.79874287456E+02 0.  0.
          5    1    5    5  501    0  0.17812484145E+02 -0.26311190626E+02  0.18234016695E+02  0.36934167222E+02  0.47000000000E+01 0. -1.
        -11    1    6    6    0    0 -0.33648170569E+02  0.79456677469E+02 -0.28424000903E+02  0.90848702822E+02  0.00000000000E+00 0.  1.
         12    1    6    6    0    0 -0.83752299786E+01  0.20375306023E+02 -0.77056927571E+02  0.80144043194E+02  0.00000000000E+00 0. -1.
         -5    1    3    3    0  503  0.76698226975E+02 -0.48007594348E+02 -0.46822084410E+02  0.10198894413E+03  0.47000000000E+01 0.  1.
         11    1    4    4    0    0 -0.25753080503E+02 -0.40904450459E+02  0.23271471591E+02  0.53646589945E+02  0.00000000000E+00 0. -1.
        -12    1    4    4    0    0 -0.26734230070E+02  0.15391251941E+02 -0.33663274241E+02  0.45659891878E+02  0.00000000000E+00 0.  1.
</event>
<event>
12    1  0.8453150E-002  0.1909275E+03  0.7818608E-02  0.1159273E+00
         21   -1    0    0  501  502  0.00000000000E+00  0.00000000000E+00  0.17760417315E+03  0.17760417315E+03  0.00000000000E+00 0. -1.
         21   -1    0    0  502  503 -0.00000000000E+00 -0.00000000000E+00 -0.22860751151E+03  0.22860751151E+03  0.00000000000E+00 0.  1.
         -6    2    1    2    0  503 -0.81959914357E+02  0.11920721987E+02 -0.99880717019E+02  0.20912719562E+03  0.16400760697E+03 0.  0.
        -24    2    3    3    0    0 -0.88038065717E+01 -0.24462626452E+02 -0.81018374319E+01  0.86159651580E+02  0.81743003906E+02 0.  0.
          6    2    1    2  501    0  0.81959914357E+02 -0.11920721987E+02  0.48877378650E+02  0.19708448904E+03  0.17202838865E+03 0.  0.
         24    2    5    5    0    0  0.78381553377E+02 -0.66175961999E+02  0.55593405042E+02  0.14209693821E+03  0.81104792132E+02 0.  0.
          5    1    5    5  501    0  0.35783609800E+01  0.54255240013E+02 -0.67160263915E+01  0.54987550833E+02  0.47000000000E+01 0. -1.
        -13    1    6    6    0    0  0.33584703161E+02  0.87866634563E+01 -0.60043101159E+01  0.35230519171E+02  0.00000000000E+00 0.  1.
         14    1    6    6    0    0  0.44796850216E+02 -0.74962625456E+02  0.61597715158E+02  0.10686641903E+03  0.00000000000E+00 0. -1.
         -5    1    3    3    0  503 -0.73156107785E+02  0.36383348438E+02 -0.91778879587E+02  0.12296754404E+03  0.47000000000E+01 0.  1.
         11    1    4    4    0    0 -0.43794665154E+02 -0.16515209425E+01 -0.69549578645E+01  0.44374222881E+02  0.00000000000E+00 0. -1.
        -12    1    4    4    0    0  0.34990858582E+02 -0.22811105509E+02 -0.11468795674E+01  0.41785428699E+02  0.00000000000E+00 0.  1.
</event>
<event>
12    1  0.8453150E-002  0.1835968E+03  0.7818608E-02  0.1164522E+00
         21   -1    0    0  501  502  0.00000000000E+00  0.00000000000E+00  0.12227754788E+03  0.12227754788E+03  0.00000000000E+00 0. -1.
         21   -1    0    0  502  503 -0.00000000000E+00 -0.00000000000E+00 -0.29816039965E+03  0.29816039965E+03  0.00000000000E+00 0. -1.
         -6    2    1    2    0  503 -0.26720559033E+02 -0.57929476616E+02 -0.14678497938E+03  0.23454964490E+03  0.17145813837E+03 0.  0.
        -24    2    3    3    0    0 -0.12302419990E+02 -0.58277837685E+02 -0.17439771271E+03  0.20304477018E+03  0.85234738204E+02 0.  0.
          6    2    1    2  501    0  0.26720559033E+02  0.57929476616E+02 -0.29097872384E+02  0.18588830262E+03  0.17215679580E+03 0.  0.
         24    2    5    5    0    0 -0.12209726194E+01  0.38265697034E+02  0.45290468430E+02  0.10389373776E+03  0.85304911179E+02 0.  0.
          5    1    5    5  501    0  0.27941531652E+02  0.19663779581E+02 -0.74388340814E+02  0.81994564866E+02  0.47000000000E+01 0. -1.
        -13    1    6    6    0    0  0.12167566958E+01 -0.26463414055E+02  0.23897438790E+02  0.35677448914E+02  0.00000000000E+00 0.  1.
         14    1    6    6    0    0 -0.24377293152E+01  0.64729111089E+02  0.21393029640E+02  0.68216288845E+02  0.00000000000E+00 0. -1.
         -5    1    3    3    0  503 -0.14418139043E+02  0.34836106952E+00  0.27612733328E+02  0.31504874714E+02  0.47000000000E+01 0.  1.
         13    1    4    4    0    0  0.11666844632E+02 -0.24555761266E+01  0.55265929250E+01  0.13141093834E+02  0.00000000000E+00 0. -1.
        -14    1    4    4    0    0 -0.23969264622E+02 -0.55822261559E+02 -0.17992430564E+03  0.18990367635E+03  0.00000000000E+00 0.  1.
</event>
<event>
12    1  0.8453150E-002  0.2497843E+03  0.7818608E-02  0.1113544E+00
         21   -1    0    0  503  502  0.00000000000E+00  0.00000000000E+00  0.74719367608E+03  0.74719367608E+03  0.00000000000E+00 0. -1.
         21   -1    0    0  501  503 -0.00000000000E+00 -0.00000000000E+00 -0.86733894152E+02  0.86733894152E+02  0.00000000000E+00 0. -1.
          6    2    1    2  501    0 -0.15514791484E+03 -0.92470518451E+02  0.24748922868E+03  0.35162919945E+03  0.17254130906E+03 0.  0.
         24    2    3    3    0    0 -0.58865661042E+02 -0.38152718711E+01  0.38388410388E+02  0.10490006183E+03  0.77785799279E+02 0.  0.
         -6    2    1    2    0  502  0.15514791484E+03  0.92470518451E+02  0.41297055324E+03  0.48229837078E+03  0.17159652778E+03 0.  0.
        -24    2    5    5    0    0  0.19065433775E+02  0.77599826162E+02  0.18151275629E+03  0.21334785319E+03  0.78646055070E+02 0.  0.
          5    1    3    3  501    0 -0.96282253797E+02 -0.88655246580E+02  0.20910081829E+03  0.24672913762E+03  0.47000000000E+01 0. -1.
        -13    1    4    4    0    0 -0.20426410690E+02  0.24233091175E+01  0.57826564289E+02  0.61376072033E+02  0.00000000000E+00 0.  1.
         14    1    4    4    0    0 -0.38439250353E+02 -0.62385809886E+01 -0.19438153901E+02  0.43523989793E+02  0.00000000000E+00 0. -1.
         -5    1    5    5    0  502  0.13608248107E+03  0.14870692289E+02  0.23145779695E+03  0.26895051759E+03  0.47000000000E+01 0.  1.
         13    1    6    6    0    0  0.36267055930E+02  0.84464119267E+02  0.16317490074E+03  0.18728463637E+03  0.00000000000E+00 0. -1.
        -14    1    6    6    0    0 -0.17201622156E+02 -0.68642931055E+01  0.18337855555E+02  0.26063216820E+02  0.00000000000E+00 0.  1.
</event>
<event>
12    1  0.8453150E-002  0.1907475E+03  0.7818608E-02  0.1158615E+00
         21   -1    0    0  503  502  0.00000000000E+00  0.00000000000E+00  0.23705437383E+03  0.23705437383E+03  0.00000000000E+00 0.  1.
         21   -1    0    0  501  503 -0.00000000000E+00 -0.00000000000E+00 -0.19700865002E+03  0.19700865002E+03  0.00000000000E+00 0.  1.
          6    2    1    2  501    0  0.51743344743E+02 -0.63199107150E+02 -0.85198045313E+02  0.20890978998E+03  0.17237486057E+03 0.  0.
         24    2    3    3    0    0 -0.86152007583E+01 -0.51311287604E+02 -0.11177428969E+01  0.10462143242E+03  0.90759709413E+02 0.  0.
         -6    2    1    2    0  502 -0.51743344743E+02  0.63199107150E+02  0.12524376913E+03  0.22515323387E+03  0.16833441759E+03 0.  0.
        -24    2    5    5    0    0 -0.96186108107E+02  0.35595034027E+02  0.11070795190E+03  0.17065071970E+03  0.79665825042E+02 0.  0.
          5    1    3    3  501    0  0.60358545502E+02 -0.11887819546E+02 -0.84080302416E+02  0.10428835756E+03  0.47000000000E+01 0. -1.
        -11    1    4    4    0    0  0.54942678395E+01 -0.75663313356E+02  0.42021042227E+01  0.75978823675E+02  0.00000000000E+00 0.  1.
         12    1    4    4    0    0 -0.14109468598E+02  0.24352025752E+02 -0.53198471195E+01  0.28642608745E+02  0.00000000000E+00 0. -1.
         -5    1    5    5    0  502  0.44442763364E+02  0.27604073123E+02  0.14535817227E+02  0.54502514170E+02  0.47000000000E+01 0.  1.
         13    1    6    6    0    0 -0.69366311790E+02  0.17041261569E+02  0.19877511431E+02  0.74143140397E+02  0.00000000000E+00 0. -1.
        -14    1    6    6    0    0 -0.26819796317E+02  0.18553772458E+02  0.90830440471E+02  0.96507579303E+02  0.00000000000E+00 0.  1.
</event>
<event>
12    1  0.8453150E-002  0.2158728E+03  0.7818608E-02  0.1137095E+00
         21   -1    0    0  501  502  0.00000000000E+00  0.00000000000E+00  0.48850765134E+02  0.48850765134E+02  0.00000000000E+00 0. -1.
         21   -1    0    0  502  503 -0.00000000000E+00 -0.00000000000E+00 -0.10016178622E+04  0.10016178622E+04  0.00000000000E+00 0. -1.
         -6    2    1    2    0  503  0.20395051622E+02  0.12860865988E+03 -0.59415647715E+03  0.63215740731E+03  0.17217700994E+03 0.  0.
        -24    2    3    3    0    0 -0.26745705711E+02  0.21902761390E+02 -0.36370093256E+03  0.37381606759E+03  0.79151881318E+02 0.  0.
          6    2    1    2  501    0 -0.20395051622E+02 -0.12860865988E+03 -0.35861061988E+03  0.41831121999E+03  0.17154169916E+03 0.  0.
         24    2    5    5    0    0 -0.33174258256E+02 -0.49914728436E+02 -0.30756512561E+03  0.32352843963E+03  0.80512938285E+02 0.  0.
          5    1    5    5  501    0  0.12779206634E+02 -0.78693931441E+02 -0.51045494277E+02  0.94782780366E+02  0.47000000000E+01 0. -1.
        -11    1    6    6    0    0  0.19417868783E+02 -0.12071663487E+02 -0.16927747531E+03  0.17081464321E+03  0.00000000000E+00 0.  1.
         12    1    6    6    0    0 -0.52592127039E+02 -0.37843064948E+02 -0.13828765029E+03  0.15271379641E+03  0.00000000000E+00 0. -1.
         -5    1    3    3    0  503  0.47140757333E+02  0.10670589849E+03 -0.23045554459E+03  0.25834133971E+03  0.47000000000E+01 0.  1.
         11    1    4    4    0    0 -0.26492831989E+02  0.50043384598E+02 -0.27457687352E+03  0.28035454332E+03  0.00000000000E+00 0. -1.
        -12    1    4    4    0    0 -0.25287372279E+00 -0.28140623209E+02 -0.89124059038E+02  0.93461524271E+02  0.00000000000E+00 0.  1.
</event>
<event>
12    1  0.8453150E-002  0.2403965E+03  0.7818608E-02  0.1119575E+00
         21   -1    0    0  503  502  0.00000000000E+00  0.00000000000E+00  0.27615752024E+03  0.27615752024E+03  0.00000000000E+00 0. -1.
         21   -1    0    0  501  503 -0.00000000000E+00 -0.00000000000E+00 -0.39453451956E+03  0.39453451956E+03  0.00000000000E+00 0.  1.
          6    2    1    2  501    0  0.15423651979E+03 -0.65632602443E+02 -0.28915525227E+03  0.37603355950E+03  0.17231928335E+03 0.  0.
         24    2    3    3    0    0  0.11020460803E+03  0.77353756343E+01 -0.92780955839E+02  0.16177524867E+03  0.73198590481E+02 0.  0.
         -6    2    1    2    0  502 -0.15423651979E+03  0.65632602443E+02  0.17077825295E+03  0.29465848030E+03  0.17193564432E+03 0.  0.
        -24    2    5    5    0    0 -0.14549446232E+03  0.74175774818E+02  0.71931775039E+02  0.19494827240E+03  0.78485441421E+02 0.  0.
          5    1    3    3  501    0  0.44031911762E+02 -0.73367978077E+02 -0.19637429643E+03  0.21425831083E+03  0.47000000000E+01 0. -1.
        -11    1    4    4    0    0  0.98126866122E+02 -0.16746309107E+02 -0.90237512706E+02  0.13435821308E+03  0.00000000000E+00 0.  1.
         12    1    4    4    0    0  0.12077741908E+02  0.24481684741E+02 -0.25434431331E+01  0.27417035586E+02  0.00000000000E+00 0. -1.
         -5    1    5    5    0  502 -0.87420574736E+01 -0.85431723751E+01  0.98846477915E+02  0.99710207899E+02  0.47000000000E+01 0.  1.
         11    1    6    6    0    0 -0.10547564914E+03  0.14358348458E+02  0.59386119911E+02  0.12189333850E+03  0.00000000000E+00 0. -1.
        -12    1    6    6    0    0 -0.40018813180E+02  0.59817426360E+02  0.12545655128E+02  0.73054933901E+02  0.00000000000E+00 0.  1.
</event>
<event>
12    1  0.8453150E-002  0.2403454E+03  0.7818608E-02  0.1119584E+00
         21   -1    0    0  503  502  0.00000000000E+00  0.00000000000E+00  0.65383201231E+03  0.65383201231E+03  0.00000000000E+00 0. -1.
         21   -1    0    0  501  503 -0.00000000000E+00 -0.00000000000E+00 -0.11814337294E+03  0.11814337294E+03  0.00000000000E+00 0. -1.
          6    2    1    2  501    0  0.11065250401E+03  0.12715019781E+03  0.73805477156E+02  0.25130083762E+03  0.17115406242E+03 0.  0.
         24    2    3    3    0    0  0.75405057183E+02  0.99880644940E+02 -0.15539628865E+02  0.15134760360E+03  0.83681247408E+02 0.  0.
         -6    2    1    2    0  502 -0.11065250401E+03 -0.12715019781E+03  0.46188316221E+03  0.52067454763E+03  0.17133236581E+03 0.  0.
        -24    2    5    5    0    0 -0.28302352917E+02 -0.18517457277E+02  0.27463590403E+03  0.28901478549E+03  0.83431091595E+02 0.  0.
          5    1    3    3  501    0  0.35247446823E+02  0.27269552871E+02  0.89345106020E+02  0.99953234020E+02  0.47000000000E+01 0. -1.
        -11    1    4    4    0    0  0.47933523514E+02  0.38221942019E+01  0.78873215630E+01  0.48728243211E+02  0.00000000000E+00 0.  1.
         12    1    4    4    0    0  0.27471533669E+02  0.96058450738E+02 -0.23426950428E+02  0.10261936039E+03  0.00000000000E+00 0. -1.
         -5    1    5    5    0  502 -0.82350151089E+02 -0.10863274053E+03  0.18724725817E+03  0.23165976214E+03  0.47000000000E+01 0.  1.
         13    1    6    6    0    0 -0.31745755925E+02 -0.48153736137E+02  0.21084635599E+03  0.21859268322E+03  0.00000000000E+00 0. -1.
        -14    1    6    6    0    0  0.34434030077E+01  0.29636278860E+02  0.63789548040E+02  0.70422102270E+02  0.00000000000E+00 0.  1.
</event>
<event>
12    1  0.8453150E-002  0.1850742E+03  0.7818608E-02  0.1163502E+00
         21   -1    0    0  501  502  0.00000000000E+00  0.00000000000E+00  0.66623310266E+03  0.66623310266E+03  0.00000000000E+00 0. -1.
         21   -1    0    0  502  503 -0.00000000000E+00 -0.00000000000E+00 -0.80547599119E+02  0.80547599119E+02  0.00000000000E+00 0.  1.
         -6    2    1    2    0  503 -0.51573333138E+02  0.35825890973E+02  0.64807836017E+02  0.19400044172E+03  0.17173471583E+03 0.  0.
        -24    2    3    3    0    0 -0.13407360621E+01  0.16432322852E+02  0.98188422807E+02  0.13047266930E+03  0.84322786092E+02 0.  0.
          6    2    1    2  501    0  0.51573333138E+02 -0.35825890973E+02  0.52087766752E+03  0.55278026006E+03  0.17409528493E+03 0.  0.
         24    2    5    5    0    0  0.99134075922E+02 -0.14945642987E+02  0.24659336141E+03  0.27358144275E+03  0.63147309288E+02 0.  0.
          5    1    5    5  501    0 -0.47560742783E+02 -0.20880247986E+02  0.27428430611E+03  0.27919881731E+03  0.47000000000E+01 0. -1.
        -11    1    6    6    0    0  0.34495989305E+02 -0.20389416207E+02  0.16255111757E+03  0.16741734496E+03  0.00000000000E+00 0.  1.
         12    1    6    6    0    0  0.64638086617E+02  0.54437732198E+01  0.84042243843E+02  0.10616409778E+03  0.00000000000E+00 0. -1.
         -5    1    3    3    0  503 -0.50232597076E+02  0.19393568121E+02 -0.33380586790E+02  0.63527772414E+02  0.47000000000E+01 0.  1.
         11    1    4    4    0    0 -0.11759048655E+01 -0.33452371484E+02  0.24476843822E+02  0.41467575209E+02  0.00000000000E+00 0. -1.
        -12    1    4    4    0    0 -0.16483119653E+00  0.49884694337E+02  0.73711578985E+02  0.89005094095E+02  0.00000000000E+00 0.  1.
</event>
<event>
12    1  0.8453150E-002  0.2109753E+03  0.7818608E-02  0.1140886E+00
         21   -1    0    0  501  502  0.00000000000E+00  0.00000000000E+00  0.84978115288E+03  0.84978115288E+03  0.00000000000E+00 0.  1.
         21   -1    0    0  502  503 -0.00000000000E+00 -0.00000000000E+00 -0.53134585090E+02  0.53134585090E+02  0.00000000000E+00 0.  1.
         -6    2    1    2    0  503  0.11963169252E+03 -0.23874305664E+02  0.45564684336E+03  0.50192772856E+03  0.17156827945E+03 0.  0.
        -24    2    3    3    0    0  0.15157761689E+03 -0.13583363064E+01  0.38620915011E+03  0.42210796783E+03  0.77717500369E+02 0.  0.
          6    2    1    2  501    0 -0.11963169252E+03  0.23874305664E+02  0.34099972443E+03  0.40098800941E+03  0.17213032067E+03 0.  0.
         24    2    5    5    0    0 -0.96687583582E+02 -0.14098032694E+02  0.11008542827E+03  0.16580333136E+03  0.76319721090E+02 0.  0.
          5    1    5    5  501    0 -0.22944108942E+02  0.37972338358E+02  0.23091429616E+03  0.23518467805E+03  0.47000000000E+01 0. -1.
        -11    1    6    6    0    0 -0.53775776551E+02  0.30462084270E+02  0.49098269399E+02  0.78932963834E+02  0.00000000000E+00 0.  1.
         12    1    6    6    0    0 -0.42911807031E+02 -0.44560116964E+02  0.60987158874E+02  0.86870367526E+02  0.00000000000E+00 0. -1.
         -5    1    3    3    0  503 -0.31945924362E+02 -0.22515969358E+02  0.69437693250E+02  0.79819760732E+02  0.47000000000E+01 0.  1.
         11    1    4    4    0    0  0.83175204967E+02  0.26455017302E+02  0.13922191653E+03  0.16431897244E+03  0.00000000000E+00 0. -1.
        -12    1    4    4    0    0  0.68402411920E+02 -0.27813353609E+02  0.24698723358E+03  0.25778899539E+03  0.00000000000E+00 0.  1.
</event>
<event>
12    1  0.8453150E-002  0.1955043E+03  0.7818608E-02  0.1153618E+00
         21   -1    0    0  503  502  0.00000000000E+00  0.00000000000E+00  0.60284247377E+02  0.60284247377E+02  0.00000000000E+00 0.  1.
         21   -1    0    0  501  503 -0.00000000000E+00 -0.00000000000E+00 -0.71639470085E+03  0.71639470085E+03  0.00000000000E+00 0.  1.
          6    2    1    2  501    0 -0.50180232006E+02  0.76554071464E+02 -0.45997966865E+03  0.49975073758E+03  0.17260047102E+03 0.  0.
         24    2    3    3    0    0  0.53373145640E+01  0.23463399064E+02 -0.38004645862E+03  0.38879026922E+03  0.78380767460E+02 0.  0.
         -6    2    1    2    0  502  0.50180232006E+02 -0.76554071464E+02 -0.19613078482E+03  0.27692821065E+03  0.17275233010E+03 0.  0.
        -24    2    5    5    0    0  0.48746990823E+02 -0.73906014093E+02 -0.47723270889E+02  0.12841576477E+03  0.79841906443E+02 0.  0.
          5    1    3    3  501    0 -0.55517546570E+02  0.53090672400E+02 -0.79933210034E+02  0.11096046836E+03  0.47000000000E+01 0. -1.
        -11    1    4    4    0    0  0.24890078856E+02  0.35197125208E+02 -0.11583383734E+03  0.12359543487E+03  0.00000000000E+00 0.  1.
         12    1    4    4    0    0 -0.19552764292E+02 -0.11733726144E+02 -0.26421262128E+03  0.26519483435E+03  0.00000000000E+00 0. -1.
         -5    1    5    5    0  502  0.14332411832E+01 -0.26480573709E+01 -0.14840751393E+03  0.14851244588E+03  0.47000000000E+01 0.  1.
         13    1    6    6    0    0  0.92575272379E+01  0.13071978827E+02 -0.25866235290E+02  0.30424341720E+02  0.00000000000E+00 0. -1.
        -14    1    6    6    0    0  0.39489463585E+02 -0.86977992921E+02 -0.21857035599E+02  0.97991423053E+02  0.00000000000E+00 0.  1.
</event>
<event>
12    1  0.8453150E-002  0.2077039E+03  0.7818608E-02  0.1143442E+00
         21   -1    0    0  501  502  0.00000000000E+00  0.00000000000E+00  0.24813716930E+02  0.24813716930E+02  0.00000000000E+00 0. -1.
         21   -1    0    0  502  503 -0.00000000000E+00 -0.00000000000E+00 -0.18276542025E+04  0.18276542025E+04  0.00000000000E+00 0. -1.
         -6    2    1    2    0  503 -0.11573807244E+03 -0.15324157301E+01 -0.11075395146E+04  0.11268066105E+04  0.17219672232E+03 0.  0.
        -24    2    3    3    0    0 -0.15185271901E+03 -0.68866876251E+01 -0.88167946198E+03  0.89796651496E+03  0.76671465123E+02 0.  0.
          6    2    1    2  501    0  0.11573807244E+03  0.15324157301E+01 -0.69530097096E+03  0.72566130900E+03  0.17246230153E+03 0.  0.
         24    2    5    5    0    0 -0.73321571306E+01 -0.10091431995E+02 -0.33830225552E+03  0.34783652412E+03  0.79913915522E+02 0.  0.
          5    1    5    5  501    0  0.12307022957E+03  0.11623847725E+02 -0.35699871545E+03  0.37782478489E+03  0.47000000000E+01 0. -1.
        -11    1    6    6    0    0 -0.15802524406E+02  0.33197344905E+02 -0.15181544464E+03  0.15620407395E+03  0.00000000000E+00 0.  1.
         12    1    6    6    0    0  0.84703672754E+01 -0.43288776899E+02 -0.18648681087E+03  0.19163245017E+03  0.00000000000E+00 0. -1.
         -5    1    3    3    0  503  0.36114646566E+02  0.53542718950E+01 -0.22586005266E+03  0.22884009551E+03  0.47000000000E+01 0.  1.
         11    1    4    4    0    0 -0.10506150621E+03  0.23675262752E+02 -0.68824696569E+03  0.69662208114E+03  0.00000000000E+00 0. -1.
        -12    1    4    4    0    0 -0.46791212797E+02 -0.30561950377E+02 -0.19343249630E+03  0.20134443382E+03  0.00000000000E+00 0.  1.
</event>
<event>
12    1  0.8453150E-002  0.2106413E+03  0.7818608E-02  0.1141294E+00
         21   -1    0    0  501  502  0.00000000000E+00  0.00000000000E+00  0.14253945015E+04  0.14253945015E+04  0.00000000000E+00 0.  1.
         21   -1    0    0  502  503 -0.00000000000E+00 -0.00000000000E+00 -0.32010360534E+02  0.32010360534E+02  0.00000000000E+00 0.  1.
         -6    2    1    2    0  503  0.41661147343E+02  0.11374867116E+03  0.83104216982E+03  0.85732189239E+03  0.17232332333E+03 0.  0.
        -24    2    3    3    0    0 -0.26249241900E+02  0.14839313613E+02  0.22584647928E+03  0.24033016163E+03  0.76437729281E+02 0.  0.
          6    2    1    2  501    0 -0.41661147343E+02 -0.11374867116E+03  0.56234197119E+03  0.60008296969E+03  0.17087032088E+03 0.  0.
         24    2    5    5    0    0 -0.49594606955E+02 -0.12967345969E+03  0.55855329110E+03  0.58129513405E+03  0.81531728066E+02 0.  0.
          5    1    5    5  501    0  0.79334596129E+01  0.15924788532E+02  0.37886800902E+01  0.18787835640E+02  0.47000000000E+01 0. -1.
        -11    1    6    6    0    0 -0.20633092235E+02 -0.71136686258E+02  0.43771096456E+03  0.44393359990E+03  0.00000000000E+00 0.  1.
         12    1    6    6    0    0 -0.28961514721E+02 -0.58536773436E+02  0.12084232654E+03  0.13736153415E+03  0.00000000000E+00 0. -1.
         -5    1    3    3    0  503  0.67910389242E+02  0.98909357548E+02  0.60519569054E+03  0.61699173076E+03  0.47000000000E+01 0.  1.
         11    1    4    4    0    0 -0.49800658697E+02 -0.49465115060E+01  0.16018996130E+03  0.16782549652E+03  0.00000000000E+00 0. -1.
        -12    1    4    4    0    0  0.23551416798E+02  0.19785825119E+02  0.65656517983E+02  0.72504665109E+02  0.00000000000E+00 0.  1.
</event>
<event>
12    1  0.8453150E-002  0.2087262E+03  0.7818608E-02  0.1142873E+00
         21   -1    0    0  501  502  0.00000000000E+00  0.00000000000E+00  0.99462816588E+02  0.99462816588E+02  0.00000000000E+00 0. -1.
         21   -1    0    0  502  503 -0.00000000000E+00 -0.00000000000E+00 -0.48859778772E+03  0.48859778772E+03  0.00000000000E+00 0. -1.
         -6    2    1    2    0  503 -0.34907778462E+02  0.10802323188E+03 -0.29139631734E+03  0.35758397116E+03  0.17339812874E+03 0.  0.
        -24    2    3    3    0    0 -0.54436976166E+02  0.11675426974E+03 -0.29848484093E+03  0.33456315988E+03  0.79021287064E+02 0.  0.
          6    2    1    2  501    0  0.34907778462E+02 -0.10802323188E+03 -0.97738653793E+02  0.23047663314E+03  0.17515439577E+03 0.  0.
         24    2    5    5    0    0 -0.76521441711E+01 -0.33124103500E+02 -0.11352258353E+03  0.14277002630E+03  0.79625007986E+02 0.  0.
          5    1    5    5  501    0  0.42559922633E+02 -0.74899128377E+02  0.15783929733E+02  0.87706606843E+02  0.47000000000E+01 0. -1.
        -11    1    6    6    0    0  0.11583516542E+02 -0.53102133746E+02 -0.94908205526E+02  0.10936901728E+03  0.00000000000E+00 0.  1.
         12    1    6    6    0    0 -0.19235660713E+02  0.19978030246E+02 -0.18614378000E+02  0.33401009025E+02  0.00000000000E+00 0. -1.
         -5    1    3    3    0  503  0.19529197704E+02 -0.87310378630E+01  0.70885235933E+01  0.23020811277E+02  0.47000000000E+01 0.  1.
         13    1    4    4    0    0 -0.62202346288E+02  0.48573369301E+02 -0.19530373633E+03  0.21064675054E+03  0.00000000000E+00 0. -1.
        -14    1    4    4    0    0  0.77653701226E+01  0.68180900438E+02 -0.10318110460E+03  0.12391640935E+03  0.00000000000E+00 0.  1.
</event>
<event>
12    1  0.8453150E-002  0.4658865E+03  0.7818608E-02  0.1023104E+00
         21   -1    0    0  503  502  0.00000000000E+00  0.00000000000E+00  0.25476823915E+03  0.25476823915E+03  0.00000000000E+00 0. -1.
         21   -1    0    0  501  503 -0.00000000000E+00 -0.00000000000E+00 -0.16418843934E+04  0.16418843934E+04  0.00000000000E+00 0.  1.
          6    2    1    2  501    0  0.20953845736E+02 -0.43241590729E+03 -0.13515994857E+04  0.14296403190E+04  0.17212696277E+03 0.  0.
         24    2    3    3    0    0 -0.33478496640E+02 -0.37650781764E+03 -0.10675863595E+04  0.11350658119E+04  0.75860501920E+02 0.  0.
         -6    2    1    2    0  502 -0.20953845736E+02  0.43241590729E+03 -0.35516668528E+02  0.46701231357E+03  0.17151235161E+03 0.  0.
        -24    2    5    5    0    0 -0.48627208383E+02  0.18605419198E+03  0.29733274240E+02  0.21061505383E+03  0.80584524289E+02 0.  0.
          5    1    3    3  501    0  0.54432342376E+02 -0.55908089644E+02 -0.28401312619E+03  0.29457450710E+03  0.47000000000E+01 0. -1.
        -11    1    4    4    0    0 -0.55981012920E+02 -0.29262355322E+03 -0.79586649802E+03  0.84980344808E+03  0.00000000000E+00 0.  1.
         12    1    4    4    0    0  0.22502516281E+02 -0.83884264429E+02 -0.27171986150E+03  0.28526236379E+03  0.00000000000E+00 0. -1.
         -5    1    5    5    0  502  0.27673362646E+02  0.24636171531E+03 -0.65249942767E+02  0.25639725974E+03  0.47000000000E+01 0.  1.
         11    1    6    6    0    0  0.25368391176E+01  0.10417311050E+03 -0.13032673528E+02  0.10501582301E+03  0.00000000000E+00 0. -1.
        -12    1    6    6    0    0 -0.51164047500E+02  0.81881081483E+02  0.42765947767E+02  0.10559923082E+03  0.00000000000E+00 0.  1.
</event>
<event>
12    1  0.8453150E-002  0.1747929E+03  0.7818608E-02  0.1173197E+00
         21   -1    0    0  501  502  0.00000000000E+00  0.00000000000E+00  0.41351009352E+03  0.41351009352E+03  0.00000000000E+00 0.  1.
         21   -1    0    0  502  503 -0.00000000000E+00 -0.00000000000E+00 -0.16660074810E+03  0.16660074810E+03  0.00000000000E+00 0.  1.
         -6    2    1    2    0  503 -0.18032641176E+02 -0.18388785801E+02 -0.93585804838E+02  0.19737137043E+03  0.17185409918E+03 0.  0.
        -24    2    3    3    0    0 -0.29829095325E+02  0.47456088060E+02 -0.24681850396E+02  0.10122279435E+03  0.80591594690E+02 0.  0.
          6    2    1    2  501    0  0.18032641176E+02  0.18388785801E+02  0.34049515026E+03  0.38273947119E+03  0.17288502499E+03 0.  0.
         24    2    5    5    0    0  0.75706724917E+01  0.71581644170E+02  0.28965025243E+03  0.30826647874E+03  0.77134339393E+02 0.  0.
          5    1    5    5  501    0  0.10461968684E+02 -0.53192858369E+02  0.50844897828E+02  0.74472992456E+02  0.47000000000E+01 0. -1.
        -11    1    6    6    0    0  0.26983906558E+02  0.21519849995E+01  0.13433346137E+03  0.13703372248E+03  0.00000000000E+00 0.  1.
         12    1    6    6    0    0 -0.19413234066E+02  0.69429659171E+02  0.15531679106E+03  0.17123275626E+03  0.00000000000E+00 0. -1.
         -5    1    3    3    0  503  0.11796454150E+02 -0.65844873861E+02 -0.68903954442E+02  0.96148576079E+02  0.47000000000E+01 0.  1.
         11    1    4    4    0    0 -0.15317529770E+02  0.44594287644E+02  0.22161313106E+02  0.52099913698E+02  0.00000000000E+00 0. -1.
        -12    1    4    4    0    0 -0.14511565555E+02  0.28618004154E+01 -0.46843163502E+02  0.49122880650E+02  0.00000000000E+00 0.  1.
</event>
<event>
12    1  0.8453150E-002  0.2825148E+03  0.7818608E-02  0.1094642E+00
         21   -1    0    0  503  502  0.00000000000E+00  0.00000000000E+00  0.11954430747E+04  0.11954430747E+04  0.00000000000E+00 0. -1.
         21   -1    0    0  501  503 -0.00000000000E+00 -0.00000000000E+00 -0.68032621142E+02  0.68032621142E+02  0.00000000000E+00 0. -1.
          6    2    1    2  501    0  0.12579546870E+03 -0.18520702954E+03  0.66934601113E+03  0.72652508240E+03  0.17230342132E+03 0.  0.
         24    2    3    3    0    0  0.14170930687E+03 -0.18693344817E+03  0.66542851064E+03  0.70938835060E+03  0.73560094389E+02 0.  0.
         -6    2    1    2    0  502 -0.12579546870E+03  0.18520702954E+03  0.45806444242E+03  0.53695061344E+03  0.16842441667E+03 0.  0.
        -24    2    5    5    0    0 -0.75323307706E+02  0.17202088124E+03  0.43318113646E+03  0.47896283492E+03  0.80589800755E+02 0.  0.
          5    1    3    3  501    0 -0.15913838174E+02  0.17264186360E+01  0.39175004915E+01  0.17136731801E+02  0.47000000000E+01 0. -1.
        -11    1    4    4    0    0  0.48284491864E+02 -0.64417688961E+02  0.13644969714E+03  0.15842837705E+03  0.00000000000E+00 0.  1.
         12    1    4    4    0    0  0.93424815006E+02 -0.12251575921E+03  0.52897881350E+03  0.55095997354E+03  0.00000000000E+00 0. -1.
         -5    1    5    5    0  502 -0.50472160990E+02  0.13186148292E+02  0.24883305962E+02  0.57987778517E+02  0.47000000000E+01 0.  1.
         11    1    6    6    0    0 -0.14451046727E+02  0.64236641815E+01  0.62358483098E+01  0.16999471085E+02  0.00000000000E+00 0. -1.
        -12    1    6    6    0    0 -0.60872260979E+02  0.16559721706E+03  0.42694528815E+03  0.46196336384E+03  0.00000000000E+00 0.  1.
</event>
<event>
12    1  0.8453150E-002  0.1823749E+03  0.7818608E-02  0.1166505E+00
         21   -1    0    0  503  502  0.00000000000E+00  0.00000000000E+00  0.45014250031E+02  0.45014250031E+02  0.00000000000E+00 0. -1.
         21   -1    0    0  501  503 -0.00000000000E+00 -0.00000000000E+00 -0.75123785455E+03  0.75123785455E+03  0.00000000000E+00 0. -1.
          6    2    1    2  501    0 -0.39403686415E+02  0.46804447157E+02 -0.42716250101E+03  0.46288190958E+03  0.16747702280E+03 0.  0.
         24    2    3    3    0    0 -0.26134014581E+02  0.32287614353E+02 -0.43133911855E+03  0.44223350142E+03  0.88269801360E+02 0.  0.
         -6    2    1    2    0  502  0.39403686415E+02 -0.46804447157E+02 -0.27906110351E+03  0.33337019501E+03  0.17180593892E+03 0.  0.
        -24    2    5    5    0    0  0.32066172841E+02 -0.66938870403E+02 -0.89943021057E+02  0.14298381625E+03  0.82737977140E+02 0.  0.
          5    1    3    3  501    0 -0.13269671834E+02  0.14516832805E+02  0.41766175364E+01  0.20648408155E+02  0.47000000000E+01 0. -1.
        -11    1    4    4    0    0 -0.44377805524E+02 -0.14788043164E+02 -0.22455276879E+03  0.22937310613E+03  0.00000000000E+00 0.  1.
         12    1    4    4    0    0  0.18243790943E+02  0.47075657517E+02 -0.20678634976E+03  0.21286039530E+03  0.00000000000E+00 0. -1.
         -5    1    5    5    0  502  0.73375135745E+01  0.20134423246E+02 -0.18911808245E+03  0.19038637876E+03  0.47000000000E+01 0.  1.
         13    1    6    6    0    0  0.31888946889E+02 -0.13020901156E+01 -0.34653475194E+00  0.31917400563E+02  0.00000000000E+00 0. -1.
        -14    1    6    6    0    0  0.17722595198E+00 -0.65636780287E+02 -0.89596486305E+02  0.11106641569E+03  0.00000000000E+00 0.  1.
</event>
<event>
12    1  0.8453150E-002  0.1720527E+03  0.7818608E-02  0.1178862E+00
         21   -1    0    0  503  502  0.00000000000E+00  0.00000000000E+00  0.35462946352E+03  0.35462946352E+03  0.00000000000E+00 0.  1.
         21   -1    0    0  501  503 -0.00000000000E+00 -0.00000000000E+00 -0.90335085564E+02  0.90335085564E+02  0.00000000000E+00 0.  1.
          6    2    1    2  501    0  0.72232835024E+00  0.31525170377E+01  0.45479729874E+02  0.16660866498E+03  0.16024849857E+03 0.  0.
         24    2    3    3    0    0 -0.51950401736E+02  0.28354426762E+01 -0.65340346968E+01  0.92432936224E+02  0.76120103217E+02 0.  0.
         -6    2    1    2    0  502 -0.72232835024E+00 -0.31525170377E+01  0.21881464808E+03  0.27835588411E+03  0.17202234704E+03 0.  0.
        -24    2    5    5    0    0  0.65976199920E+02  0.38947671872E+01  0.15033625321E+03  0.18238850187E+03  0.79350793444E+02 0.  0.
          5    1    3    3  501    0  0.52672730087E+02  0.31707436159E+00  0.52013764571E+02  0.74175728751E+02  0.47000000000E+01 0. -1.
        -11    1    4    4    0    0  0.62342742991E+01  0.24560763993E+02  0.11401811770E+02  0.27786662548E+02  0.00000000000E+00 0.  1.
         12    1    4    4    0    0 -0.58184676035E+02 -0.21725321317E+02 -0.17935846466E+02  0.64646273676E+02  0.00000000000E+00 0. -1.
         -5    1    5    5    0  502 -0.66698528270E+02 -0.70472842249E+01  0.68478394879E+02  0.95967382238E+02  0.47000000000E+01 0.  1.
         11    1    6    6    0    0  0.48686184756E+01  0.10596171717E+02 -0.69088016020E+01  0.13554107882E+02  0.00000000000E+00 0. -1.
        -12    1    6    6    0    0  0.61107581445E+02 -0.67014045297E+01  0.15724505481E+03  0.16883439399E+03  0.00000000000E+00 0.  1.
</event>
<event>
12    1  0.8453150E-002  0.1831846E+03  0.7818608E-02  0.1165217E+00
         21   -1    0    0  501  502  0.00000000000E+00  0.00000000000E+00  0.15461446658E+03  0.15461446658E+03  0.00000000000E+00 0.  1.
         21   -1    0    0  502  503 -0.00000000000E+00 -0.00000000000E+00 -0.32838448223E+03  0.32838448223E+03  0.00000000000E+00 0.  1.
         -6    2    1    2    0  503 -0.34877298838E+02 -0.62211925154E+02 -0.22864799317E+03  0.29177087495E+03  0.16662409514E+03 0.  0.
        -24    2    3    3    0    0 -0.58239004141E+02 -0.68973816234E+02 -0.88648348891E+02  0.14959674635E+03  0.79821600002E+02 0.  0.
          6    2    1    2  501    0  0.34877298838E+02  0.62211925154E+02  0.54877977519E+02  0.19122807386E+03  0.16873006315E+03 0.  0.
         24    2    5    5    0    0  0.29261500396E+02  0.68297849678E+02 -0.23305712859E+02  0.11246669303E+03  0.81146590271E+02 0.  0.
          5    1    5    5  501    0  0.56157984413E+01 -0.60859245245E+01  0.78183690378E+02  0.78761380832E+02  0.47000000000E+01 0. -1.
        -11    1    6    6    0    0 -0.14607612828E+02  0.13194357274E+02  0.21373866121E+02  0.29057108758E+02  0.00000000000E+00 0.  1.
         12    1    6    6    0    0  0.43869113224E+02  0.55103492404E+02 -0.44679578980E+02  0.83409584269E+02  0.00000000000E+00 0. -1.
         -5    1    3    3    0  503  0.23361705303E+02  0.67618910803E+01 -0.13999964428E+03  0.14217412861E+03  0.47000000000E+01 0.  1.
         11    1    4    4    0    0  0.17294580597E+01 -0.20043129211E+02  0.11386083638E+02  0.23116248708E+02  0.00000000000E+00 0. -1.
        -12    1    4    4    0    0 -0.59968462200E+02 -0.48930687023E+02 -0.10003443253E+03  0.12648049764E+03  0.00000000000E+00 0.  1.
</event>
<event>
12    1  0.8453150E-002  0.2352136E+03  0.7818608E-02  0.1123135E+00
         21   -1    0    0  501  502  0.00000000000E+00  0.00000000000E+00  0.13488742139E+03  0.13488742139E+03  0.00000000000E+00 0.  1.
         21   -1    0    0  502  503 -0.00000000000E+00 -0.00000000000E+00 -0.69011059664E+03  0.69011059664E+03  0.00000000000E+00 0.  1.
         -6    2    1    2    0  503  0.76304982760E+02 -0.13962014389E+03 -0.54109984916E+03  0.59001229465E+03  0.17323171219E+03 0.  0.
        -24    2    3    3    0    0 -0.19044665952E+02 -0.13926061465E+02 -0.17902541856E+03  0.19503059741E+03  0.73689883598E+02 0.  0.
          6    2    1    2  501    0 -0.76304982760E+02  0.13962014389E+03 -0.14123326093E+02  0.23498572339E+03  0.17234438454E+03 0.  0.
         24    2    5    5    0    0 -0.55602756259E+02  0.68415961206E+02  0.57591751406E+02  0.13172023954E+03  0.79126490020E+02 0.  0.
          5    1    5    5  501    0 -0.20702226501E+02  0.71204182683E+02 -0.71715077499E+02  0.10326548385E+03  0.47000000000E+01 0. -1.
        -13    1    6    6    0    0  0.18625810575E+02  0.77449823377E+01  0.20963166247E+02  0.29092265469E+02  0.00000000000E+00 0.  1.
         14    1    6    6    0    0 -0.74228566834E+02  0.60670978868E+02  0.36628585159E+02  0.10262797407E+03  0.00000000000E+00 0. -1.
         -5    1    3    3    0  503  0.95349648712E+02 -0.12569408242E+03 -0.36207443060E+03  0.39498169724E+03  0.47000000000E+01 0.  1.
         13    1    4    4    0    0  0.13191611278E+01  0.24387013448E+02 -0.24754653580E+02  0.34774408476E+02  0.00000000000E+00 0. -1.
        -14    1    4    4    0    0 -0.20363827080E+02 -0.38313074913E+02 -0.15427076498E+03  0.16025618893E+03  0.00000000000E+00 0.  1.
</event>
<event>
12    1  0.8453150E-002  0.2315741E+03  0.7818608E-02  0.1125607E+00
         21   -1    0    0  501  502  0.00000000000E+00  0.00000000000E+00  0.12376671242E+03  0.12376671242E+03  0.00000000000E+00 0. -1.
         21   -1    0    0  502  503 -0.00000000000E+00 -0.00000000000E+00 -0.44965408284E+03  0.44965408284E+03  0.00000000000E+00 0. -1.
         -6    2    1    2    0  503  0.83012290497E+02 -0.13084034275E+03 -0.21903050532E+03  0.31874896686E+03  0.17209388702E+03 0.  0.
        -24    2    3    3    0    0  0.88345273885E+02 -0.13457796136E+03 -0.23936772880E+03  0.29688339658E+03  0.70190643756E+02 0.  0.
          6    2    1    2  501    0 -0.83012290497E+02  0.13084034275E+03 -0.10685686509E+03  0.25467182840E+03  0.17154916176E+03 0.  0.
         24    2    5    5    0    0 -0.50861481107E+02  0.64243677491E+02  0.11809683385E+02  0.11476961221E+03  0.79488709308E+02 0.  0.
          5    1    5    5  501    0 -0.32150809391E+02  0.66596665256E+02 -0.11866654847E+03  0.13990221619E+03  0.47000000000E+01 0. -1.
        -11    1    6    6    0    0  0.31868913428E+01 -0.12729484289E+02  0.15913940049E+02  0.20626428062E+02  0.00000000000E+00 0.  1.
         12    1    6    6    0    0 -0.54048372450E+02  0.76973161780E+02 -0.41042566643E+01  0.94143184149E+02  0.00000000000E+00 0. -1.
         -5    1    3    3    0  503 -0.53329833875E+01  0.37376186142E+01  0.20337223481E+02  0.21865570279E+02  0.47000000000E+01 0.  1.
         13    1    4    4    0    0  0.76645913054E+02 -0.77095487532E+02 -0.19528434482E+03  0.22350455369E+03  0.00000000000E+00 0. -1.
        -14    1    4    4    0    0  0.11699360831E+02 -0.57482473829E+02 -0.44083383981E+02  0.73378842895E+02  0.00000000000E+00 0.  1.
</event>
<event>
12    1  0.8453150E-002  0.2022532E+03  0.7818608E-02  0.1148814E+00
         21   -1    0    0  503  502  0.00000000000E+00  0.00000000000E+00  0.33054087348E+02  0.33054087348E+02  0.00000000000E+00 0. -1.
         21   -1    0    0  501  503 -0.00000000000E+00 -0.00000000000E+00 -0.15244558224E+04  0.15244558224E+04  0.00000000000E+00 0. -1.
          6    2    1    2  501    0 -0.21864599755E+02 -0.10312717795E+03 -0.11062840861E+04  0.11246203094E+04  0.17260673714E+03 0.  0.
         24    2    3    3    0    0 -0.60325446304E+02 -0.11681035412E+02 -0.57338380266E+03  0.58254426700E+03  0.82542303111E+02 0.  0.
         -6    2    1    2    0  502  0.21864599755E+02  0.10312717795E+03 -0.38511764892E+03  0.43288960027E+03  0.16722597572E+03 0.  0.
        -24    2    5    5    0    0  0.31267317001E+01  0.81607817026E+02 -0.11694201927E+03  0.16315927395E+03  0.79220581644E+02 0.  0.
          5    1    3    3  501    0  0.38460846549E+02 -0.91446142542E+02 -0.53290028344E+03  0.54207604244E+03  0.47000000000E+01 0. -1.
        -11    1    4    4    0    0  0.96416058997E+01  0.20742250568E+02 -0.19833901329E+03  0.19965361433E+03  0.00000000000E+00 0.  1.
         12    1    4    4    0    0 -0.69967052204E+02 -0.32423285981E+02 -0.37504478937E+03  0.38289065267E+03  0.00000000000E+00 0. -1.
         -5    1    5    5    0  502  0.18737868055E+02  0.21519360929E+02 -0.26817562965E+03  0.26973032631E+03  0.47000000000E+01 0.  1.
         13    1    6    6    0    0  0.19565163829E+02  0.75668226129E+02 -0.12206753173E+03  0.14494467352E+03  0.00000000000E+00 0. -1.
        -14    1    6    6    0    0 -0.16438432129E+02  0.59395908966E+01  0.51255124586E+01  0.18214600430E+02  0.00000000000E+00 0.  1.
</event>
<event>
12    1  0.8453150E-002  0.2902308E+03  0.7818608E-02  0.1090373E+00
         21   -1    0    0  503  502  0.00000000000E+00  0.00000000000E+00  0.18854300014E+04  0.18854300014E+04  0.00000000000E+00 0. -1.
         21   -1    0    0  501  503 -0.00000000000E+00 -0.00000000000E+00 -0.44663546170E+02  0.44663546170E+02  0.00000000000E+00 0. -1.
          6    2    1    2  501    0  0.19044928003E+03 -0.13537043547E+03  0.97594409521E+03  0.10178701063E+04  0.17028386079E+03 0.  0.
         24    2    3    3    0    0  0.83398219399E+02 -0.78858574450E+02  0.29980241807E+03  0.33096168620E+03  0.80499752134E+02 0.  0.
         -6    2    1    2    0  502 -0.19044928003E+03  0.13537043547E+03  0.86482235997E+03  0.91222344123E+03  0.17215635148E+03 0.  0.
        -24    2    5    5    0    0 -0.15933899479E+03  0.40785035941E+02  0.42758647595E+03  0.46376881038E+03  0.72103957227E+02 0.  0.
          5    1    3    3  501    0  0.10705106063E+03 -0.56511861021E+02  0.67614167715E+03  0.68690842009E+03  0.47000000000E+01 0. -1.
        -11    1    4    4    0    0  0.45045492156E+02  0.71924734439E+01  0.10928802297E+03  0.11842592622E+03  0.00000000000E+00 0.  1.
         12    1    4    4    0    0  0.38352727243E+02 -0.86051047894E+02  0.19051439510E+03  0.21253575998E+03  0.00000000000E+00 0. -1.
         -5    1    5    5    0  502 -0.31110285238E+02  0.94585399529E+02  0.43723588403E+03  0.44845463085E+03  0.47000000000E+01 0.  1.
         11    1    6    6    0    0 -0.80229213567E+02  0.12704121423E+02  0.30182388503E+03  0.31256323998E+03  0.00000000000E+00 0. -1.
        -12    1    6    6    0    0 -0.79109781227E+02  0.28080914518E+02  0.12576259092E+03  0.15120557040E+03  0.00000000000E+00 0.  1.
</event>
<event>
12    1  0.8453150E-002  0.2212149E+03  0.7818608E-02  0.1133071E+00
         21   -1    0    0  503  502  0.00000000000E+00  0.00000000000E+00  0.17848161044E+02  0.17848161044E+02  0.00000000000E+00 0.  1.
         21   -1    0    0  501  503 -0.00000000000E+00 -0.00000000000E+00 -0.28666593380E+04  0.28666593380E+04  0.00000000000E+00 0.  1.
          6    2    1    2  501    0  0.10896395064E+03  0.86278944291E+02 -0.17340784528E+04  0.17481316013E+04  0.17210118007E+03 0.  0.
         24    2    3    3    0    0  0.38447645872E+01  0.42283158424E+02 -0.10955189519E+04  0.10994668198E+04  0.82842418705E+02 0.  0.
         -6    2    1    2    0  502 -0.10896395064E+03 -0.86278944291E+02 -0.11147327242E+04  0.11363758978E+04  0.17147575904E+03 0.  0.
        -24    2    5    5    0    0 -0.14449109896E+03 -0.66860302102E+02 -0.92002098976E+03  0.93744371976E+03  0.83750393682E+02 0.  0.
          5    1    3    3  501    0  0.10511918606E+03  0.43995785867E+02 -0.63855950092E+03  0.64866478143E+03  0.47000000000E+01 0. -1.
        -11    1    4    4    0    0  0.64579625665E+01 -0.12394290211E+02 -0.70410346567E+03  0.70424215585E+03  0.00000000000E+00 0.  1.
         12    1    4    4    0    0 -0.26131979794E+01  0.54677448635E+02 -0.39141548620E+03  0.39522466400E+03  0.00000000000E+00 0. -1.
         -5    1    5    5    0  502  0.35527148319E+02 -0.19418642189E+02 -0.19471173444E+03  0.19893217805E+03  0.47000000000E+01 0.  1.
         13    1    6    6    0    0 -0.50692152589E+02 -0.32138680794E+02 -0.57771403522E+03  0.58082363556E+03  0.00000000000E+00 0. -1.
        -14    1    6    6    0    0 -0.93798946374E+02 -0.34721621308E+02 -0.34230695455E+03  0.35662008420E+03  0.00000000000E+00 0.  1.
</event>
<event>
12    1  0.8453150E-002  0.2562021E+03  0.7818608E-02  0.1109896E+00
         21   -1    0    0  501  502  0.00000000000E+00  0.00000000000E+00  0.26324090972E+03  0.26324090972E+03  0.00000000000E+00 0.  1.
         21   -1    0    0  502  503 -0.00000000000E+00 -0.00000000000E+00 -0.67991927908E+03  0.67991927908E+03  0.00000000000E+00 0.  1.
         -6    2    1    2    0  503  0.18402766676E+03 -0.40892938003E+02 -0.58440859052E+03  0.63693653874E+03  0.16916364620E+03 0.  0.
        -24    2    3    3    0    0  0.59959981954E+02  0.30913377459E+02 -0.31919665195E+03  0.33542634038E+03  0.77932604628E+02 0.  0.
          6    2    1    2  501    0 -0.18402766676E+03  0.40892938003E+02  0.16773022116E+03  0.30622365007E+03  0.17349663472E+03 0.  0.
         24    2    5    5    0    0 -0.70661753856E+02 -0.42888839931E+02  0.78761523518E+02  0.13946413555E+03  0.80089521590E+02 0.  0.
          5    1    5    5  501    0 -0.11336591291E+03  0.83781777935E+02  0.88968697638E+02  0.16675951452E+03  0.47000000000E+01 0. -1.
        -11    1    6    6    0    0 -0.63818438963E+02 -0.17511416506E+02  0.89298279662E+02  0.11114686505E+03  0.00000000000E+00 0.  1.
         12    1    6    6    0    0 -0.68433148926E+01 -0.25377423425E+02 -0.10536756144E+02  0.28317270498E+02  0.00000000000E+00 0. -1.
         -5    1    3    3    0  503  0.12406768481E+03 -0.71806315462E+02 -0.26521193857E+03  0.30151019836E+03  0.47000000000E+01 0.  1.
         13    1    4    4    0    0  0.20495700223E+02  0.10683856371E+02 -0.13995754117E+02  0.27020356176E+02  0.00000000000E+00 0. -1.
        -14    1    4    4    0    0  0.39464281731E+02  0.20229521088E+02 -0.30520089783E+03  0.30840598420E+03  0.00000000000E+00 0.  1.
</event>
<event>
12    1  0.8453150E-002  0.2095342E+03  0.7818608E-02  0.1142174E+00
         21   -1    0    0  503  502  0.00000000000E+00  0.00000000000E+00  0.10539235589E+03  0.10539235589E+03  0.00000000000E+00 0. -1.
         21   -1    0    0  501  503 -0.00000000000E+00 -0.00000000000E+00 -0.45925043776E+03  0.45925043776E+03  0.00000000000E+00 0. -1.
          6    2    1    2  501    0  0.10123005081E+03 -0.61252794480E+02 -0.26580909633E+03  0.33846574637E+03  0.17293107806E+03 0.  0.
         24    2    3    3    0    0  0.74399291139E+02 -0.67898790912E+02 -0.27907433492E+03  0.30744775985E+03  0.80598637074E+02 0.  0.
         -6    2    1    2    0  502 -0.10123005081E+03  0.61252794480E+02 -0.88048985542E+02  0.22617704728E+03  0.17147595996E+03 0.  0.
        -24    2    5    5    0    0 -0.41125696858E+02 -0.86686034526E+01  0.13874774843E+02  0.88655855519E+02  0.76817209745E+02 0.  0.
          5    1    3    3  501    0  0.26830759670E+02  0.66459964319E+01  0.13265238591E+02  0.31017986523E+02  0.47000000000E+01 0. -1.
        -13    1    4    4    0    0 -0.91357093475E+01 -0.37559702339E+01 -0.93894414819E+02  0.94412550182E+02  0.00000000000E+00 0.  1.
         14    1    4    4    0    0  0.83535000486E+02 -0.64142820678E+02 -0.18517992010E+03  0.21303520967E+03  0.00000000000E+00 0. -1.
         -5    1    5    5    0  502 -0.60104353951E+02  0.69921397933E+02 -0.10192376038E+03  0.13752119176E+03  0.47000000000E+01 0.  1.
         11    1    6    6    0    0 -0.55671538070E+02  0.12229284023E+02 -0.46200518046E+01  0.57185841057E+02  0.00000000000E+00 0. -1.
        -12    1    6    6    0    0  0.14545841212E+02 -0.20897887476E+02  0.18494826648E+02  0.31470014462E+02  0.00000000000E+00 0.  1.
</event>
<event>
12    1  0.8453150E-002  0.2136703E+03  0.7818608E-02  0.1139200E+00
         21   -1    0    0  503  502  0.00000000000E+00  0.00000000000E+00  0.80666691845E+03  0.80666691845E+03  0.00000000000E+00 0. -1.
         21   -1    0    0  501  503 -0.00000000000E+00 -0.00000000000E+00 -0.79051325567E+02  0.79051325567E+02  0.00000000000E+00 0.  1.
          6    2    1    2  501    0  0.11283929677E+03 -0.44601228866E+02  0.12577251091E+03  0.24793890651E+03  0.17587779948E+03 0.  0.
         24    2    3    3    0    0  0.21947288700E+02  0.14950138588E+02  0.27391187800E+01  0.83722500279E+02  0.79352152814E+02 0.  0.
         -6    2    1    2    0  502 -0.11283929677E+03  0.44601228866E+02  0.60184308197E+03  0.63777933751E+03  0.17270035182E+03 0.  0.
        -24    2    5    5    0    0 -0.13065467035E+03  0.56628691914E+02  0.59090518581E+03  0.61320750453E+03  0.81099034358E+02 0.  0.
          5    1    3    3  501    0  0.90892008071E+02 -0.59551367454E+02  0.12303339213E+03  0.16421640623E+03  0.47000000000E+01 0. -1.
        -13    1    4    4    0    0  0.26414751983E+02  0.39359421395E+02 -0.18672872043E+02  0.50946828412E+02  0.00000000000E+00 0.  1.
         14    1    4    4    0    0 -0.44674632837E+01 -0.24409282807E+02  0.21411990823E+02  0.32775671867E+02  0.00000000000E+00 0. -1.
         -5    1    5    5    0  502  0.17815373575E+02 -0.12027463048E+02  0.10937896168E+02  0.24571832971E+02  0.47000000000E+01 0.  1.
         13    1    6    6    0    0 -0.82137726446E+02  0.45354519651E+02  0.22284639758E+03  0.24179362166E+03  0.00000000000E+00 0. -1.
        -14    1    6    6    0    0 -0.48516943899E+02  0.11274172263E+02  0.36805878822E+03  0.37141388287E+03  0.00000000000E+00 0.  1.
</event>
<event>
12    1  0.8453150E-002  0.2014528E+03  0.7818608E-02  0.1148845E+00
         21   -1    0    0  503  502  0.00000000000E+00  0.00000000000E+00  0.40934068873E+02  0.40934068873E+02  0.00000000000E+00 0.  1.
         21   -1    0    0  501  503 -0.00000000000E+00 -0.00000000000E+00 -0.10215779062E+04  0.10215779062E+04  0.00000000000E+00 0.  1.
          6    2    1    2  501    0 -0.31457840944E+01 -0.10419208518E+03 -0.38998345692E+03  0.43894230414E+03  0.17238724755E+03 0.  0.
         24    2    3    3    0    0  0.55136501004E+01 -0.27939777013E+02 -0.64604381244E+02  0.10460260684E+03  0.77181265889E+02 0.  0.
         -6    2    1    2    0  502  0.31457840944E+01  0.10419208518E+03 -0.59066038039E+03  0.62356967092E+03  0.17056835274E+03 0.  0.
        -24    2    5    5    0    0  0.47811301313E+02  0.17672668903E+02 -0.36341802800E+03  0.37630100218E+03  0.83255855076E+02 0.  0.
          5    1    3    3  501    0 -0.86594341947E+01 -0.76252308172E+02 -0.32537907568E+03  0.33433969730E+03  0.47000000000E+01 0. -1.
        -11    1    4    4    0    0 -0.97338278628E+01 -0.48908842070E+02 -0.60418342289E+02  0.78340272673E+02  0.00000000000E+00 0.  1.
         12    1    4    4    0    0  0.15247477963E+02  0.20969065058E+02 -0.41860389550E+01  0.26262334164E+02  0.00000000000E+00 0. -1.
         -5    1    5    5    0  502 -0.44665517219E+02  0.86519416282E+02 -0.22724235239E+03  0.24726866874E+03  0.47000000000E+01 0.  1.
         13    1    6    6    0    0  0.54279783832E+02  0.43450279214E+02 -0.23076417185E+03  0.24101104686E+03  0.00000000000E+00 0. -1.
        -14    1    6    6    0    0 -0.64684825192E+01 -0.25777610311E+02 -0.13265385615E+03  0.13528995532E+03  0.00000000000E+00 0.  1.
</event>
<event>
12    1  0.8453150E-002  0.1981634E+03  0.7818608E-02  0.1151435E+00
         21   -1    0    0  501  502  0.00000000000E+00  0.00000000000E+00  0.84588795379E+03  0.84588795379E+03  0.00000000000E+00 0.  1.
         21   -1    0    0  502  503 -0.00000000000E+00 -0.00000000000E+00 -0.47194223228E+02  0.47194223228E+02  0.00000000000E+00 0.  1.
         -6    2    1    2    0  503 -0.82692244580E+02 -0.50954468780E+02  0.33632329954E+03  0.39003631099E+03  0.17199010690E+03 0.  0.
        -24    2    3    3    0    0 -0.10173666513E+03 -0.62382741335E+02  0.17629829074E+03  0.22840899644E+03  0.82750389038E+02 0.  0.
          6    2    1    2  501    0  0.82692244580E+02  0.50954468780E+02  0.46237043102E+03  0.50304586603E+03  0.17272626507E+03 0.  0.
         24    2    5    5    0    0  0.64978995804E+02 -0.22335576599E+02  0.16133792424E+03  0.19267858349E+03  0.79837102022E+02 0.  0.
          5    1    5    5  501    0  0.17713248776E+02  0.73290045379E+02  0.30103250678E+03  0.31036728254E+03  0.47000000000E+01 0. -1.
        -11    1    6    6    0    0  0.30710329316E+02  0.13631414665E+02  0.12635053965E+02  0.35896857539E+02  0.00000000000E+00 0.  1.
         12    1    6    6    0    0  0.34268666488E+02 -0.35966991265E+02  0.14870287028E+03  0.15678172595E+03  0.00000000000E+00 0. -1.
         -5    1    3    3    0  503  0.19044420553E+02  0.11428272555E+02  0.16002500880E+03  0.16162731455E+03  0.47000000000E+01 0.  1.
         13    1    4    4    0    0 -0.22586004456E+02 -0.60097992398E+02  0.97180802729E+02  0.11647319308E+03  0.00000000000E+00 0. -1.
        -14    1    4    4    0    0 -0.79150660677E+02 -0.22847489366E+01  0.79117488013E+02  0.11193580336E+03  0.00000000000E+00 0.  1.
</event>
<event>
12    1  0.8453150E-002  0.2291507E+03  0.7818608E-02  0.1130193E+00
         21   -1    0    0  503  502  0.00000000000E+00  0.00000000000E+00  0.51618141008E+03  0.51618141008E+03  0.00000000000E+00 0. -1.
         21   -1    0    0  501  503 -0.00000000000E+00 -0.00000000000E+00 -0.24759131000E+03  0.24759131000E+03  0.00000000000E+00 0. -1.
          6    2    1    2  501    0 -0.10825138665E+03 -0.65140504530E+02 -0.16383810069E+03  0.28169659921E+03  0.19117636550E+03 0.  0.
         24    2    3    3    0    0  0.19324265766E+02 -0.54246452184E+02 -0.89079185464E+02  0.13335505792E+03  0.80823049740E+02 0.  0.
         -6    2    1    2    0  502  0.10825138665E+03  0.65140504530E+02  0.43242820076E+03  0.48207612087E+03  0.17158551646E+03 0.  0.
        -24    2    5    5    0    0  0.12070821281E+03  0.96183241615E+02  0.39536167726E+03  0.43192792840E+03  0.80182235437E+02 0.  0.
          5    1    3    3  501    0 -0.12757565241E+03 -0.10894052346E+02 -0.74758915222E+02  0.14834154128E+03  0.47000000000E+01 0. -1.
        -11    1    4    4    0    0 -0.28712399241E+01 -0.13339234976E+02  0.14432753899E+02  0.19861611051E+02  0.00000000000E+00 0.  1.
         12    1    4    4    0    0  0.22195505690E+02 -0.40907217208E+02 -0.10351193936E+03  0.11349344687E+03  0.00000000000E+00 0. -1.
         -5    1    5    5    0  502 -0.12456826158E+02 -0.31042737085E+02  0.37066523497E+02  0.50148192468E+02  0.47000000000E+01 0.  1.
         13    1    6    6    0    0  0.68940248836E+02  0.89074764539E+02  0.32717959847E+03  0.34602537659E+03  0.00000000000E+00 0. -1.
        -14    1    6    6    0    0  0.51767963971E+02  0.71084770764E+01  0.68182078795E+02  0.85902551818E+02  0.00000000000E+00 0.  1.
</event>
<event>
12    1  0.8453150E-002  0.1825418E+03  0.7818608E-02  0.1168942E+00
         21   -1    0    0  501  502  0.00000000000E+00  0.00000000000E+00  0.20422858098E+03  0.20422858098E+03  0.00000000000E+00 0. -1.
         21   -1    0    0  502  503 -0.00000000000E+00 -0.00000000000E+00 -0.17057734182E+03  0.17057734182E+03  0.00000000000E+00 0. -1.
         -6    2    1    2    0  503 -0.30964979246E+02  0.55791901526E+02 -0.47977629507E+02  0.17484393109E+03  0.15555378841E+03 0.  0.
        -24    2    3    3    0    0 -0.40064234645E+02  0.17074979223E+02  0.24909571861E+02  0.91678850407E+02  0.76732177270E+02 0.  0.
          6    2    1    2  501    0  0.30964979246E+02 -0.55791901526E+02  0.81628868672E+02  0.19996199172E+03  0.17102619599E+03 0.  0.
         24    2    5    5    0    0 -0.42662802864E+02  0.61123467590E+00  0.40805879189E+02  0.98517570764E+02  0.78867633519E+02 0.  0.
          5    1    5    5  501    0  0.73627782110E+02 -0.56403136202E+02  0.40822989484E+02  0.10144442095E+03  0.47000000000E+01 0. -1.
        -11    1    6    6    0    0 -0.12537998475E+02  0.25987417323E+02 -0.13154130208E+02  0.31710856286E+02  0.00000000000E+00 0.  1.
         12    1    6    6    0    0 -0.30124804389E+02 -0.25376182647E+02  0.53960009397E+02  0.66806714478E+02  0.00000000000E+00 0. -1.
         -5    1    3    3    0  503  0.90992553984E+01  0.38716922303E+02 -0.72887201368E+02  0.83165080681E+02  0.47000000000E+01 0.  1.
         11    1    4    4    0    0 -0.27390045823E+02  0.40873161558E+02 -0.72266021610E+01  0.49729807206E+02  0.00000000000E+00 0. -1.
        -12    1    4    4    0    0 -0.12674188822E+02 -0.23798182335E+02  0.32136174022E+02  0.41949043202E+02  0.00000000000E+00 0.  1.
</event>
<event>
12    1  0.8453150E-002  0.1777795E+03  0.7818608E-02  0.1170063E+00
         21   -1    0    0  503  502  0.00000000000E+00  0.00000000000E+00  0.38261144293E+03  0.38261144293E+03  0.00000000000E+00 0.  1.
         21   -1    0    0  501  503 -0.00000000000E+00 -0.00000000000E+00 -0.17594429235E+03  0.17594429235E+03  0.00000000000E+00 0.  1.
          6    2    1    2  501    0 -0.44833758672E+02 -0.10262811747E+02 -0.10032457142E+03  0.20380307032E+03  0.17133382801E+03 0.  0.
         24    2    3    3    0    0 -0.49419696609E+02  0.46524418792E+01 -0.13590128554E+03  0.16467139255E+03  0.78635592986E+02 0.  0.
         -6    2    1    2    0  502  0.44833758672E+02  0.10262811747E+02  0.30699172200E+03  0.35475266495E+03  0.17172694806E+03 0.  0.
        -24    2    5    5    0    0  0.23227138957E+02 -0.32832106468E+02  0.71503668333E+02  0.11433483822E+03  0.79638140647E+02 0.  0.
          5    1    3    3  501    0  0.45859379365E+01 -0.14915253626E+02  0.35576714123E+02  0.39131677772E+02  0.47000000000E+01 0. -1.
        -13    1    4    4    0    0 -0.42292436473E+02  0.38968164818E+02 -0.76558179029E+02  0.95751359407E+02  0.00000000000E+00 0.  1.
         14    1    4    4    0    0 -0.71272601357E+01 -0.34315722939E+02 -0.59343106516E+02  0.68920033146E+02  0.00000000000E+00 0. -1.
         -5    1    5    5    0  502  0.21606619715E+02  0.43094918214E+02  0.23548805367E+03  0.24041782673E+03  0.47000000000E+01 0.  1.
         13    1    6    6    0    0  0.35379554013E+02 -0.40857717204E+02  0.15150446377E+02  0.56130222899E+02  0.00000000000E+00 0. -1.
        -14    1    6    6    0    0 -0.12152415056E+02  0.80256107363E+01  0.56353221957E+02  0.58204615318E+02  0.00000000000E+00 0.  1.
</event>
<event>
12    1  0.8453150E-002  0.1980380E+03  0.7818608E-02  0.1151641E+00
         21   -1    0    0  501  502  0.00000000000E+00  0.00000000000E+00  0.21244441654E+04  0.21244441654E+04  0.00000000000E+00 0. -1.
         21   -1    0    0  502  503 -0.00000000000E+00 -0.00000000000E+00 -0.20277526041E+02  0.20277526041E+02  0.00000000000E+00 0.  1.
         -6    2    1    2    0  503  0.78846897449E+02 -0.56717270848E+02  0.13793240025E+04  0.13933124188E+04  0.17132165800E+03 0.  0.
        -24    2    3    3    0    0  0.79914366865E+02 -0.81759456489E+01  0.12495960927E+04  0.12547165303E+04  0.79812431944E+02 0.  0.
          6    2    1    2  501    0 -0.78846897449E+02  0.56717270848E+02  0.72484263683E+03  0.75140927260E+03  0.17258436989E+03 0.  0.
         24    2    5    5    0    0 -0.37242036732E+02 -0.17279802675E+02  0.54559277277E+03  0.55301790411E+03  0.80447297570E+02 0.  0.
          5    1    5    5  501    0 -0.41604860717E+02  0.73997073523E+02  0.17924986407E+03  0.19839136850E+03  0.47000000000E+01 0. -1.
        -13    1    6    6    0    0 -0.55119017506E+02 -0.88650305349E+01  0.22520742225E+03  0.23202387354E+03  0.00000000000E+00 0.  1.
         14    1    6    6    0    0  0.17876980774E+02 -0.84147721403E+01  0.32038535052E+03  0.32099403056E+03  0.00000000000E+00 0. -1.
         -5    1    3    3    0  503 -0.10674694161E+01 -0.48541325199E+02  0.12972790977E+03  0.13859588853E+03  0.47000000000E+01 0.  1.
         13    1    4    4    0    0  0.92042356850E+02 -0.14765065185E+01  0.86773366515E+03  0.87260282441E+03  0.00000000000E+00 0. -1.
        -14    1    4    4    0    0 -0.12127989985E+02 -0.66994391305E+01  0.38186242758E+03  0.38211370589E+03  0.00000000000E+00 0.  1.
</event>
<event>
12    1  0.8453150E-002  0.1870360E+03  0.7818608E-02  0.1161355E+00
         21   -1    0    0  501  502  0.00000000000E+00  0.00000000000E+00  0.62817540386E+02  0.62817540386E+02  0.00000000000E+00 0.  1.
         21   -1    0    0  502  503 -0.00000000000E+00 -0.00000000000E+00 -0.82416405634E+03  0.82416405634E+03  0.00000000000E+00 0.  1.
         -6    2    1    2    0  503  0.32624493651E+02  0.64315571905E+02 -0.63382693860E+03  0.66061089964E+03  0.17166631078E+03 0.  0.
        -24    2    3    3    0    0  0.19511627675E+02  0.93000699599E+02 -0.29342608039E+03  0.31871966244E+03  0.80333833680E+02 0.  0.
          6    2    1    2  501    0 -0.32624493651E+02 -0.64315571905E+02 -0.12751957736E+03  0.22637069709E+03  0.17257346121E+03 0.  0.
         24    2    5    5    0    0 -0.61290440280E+02 -0.97062582007E+02 -0.74871716972E+02  0.15790179634E+03  0.78419005274E+02 0.  0.
          5    1    5    5  501    0  0.28665946629E+02  0.32747010102E+02 -0.52647860385E+02  0.68468900750E+02  0.47000000000E+01 0. -1.
        -11    1    6    6    0    0 -0.12245969829E+02 -0.48938131270E+02  0.70960565811E+01  0.50943679571E+02  0.00000000000E+00 0.  1.
         12    1    6    6    0    0 -0.49044470451E+02 -0.48124450737E+02 -0.81967773553E+02  0.10695811676E+03  0.00000000000E+00 0. -1.
         -5    1    3    3    0  503  0.13112865976E+02 -0.28685127694E+02 -0.34040085821E+03  0.34189123720E+03  0.47000000000E+01 0.  1.
         11    1    4    4    0    0 -0.99688436895E+01 -0.70752950627E+01 -0.82519885662E+02  0.83420436191E+02  0.00000000000E+00 0. -1.
        -12    1    4    4    0    0  0.29480471365E+02  0.10007599466E+03 -0.21090619473E+03  0.23529922625E+03  0.00000000000E+00 0.  1.
</event>
<event>
12    1  0.8453150E-002  0.3267966E+03  0.7818608E-02  0.1072578E+00
         21   -1    0    0  503  502  0.00000000000E+00  0.00000000000E+00  0.54078116519E+03  0.54078116519E+03  0.00000000000E+00 0. -1.
         21   -1    0    0  501  503 -0.00000000000E+00 -0.00000000000E+00 -0.21869190497E+03  0.21869190497E+03  0.00000000000E+00 0. -1.
          6    2    1    2  501    0 -0.19789420512E+03 -0.19659746876E+03  0.42546376569E+02  0.32942628080E+03  0.16999646814E+03 0.  0.
         24    2    3    3    0    0 -0.19759489533E+03 -0.17427556270E+03 -0.62422114894E+01  0.27556745236E+03  0.80515471694E+02 0.  0.
         -6    2    1    2    0  502  0.19789420512E+03  0.19659746876E+03  0.27954288365E+03  0.43004678936E+03  0.17024492974E+03 0.  0.
        -24    2    5    5    0    0  0.79845844206E+02  0.52644853715E+02  0.18052390976E+03  0.21913302006E+03  0.79268903269E+02 0.  0.
          5    1    3    3  501    0 -0.29930978988E+00 -0.22321906065E+02  0.48788588058E+02  0.53858828445E+02  0.47000000000E+01 0. -1.
        -13    1    4    4    0    0 -0.40331735464E+02 -0.70324513477E+02  0.24216535699E+02  0.84608667893E+02  0.00000000000E+00 0.  1.
         14    1    4    4    0    0 -0.15726315986E+03 -0.10395104922E+03 -0.30458747189E+02  0.19095878446E+03  0.00000000000E+00 0. -1.
         -5    1    5    5    0  502  0.11804836091E+03  0.14395261505E+03  0.99018973889E+02  0.21091376930E+03  0.47000000000E+01 0.  1.
         13    1    6    6    0    0  0.18820382034E+02  0.97613623943E-01 -0.26800833425E+01  0.19010501178E+02  0.00000000000E+00 0. -1.
        -14    1    6    6    0    0  0.61025462173E+02  0.52547240091E+02  0.18320399310E+03  0.20012251888E+03  0.00000000000E+00 0.  1.
</event>
<event>
12    1  0.8453150E-002  0.1942052E+03  0.7818608E-02  0.1154791E+00
         21   -1    0    0  503  502  0.00000000000E+00  0.00000000000E+00  0.95749494753E+02  0.95749494753E+02  0.00000000000E+00 0. -1.
         21   -1    0    0  501  503 -0.00000000000E+00 -0.00000000000E+00 -0.64568356448E+03  0.64568356448E+03  0.00000000000E+00 0. -1.
          6    2    1    2  501    0 -0.36291822120E+01  0.89840653651E+02 -0.50688998373E+03  0.54281961381E+03  0.17213704866E+03 0.  0.
         24    2    3    3    0    0 -0.37050768781E+02  0.75855629985E+00 -0.33274594540E+03  0.34432311863E+03  0.80406535566E+02 0.  0.
         -6    2    1    2    0  502  0.36291822120E+01 -0.89840653651E+02 -0.43044085992E+02  0.19861344542E+03  0.17178472967E+03 0.  0.
        -24    2    5    5    0    0 -0.81738320308E+00 -0.80286605906E+02  0.36465815211E+02  0.11827064137E+03  0.78813588476E+02 0.  0.
          5    1    3    3  501    0  0.33421586569E+02  0.89082097351E+02 -0.17414403833E+03  0.19849649519E+03  0.47000000000E+01 0. -1.
        -11    1    4    4    0    0 -0.11251011427E+02 -0.37818092048E+02 -0.19553699246E+03  0.19947809094E+03  0.00000000000E+00 0.  1.
         12    1    4    4    0    0 -0.25799757354E+02  0.38576648348E+02 -0.13720895294E+03  0.14484502768E+03  0.00000000000E+00 0. -1.
         -5    1    5    5    0  502  0.44465654151E+01 -0.95540477446E+01 -0.79509901203E+02  0.80342804044E+02  0.47000000000E+01 0.  1.
         11    1    6    6    0    0  0.85487602103E+01 -0.41448604409E+01 -0.20581812427E+02  0.22668748797E+02  0.00000000000E+00 0. -1.
        -12    1    6    6    0    0 -0.93661434134E+01 -0.76141745465E+02  0.57047627638E+02  0.95601892576E+02  0.00000000000E+00 0.  1.
</event>
<event>
12    1  0.8453150E-002  0.2056389E+03  0.7818608E-02  0.1145232E+00
         21   -1    0    0  501  502  0.00000000000E+00  0.00000000000E+00  0.34553519002E+02  0.34553519002E+02  0.00000000000E+00 0.  1.
         21   -1    0    0  502  503 -0.00000000000E+00 -0.00000000000E+00 -0.20664181363E+04  0.20664181363E+04  0.00000000000E+00 0.  1.
         -6    2    1    2    0  503 -0.10197371678E+03 -0.42565356520E+02 -0.16898246618E+04  0.17022910312E+04  0.17342698362E+03 0.  0.
        -24    2    3    3    0    0 -0.40113727306E+02 -0.19374359171E+02 -0.38844936070E+03  0.39923146039E+03  0.80674507909E+02 0.  0.
          6    2    1    2  501    0  0.10197371678E+03  0.42565356520E+02 -0.34203995548E+03  0.39868062413E+03  0.17246582391E+03 0.  0.
         24    2    5    5    0    0  0.13536587703E+03  0.21319353571E+02 -0.22650447217E+03  0.27646373940E+03  0.79683673298E+02 0.  0.
          5    1    5    5  501    0 -0.33392160249E+02  0.21246002949E+02 -0.11553548331E+03  0.12221688472E+03  0.47000000000E+01 0. -1.
        -11    1    6    6    0    0  0.72650620242E+02  0.51362724165E+02 -0.12608402868E+03  0.15431598862E+03  0.00000000000E+00 0.  1.
         12    1    6    6    0    0  0.62715256790E+02 -0.30043370594E+02 -0.10042044349E+03  0.12214775078E+03  0.00000000000E+00 0. -1.
         -5    1    3    3    0  503 -0.61859989477E+02 -0.23190997349E+02 -0.13013753011E+04  0.13030595708E+04  0.47000000000E+01 0.  1.
         13    1    4    4    0    0 -0.33338282782E+02  0.27298742953E+02 -0.14547595969E+03  0.15172316011E+03  0.00000000000E+00 0. -1.
        -14    1    4    4    0    0 -0.67754445243E+01 -0.46673102124E+02 -0.24297340101E+03  0.24750830029E+03  0.00000000000E+00 0.  1.
</event>
<event>
12    1  0.8453150E-002  0.2445858E+03  0.7818608E-02  0.1116850E+00
         21   -1    0    0  501  502  0.00000000000E+00  0.00000000000E+00  0.26465046732E+03  0.26465046732E+03  0.00000000000E+00 0. -1.
         21   -1    0    0  502  503 -0.00000000000E+00 -0.00000000000E+00 -0.36750342890E+03  0.36750342890E+03  0.00000000000E+00 0.  1.
         -6    2    1    2    0  503 -0.43987753521E+02 -0.16731169642E+03 -0.24785049420E+03  0.34821266974E+03  0.17289901583E+03 0.  0.
        -24    2    3    3    0    0 -0.44340058259E+02 -0.77681960232E+02 -0.48799961564E+02  0.12986245044E+03  0.80512682683E+02 0.  0.
          6    2    1    2  501    0  0.43987753521E+02  0.16731169642E+03  0.14499753263E+03  0.28394122648E+03  0.17225042643E+03 0.  0.
         24    2    5    5    0    0  0.61663652910E+02  0.35268686614E+02  0.36531819880E+02  0.11208461561E+03  0.78626336852E+02 0.  0.
          5    1    5    5  501    0 -0.17675899389E+02  0.13204300980E+03  0.10846571275E+03  0.17185661087E+03  0.47000000000E+01 0. -1.
        -11    1    6    6    0    0  0.17603715513E+02 -0.15401978059E+02  0.38341073213E+02  0.44912688888E+02  0.00000000000E+00 0.  1.
         12    1    6    6    0    0  0.44059937397E+02  0.50670664673E+02 -0.18092533333E+01  0.67171926721E+02  0.00000000000E+00 0. -1.
         -5    1    3    3    0  503  0.35230473785E+00 -0.89629736187E+02 -0.19905053264E+03  0.21835021931E+03  0.47000000000E+01 0.  1.
         13    1    4    4    0    0  0.13936730556E+02  0.64287571384E+01 -0.16555736497E+02  0.22575513015E+02  0.00000000000E+00 0. -1.
        -14    1    4    4    0    0 -0.58276788815E+02 -0.84110717370E+02 -0.32244225067E+02  0.10728693742E+03  0.00000000000E+00 0.  1.
</event>
<event>
12    1  0.8453150E-002  0.2489646E+03  0.7818608E-02  0.1113983E+00
         21   -1    0    0  501  502  0.00000000000E+00  0.00000000000E+00  0.81017619876E+02  0.81017619876E+02  0.00000000000E+00 0. -1.
         21   -1    0    0  502  503 -0.00000000000E+00 -0.00000000000E+00 -0.76466776919E+03  0.76466776919E+03  0.00000000000E+00 0. -1.
         -6    2    1    2    0  503  0.10551781863E+03 -0.14521518337E+03 -0.33896106995E+03  0.42056863069E+03  0.17251639530E+03 0.  0.
        -24    2    3    3    0    0  0.12728845421E+03 -0.11195634456E+03 -0.32963952324E+03  0.37947006422E+03  0.81232633201E+02 0.  0.
          6    2    1    2  501    0 -0.10551781863E+03  0.14521518337E+03 -0.34468907936E+03  0.42511675838E+03  0.17231435602E+03 0.  0.
         24    2    5    5    0    0 -0.32406722032E+02  0.14436223045E+03 -0.18730507025E+03  0.25151440730E+03  0.79282145073E+02 0.  0.
          5    1    5    5  501    0 -0.73111096596E+02  0.85295292985E+00 -0.15738400911E+03  0.17360235107E+03  0.47000000000E+01 0. -1.
        -11    1    6    6    0    0 -0.40805765446E+01 -0.55963439706E+01  0.30238389950E+01  0.75573654829E+01  0.00000000000E+00 0.  1.
         12    1    6    6    0    0 -0.28326145488E+02  0.14995857442E+03 -0.19032890924E+03  0.24395704182E+03  0.00000000000E+00 0. -1.
         -5    1    3    3    0  503 -0.21770635578E+02 -0.33258838810E+02 -0.93215467100E+01  0.41098566466E+02  0.47000000000E+01 0.  1.
         13    1    4    4    0    0  0.65518221841E+02 -0.77914508776E+02 -0.11522482836E+03  0.15375327360E+03  0.00000000000E+00 0. -1.
        -14    1    4    4    0    0  0.61770232365E+02 -0.34041835788E+02 -0.21441469488E+03  0.22571679062E+03  0.00000000000E+00 0.  1.
</event>
<event>
12    1  0.8453150E-002  0.2400928E+03  0.7818608E-02  0.1120187E+00
         21   -1    0    0  501  502  0.00000000000E+00  0.00000000000E+00  0.26754711879E+03  0.26754711879E+03  0.00000000000E+00 0.  1.
         21   -1    0    0  502  503 -0.00000000000E+00 -0.00000000000E+00 -0.24020017355E+03  0.24020017355E+03  0.00000000000E+00 0.  1.
         -6    2    1    2    0  503  0.14700730951E+03 -0.69030383707E+02 -0.71796427590E+02  0.24798977616E+03  0.17311227323E+03 0.  0.
        -24    2    3    3    0    0  0.17105986234E+03 -0.25645024820E+02 -0.60176811103E+02  0.19682416124E+03  0.72106574263E+02 0.  0.
          6    2    1    2  501    0 -0.14700730951E+03  0.69030383707E+02  0.99143372829E+02  0.25975751618E+03  0.17682821017E+03 0.  0.
         24    2    5    5    0    0 -0.17061959886E+02  0.57125051157E+02  0.78359726049E+01  0.10042559167E+03  0.80433295663E+02 0.  0.
          5    1    5    5  501    0 -0.12994534962E+03  0.11905332550E+02  0.91307400224E+02  0.15933192451E+03  0.47000000000E+01 0. -1.
        -13    1    6    6    0    0 -0.43105765645E+02  0.52129069052E+02  0.20988845182E+02  0.70824278988E+02  0.00000000000E+00 0.  1.
         14    1    6    6    0    0  0.26043805759E+02  0.49959821045E+01 -0.13152872577E+02  0.29601312684E+02  0.00000000000E+00 0. -1.
         -5    1    3    3    0  503 -0.24052552827E+02 -0.43385358887E+02 -0.11619616487E+02  0.51165614924E+02  0.47000000000E+01 0.  1.
         13    1    4    4    0    0  0.48565486342E+02  0.17807706683E+02  0.39775179196E+01  0.51880068714E+02  0.00000000000E+00 0. -1.
        -14    1    4    4    0    0  0.12249437599E+03 -0.43452731502E+02 -0.64154329023E+02  0.14494409252E+03  0.00000000000E+00 0.  1.
</event>
<event>
12    1  0.8453150E-002  0.3400969E+03  0.7818608E-02  0.1066776E+00
         21   -1    0    0  503  502  0.00000000000E+00  0.00000000000E+00  0.17563373372E+03  0.17563373372E+03  0.00000000000E+00 0.  1.
         21   -1    0    0  501  503 -0.00000000000E+00 -0.00000000000E+00 -0.74332911908E+03  0.74332911908E+03  0.00000000000E+00 0.  1.
          6    2    1    2  501    0 -0.23082427454E+02  0.29256634948E+03 -0.12840473805E+03  0.36352948977E+03  0.17186636049E+03 0.  0.
         24    2    3    3    0    0  0.17836873318E+02  0.56830790863E+02 -0.42590361306E+02  0.10930156048E+03  0.81148009262E+02 0.  0.
         -6    2    1    2    0  502  0.23082427454E+02 -0.29256634948E+03 -0.43929064731E+03  0.55543336304E+03  0.17147034921E+03 0.  0.
        -24    2    5    5    0    0  0.57637251707E+02 -0.10285374448E+03 -0.18102964658E+03  0.23308922570E+03  0.87509477551E+02 0.  0.
          5    1    3    3  501    0 -0.40919300772E+02  0.23573555862E+03 -0.85814376747E+02  0.25422792929E+03  0.47000000000E+01 0. -1.
        -13    1    4    4    0    0  0.18145458054E+02  0.44484676256E+02  0.15056049819E+02  0.50347082396E+02  0.00000000000E+00 0.  1.
         14    1    4    4    0    0 -0.30858473592E+00  0.12346114607E+02 -0.57646411125E+02  0.58954478083E+02  0.00000000000E+00 0. -1.
         -5    1    5    5    0  502 -0.34554824253E+02 -0.18971260500E+03 -0.25826100073E+03  0.32234413733E+03  0.47000000000E+01 0.  1.
         13    1    6    6    0    0  0.52511556478E+02 -0.11686870869E+03 -0.14176258063E+03  0.19108214961E+03  0.00000000000E+00 0. -1.
        -14    1    6    6    0    0  0.51256952290E+01  0.14014964210E+02 -0.39267065946E+02  0.42007076088E+02  0.00000000000E+00 0.  1.
</event>
<event>
12    1  0.8453150E-002  0.1760021E+03  0.7818608E-02  0.1172677E+00
         21   -1    0    0  503  502  0.00000000000E+00  0.00000000000E+00  0.66313186802E+02  0.66313186802E+02  0.00000000000E+00 0. -1.
         21   -1    0    0  501  503 -0.00000000000E+00 -0.00000000000E+00 -0.57914620420E+03  0.57914620420E+03  0.00000000000E+00 0. -1.
          6    2    1    2  501    0  0.31965835193E+02  0.23514386266E+02 -0.40668408454E+03  0.44313505168E+03  0.17147008027E+03 0.  0.
         24    2    3    3    0    0  0.74647632488E+02  0.25279169950E+02 -0.32587518408E+03  0.35160899706E+03  0.10593840542E+03 0.  0.
         -6    2    1    2    0  502 -0.31965835193E+02 -0.23514386266E+02 -0.10614893286E+03  0.20232433932E+03  0.16760907301E+03 0.  0.
        -24    2    5    5    0    0 -0.23216671168E+02  0.39667029206E+02 -0.10225392289E+03  0.13824860105E+03  0.80896995747E+02 0.  0.
          5    1    3    3  501    0 -0.42681797295E+02 -0.17647836844E+01 -0.80808900460E+02  0.91526054626E+02  0.47000000000E+01 0. -1.
        -11    1    4    4    0    0 -0.95927428437E+01 -0.28031153253E+02 -0.48168076817E+02  0.56550242194E+02  0.00000000000E+00 0.  1.
         12    1    4    4    0    0  0.84240375332E+02  0.53310323203E+02 -0.27770710726E+03  0.29505875486E+03  0.00000000000E+00 0. -1.
         -5    1    5    5    0  502 -0.87491640253E+01 -0.63181415472E+02 -0.38950099712E+01  0.64075738270E+02  0.47000000000E+01 0.  1.
         13    1    6    6    0    0 -0.87521511141E+01  0.27751471422E+02  0.48649703351E+01  0.29502749899E+02  0.00000000000E+00 0. -1.
        -14    1    6    6    0    0 -0.14464520054E+02  0.11915557783E+02 -0.10711889322E+03  0.10874585116E+03  0.00000000000E+00 0.  1.
</event>
<event>
12    1  0.8453150E-002  0.1832203E+03  0.7818608E-02  0.1164808E+00
         21   -1    0    0  501  502  0.00000000000E+00  0.00000000000E+00  0.68560030269E+03  0.68560030269E+03  0.00000000000E+00 0.  1.
         21   -1    0    0  502  503 -0.00000000000E+00 -0.00000000000E+00 -0.48956730512E+02  0.48956730512E+02  0.00000000000E+00 0.  1.
         -6    2    1    2    0  503  0.20447785821E+02 -0.63722362519E+02  0.33367932258E+03  0.38049909112E+03  0.17017348970E+03 0.  0.
        -24    2    3    3    0    0 -0.36465709257E+02 -0.77657393794E+02  0.14888913243E+03  0.18658458574E+03  0.72700860514E+02 0.  0.
          6    2    1    2  501    0 -0.20447785821E+02  0.63722362519E+02  0.30296424960E+03  0.35405794208E+03  0.17056095212E+03 0.  0.
         24    2    5    5    0    0  0.22595364100E+02  0.42170558452E+01  0.69313855733E+02  0.10909224891E+03  0.81045506583E+02 0.  0.
          5    1    5    5  501    0 -0.43043149921E+02  0.59505306674E+02  0.23365039386E+03  0.24496569317E+03  0.47000000000E+01 0. -1.
        -11    1    6    6    0    0 -0.68096531166E+00  0.40820761857E+02  0.35242900316E+02  0.53933851476E+02  0.00000000000E+00 0.  1.
         12    1    6    6    0    0  0.23276329412E+02 -0.36603706012E+02  0.34070955417E+02  0.55158397436E+02  0.00000000000E+00 0. -1.
         -5    1    3    3    0  503  0.56913495078E+02  0.13935031275E+02  0.18479019016E+03  0.19391450538E+03  0.47000000000E+01 0.  1.
         13    1    4    4    0    0 -0.81219293757E+01  0.17783421568E+00 -0.65602995414E+01  0.10441977393E+02  0.00000000000E+00 0. -1.
        -14    1    4    4    0    0 -0.28343779881E+02 -0.77835228010E+02  0.15544943197E+03  0.17614260835E+03  0.00000000000E+00 0.  1.
</event>
<event>
12    1  0.8453150E-002  0.1722041E+03  0.7818608E-02  0.1176154E+00
         21   -1    0    0  501  502  0.00000000000E+00  0.00000000000E+00  0.30862309689E+03  0.30862309689E+03  0.00000000000E+00 0. -1.
         21   -1    0    0  502  503 -0.00000000000E+00 -0.00000000000E+00 -0.55445798585E+03  0.55445798585E+03  0.00000000000E+00 0. -1.
         -6    2    1    2    0  503  0.10087831080E+02 -0.14626068255E+02 -0.51568663996E+03  0.54296514251E+03  0.16900517489E+03 0.  0.
        -24    2    3    3    0    0  0.14159383096E+01 -0.75003910810E+02 -0.33755631540E+03  0.35462187047E+03  0.78643584801E+02 0.  0.
          6    2    1    2  501    0 -0.10087831080E+02  0.14626068255E+02  0.26985175099E+03  0.32011594023E+03  0.17128502989E+03 0.  0.
         24    2    5    5    0    0 -0.31282920176E+01  0.74735952291E+02  0.17526084411E+03  0.20772749328E+03  0.82698846485E+02 0.  0.
          5    1    5    5  501    0 -0.69595390620E+01 -0.60109884036E+02  0.94590906883E+02  0.11238844695E+03  0.47000000000E+01 0. -1.
        -13    1    6    6    0    0 -0.30811878569E+02  0.46026831386E+02  0.44591332510E+02  0.71107158595E+02  0.00000000000E+00 0.  1.
         14    1    6    6    0    0  0.27683586551E+02  0.28709120905E+02  0.13066951160E+03  0.13662033468E+03  0.00000000000E+00 0. -1.
         -5    1    3    3    0  503  0.86718927700E+01  0.60377842555E+02 -0.17813032456E+03  0.18834327204E+03  0.47000000000E+01 0.  1.
         13    1    4    4    0    0  0.25418993116E+02 -0.34652088783E+02 -0.26318130243E+03  0.26666700286E+03  0.00000000000E+00 0. -1.
        -14    1    4    4    0    0 -0.24003054807E+02 -0.40351822027E+02 -0.74375012968E+02  0.87954867603E+02  0.00000000000E+00 0.  1.
</event>
<event>
12    1  0.8453150E-002  0.2513703E+03  0.7818608E-02  0.1112454E+00
         21   -1    0    0  503  502  0.00000000000E+00  0.00000000000E+00  0.23654801314E+03  0.23654801314E+03  0.00000000000E+00 0.  1.
         21   -1    0    0  501  503 -0.00000000000E+00 -0.00000000000E+00 -0.26945731969E+03  0.26945731969E+03  0.00000000000E+00 0.  1.
          6    2    1    2  501    0 -0.15889164818E+03 -0.90508994336E+02 -0.40407647911E+02  0.25452326924E+03  0.17236845030E+03 0.  0.
         24    2    3    3    0    0 -0.13299177918E+03 -0.11479815272E+03  0.96180278990E+01  0.19299746433E+03  0.79310059771E+02 0.  0.
         -6    2    1    2    0  502  0.15889164818E+03  0.90508994336E+02  0.74983413648E+01  0.25148206359E+03  0.17247773556E+03 0.  0.
        -24    2    5    5    0    0  0.15209953270E+03  0.23658212859E+02  0.39350626817E+02  0.17697154147E+03  0.77951752877E+02 0.  0.
          5    1    3    3  501    0 -0.25899869001E+02  0.24289158384E+02 -0.50025675810E+02  0.61525804907E+02  0.47000000000E+01 0. -1.
        -13    1    4    4    0    0 -0.34534765182E+02  0.41909421674E+01 -0.12530097997E+02  0.36975902399E+02  0.00000000000E+00 0.  1.
         14    1    4    4    0    0 -0.98457014000E+02 -0.11898909489E+03  0.22148125896E+02  0.15602156193E+03  0.00000000000E+00 0. -1.
         -5    1    5    5    0  502  0.67921154785E+01  0.66850781477E+02 -0.31852285452E+02  0.74510522111E+02  0.47000000000E+01 0.  1.
         11    1    6    6    0    0 -0.60953455599E+01 -0.29220975787E+01  0.12663142778E+02  0.14354339998E+02  0.00000000000E+00 0. -1.
        -12    1    6    6    0    0  0.15819487826E+03  0.26580310438E+02  0.26687484039E+02  0.16261720148E+03  0.00000000000E+00 0.  1.
</event>
<event>
12    1  0.8453150E-002  0.1770804E+03  0.7818608E-02  0.1171213E+00
         21   -1    0    0  501  502  0.00000000000E+00  0.00000000000E+00  0.10935665630E+04  0.10935665630E+04  0.00000000000E+00 0.  1.
         21   -1    0    0  502  503 -0.00000000000E+00 -0.00000000000E+00 -0.30253301955E+02  0.30253301955E+02  0.00000000000E+00 0.  1.
         -6    2    1    2    0  503 -0.24890272953E+02 -0.73208497897E+01  0.38629234772E+03  0.42402360889E+03  0.17291941031E+03 0.  0.
        -24    2    3    3    0    0  0.10236744450E+02  0.35519012808E+01  0.81423377791E+02  0.11690913041E+03  0.83189971647E+02 0.  0.
          6    2    1    2  501    0  0.24890272953E+02  0.73208497897E+01  0.67702091330E+03  0.69979625604E+03  0.17516952472E+03 0.  0.
         24    2    5    5    0    0  0.29708490699E+01 -0.24366295659E+02  0.14990339698E+03  0.17125155372E+03  0.79079225587E+02 0.  0.
          5    1    5    5  501    0  0.21919423883E+02  0.31687145449E+02  0.52711751632E+03  0.52854470231E+03  0.47000000000E+01 0. -1.
        -13    1    6    6    0    0  0.14134815745E+01 -0.13027759010E+02  0.15715645405E+03  0.15770184363E+03  0.00000000000E+00 0.  1.
         14    1    6    6    0    0  0.15573674954E+01 -0.11338536649E+02 -0.72530570696E+01  0.13549710097E+02  0.00000000000E+00 0. -1.
         -5    1    3    3    0  503 -0.35127017402E+02 -0.10872751071E+02  0.30486896993E+03  0.30711447848E+03  0.47000000000E+01 0.  1.
         11    1    4    4    0    0  0.16475231912E+02 -0.23639206529E+02  0.84084930412E+02  0.88884874272E+02  0.00000000000E+00 0. -1.
        -12    1    4    4    0    0 -0.62384874618E+01  0.27191107810E+02 -0.26615526206E+01  0.28024256138E+02  0.00000000000E+00 0.  1.
</event>
<event>
12    1  0.8453150E-002  0.2130530E+03  0.7818608E-02  0.1139285E+00
         21   -1    0    0  501  502  0.00000000000E+00  0.00000000000E+00  0.82562936777E+03  0.82562936777E+03  0.00000000000E+00 0.  1.
         21   -1    0    0  502  503 -0.00000000000E+00 -0.00000000000E+00 -0.10452706709E+03  0.10452706709E+03  0.00000000000E+00 0. -1.
         -6    2    1    2    0  503 -0.35265296097E+02 -0.12056245590E+03  0.39599392518E+02  0.21612716847E+03  0.17135896294E+03 0.  0.
        -24    2    3    3    0    0 -0.76624198169E+02 -0.11093339641E+03 -0.29110669330E+01  0.15585688781E+03  0.78137116564E+02 0.  0.
          6    2    1    2  501    0  0.35265296097E+02  0.12056245590E+03  0.68150290816E+03  0.71402926639E+03  0.17208321403E+03 0.  0.
         24    2    5    5    0    0  0.55208582478E+02  0.14144854004E+03  0.64353881726E+03  0.66609884411E+03  0.80559194040E+02 0.  0.
          5    1    5    5  501    0 -0.19943286382E+02 -0.20886084138E+02  0.37964090905E+02  0.47930422287E+02  0.47000000000E+01 0. -1.
        -11    1    6    6    0    0  0.44031525355E+02  0.69428471922E+02  0.48089421894E+03  0.48787123070E+03  0.00000000000E+00 0.  1.
         12    1    6    6    0    0  0.11177057124E+02  0.72020068115E+02  0.16264459832E+03  0.17822761340E+03  0.00000000000E+00 0. -1.
         -5    1    3    3    0  503  0.41358902072E+02 -0.96290594905E+01  0.42510459451E+02  0.60270280653E+02  0.47000000000E+01 0.  1.
         13    1    4    4    0    0 -0.25356415006E+01  0.22470552156E+01 -0.19299147840E+02  0.19594280857E+02  0.00000000000E+00 0. -1.
        -14    1    4    4    0    0 -0.74088556668E+02 -0.11318045162E+03  0.16388080907E+02  0.13626260696E+03  0.00000000000E+00 0.  1.
</event>
<event>
12    1  0.8453150E-002  0.1843861E+03  0.7818608E-02  0.1163647E+00
         21   -1    0    0  501  502  0.00000000000E+00  0.00000000000E+00  0.60005174057E+03  0.60005174057E+03  0.00000000000E+00 0. -1.
         21   -1    0    0  502  503 -0.00000000000E+00 -0.00000000000E+00 -0.74396225231E+02  0.74396225231E+02  0.00000000000E+00 0. -1.
         -6    2    1    2    0  503  0.98970145726E+01 -0.64768384049E+02  0.97980648342E+02  0.20871840513E+03  0.17225060442E+03 0.  0.
        -24    2    3    3    0    0 -0.51289540501E+02 -0.38267702355E+02  0.98716861220E+02  0.14186997463E+03  0.79290838077E+02 0.  0.
          6    2    1    2  501    0 -0.98970145726E+01  0.64768384049E+02  0.42767486700E+03  0.46572956067E+03  0.17235236392E+03 0.  0.
         24    2    5    5    0    0 -0.44394582225E+02  0.36110804269E+02  0.40179713326E+03  0.41373834837E+03  0.80396613731E+02 0.  0.
          5    1    5    5  501    0  0.34497567652E+02  0.28657579780E+02  0.25877733737E+02  0.51991212297E+02  0.47000000000E+01 0. -1.
        -11    1    6    6    0    0 -0.58038027392E+01 -0.22683837602E+02  0.53307406672E+02  0.58223021397E+02  0.00000000000E+00 0.  1.
         12    1    6    6    0    0 -0.38590779486E+02  0.58794641872E+02  0.34848972659E+03  0.35551532697E+03  0.00000000000E+00 0. -1.
         -5    1    3    3    0  503  0.61186555073E+02 -0.26500681695E+02 -0.73621287826E+00  0.66848430508E+02  0.47000000000E+01 0.  1.
         11    1    4    4    0    0 -0.35022093702E-01  0.68088707592E+01 -0.10833492228E+02  0.12795565693E+02  0.00000000000E+00 0. -1.
        -12    1    4    4    0    0 -0.51254518407E+02 -0.45076573114E+02  0.10955035345E+03  0.12907440893E+03  0.00000000000E+00 0.  1.
</event>
<event>
12    1  0.8453150E-002  0.2492291E+03  0.7818608E-02  0.1113799E+00
         21   -1    0    0  501  502  0.00000000000E+00  0.00000000000E+00  0.12735089184E+03  0.12735089184E+03  0.00000000000E+00 0.  1.
         21   -1    0    0  502  503 -0.00000000000E+00 -0.00000000000E+00 -0.73525540102E+03  0.73525540102E+03  0.00000000000E+00 0. -1.
         -6    2    1    2    0  503 -0.82427004252E+02 -0.16009412094E+03 -0.55424195392E+03  0.60769999890E+03  0.17231020453E+03 0.  0.
        -24    2    3    3    0    0  0.33931075092E+01 -0.13800969901E+03 -0.35130468520E+03  0.38620860333E+03  0.81755203159E+02 0.  0.
          6    2    1    2  501    0  0.82427004252E+02  0.16009412094E+03 -0.53662555256E+02  0.25490629396E+03  0.17225913697E+03 0.  0.
         24    2    5    5    0    0  0.53660159811E+02  0.18051088882E+03 -0.21641872899E+02  0.20703365200E+03  0.83252439382E+02 0.  0.
          5    1    5    5  501    0  0.28766844441E+02 -0.20416767877E+02 -0.32020682357E+02  0.47872641960E+02  0.47000000000E+01 0. -1.
        -11    1    6    6    0    0  0.45408003238E+02  0.13222627203E+03  0.21880040775E+02  0.14150763216E+03  0.00000000000E+00 0.  1.
         12    1    6    6    0    0  0.82521565729E+01  0.48284616784E+02 -0.43521913674E+02  0.65526019840E+02  0.00000000000E+00 0. -1.
         -5    1    3    3    0  503 -0.85820111761E+02 -0.22084421934E+02 -0.20293726872E+03  0.22149139557E+03  0.47000000000E+01 0.  1.
         11    1    4    4    0    0 -0.15648178125E+02 -0.68490615580E+02 -0.26299426007E+03  0.27221647770E+03  0.00000000000E+00 0. -1.
        -12    1    4    4    0    0  0.19041285634E+02 -0.69519083427E+02 -0.88310425131E+02  0.11399212563E+03  0.00000000000E+00 0.  1.
</event>
<event>
12    1  0.8453150E-002  0.1946493E+03  0.7818608E-02  0.1154403E+00
         21   -1    0    0  501  502  0.00000000000E+00  0.00000000000E+00  0.17307508966E+03  0.17307508966E+03  0.00000000000E+00 0. -1.
         21   -1    0    0  502  503 -0.00000000000E+00 -0.00000000000E+00 -0.38595956809E+03  0.38595956809E+03  0.00000000000E+00 0. -1.
         -6    2    1    2    0  503  0.83826854441E+02 -0.36574393562E+02 -0.29057731343E+03  0.34974780460E+03  0.17182468959E+03 0.  0.
        -24    2    3    3    0    0  0.72235976328E+02  0.40950990047E+02 -0.15270028977E+03  0.19107613979E+03  0.79358004268E+02 0.  0.
          6    2    1    2  501    0 -0.83826854441E+02  0.36574393562E+02  0.77692834991E+02  0.20928685315E+03  0.17146481418E+03 0.  0.
         24    2    5    5    0    0  0.90229508369E+01  0.50061751155E+02  0.64754712425E+02  0.11445816461E+03  0.79497837040E+02 0.  0.
          5    1    5    5  501    0 -0.92849805278E+02 -0.13487357593E+02  0.12938122567E+02  0.94828688542E+02  0.47000000000E+01 0. -1.
        -13    1    6    6    0    0  0.17569680894E+02 -0.18067686481E+02  0.12253166477E+02  0.28022759861E+02  0.00000000000E+00 0.  1.
         14    1    6    6    0    0 -0.85467300572E+01  0.68129437635E+02  0.52501545947E+02  0.86435404749E+02  0.00000000000E+00 0. -1.
         -5    1    3    3    0  503  0.11590878113E+02 -0.77525383609E+02 -0.13787702366E+03  0.15867166481E+03  0.47000000000E+01 0.  1.
         13    1    4    4    0    0  0.73094963389E+02  0.35829434225E+01 -0.12386264549E+03  0.14386683462E+03  0.00000000000E+00 0. -1.
        -14    1    4    4    0    0 -0.85898706031E+00  0.37368046625E+02 -0.28837644277E+02  0.47209305172E+02  0.00000000000E+00 0.  1.
</event>
<event>
12    1  0.8453150E-002  0.2435091E+03  0.7818608E-02  0.1117560E+00
         21   -1    0    0  501  502  0.00000000000E+00  0.00000000000E+00  0.46053819924E+02  0.46053819924E+02  0.00000000000E+00 0.  1.
         21   -1    0    0  502  503 -0.00000000000E+00 -0.00000000000E+00 -0.13987891210E+04  0.13987891210E+04  0.00000000000E+00 0. -1.
         -6    2    1    2    0  503 -0.17001043303E+03  0.11466277602E+01 -0.88316055287E+03  0.91611639695E+03  0.17433252284E+03 0.  0.
        -24    2    3    3    0    0 -0.39378074975E+02 -0.92750218895E+01 -0.16184734484E+03  0.18298049016E+03  0.75170725191E+02 0.  0.
          6    2    1    2  501    0  0.17001043303E+03 -0.11466277602E+01 -0.46957474825E+03  0.52872654401E+03  0.17362733673E+03 0.  0.
         24    2    5    5    0    0  0.16807077011E+03 -0.69933923997E+01 -0.48046820054E+03  0.51535851305E+03  0.80299526424E+02 0.  0.
          5    1    5    5  501    0  0.19396629263E+01  0.58467646395E+01  0.10893452293E+02  0.13368030965E+02  0.47000000000E+01 0. -1.
        -11    1    6    6    0    0 -0.39492806600E+01 -0.13372500737E+02 -0.28745987050E+02  0.31949215407E+02  0.00000000000E+00 0.  1.
         12    1    6    6    0    0  0.17202005077E+03  0.63791083372E+01 -0.45172221349E+03  0.48340929764E+03  0.00000000000E+00 0. -1.
         -5    1    3    3    0  503 -0.13063235806E+03  0.10421649650E+02 -0.72131320803E+03  0.73313590679E+03  0.47000000000E+01 0.  1.
         11    1    4    4    0    0  0.15355451973E+02 -0.24145407400E+02 -0.51872031583E+02  0.59241018427E+02  0.00000000000E+00 0. -1.
        -12    1    4    4    0    0 -0.54733526948E+02  0.14870385510E+02 -0.10997531326E+03  0.12373947173E+03  0.00000000000E+00 0.  1.
</event>
<event>
12    1  0.8453150E-002  0.1771784E+03  0.7818608E-02  0.1170583E+00
         21   -1    0    0  501  502  0.00000000000E+00  0.00000000000E+00  0.60980530875E+02  0.60980530875E+02  0.00000000000E+00 0.  1.
         21   -1    0    0  502  503 -0.00000000000E+00 -0.00000000000E+00 -0.91295615841E+03  0.91295615841E+03  0.00000000000E+00 0.  1.
         -6    2    1    2    0  503 -0.35420463399E+02 -0.25066809587E+02 -0.10423821785E+03  0.20549448699E+03  0.17169573074E+03 0.  0.
        -24    2    3    3    0    0 -0.80450469853E+02 -0.13428343683E+02 -0.29644812411E+02  0.11746368838E+03  0.79159994133E+02 0.  0.
          6    2    1    2  501    0  0.35420463399E+02  0.25066809587E+02 -0.74773740969E+03  0.76844220229E+03  0.17178250856E+03 0.  0.
         24    2    5    5    0    0  0.89874336994E+02  0.15790050956E+02 -0.54578935787E+03  0.55902303356E+03  0.79334776265E+02 0.  0.
          5    1    5    5  501    0 -0.54453873596E+02  0.92767586310E+01 -0.20194805181E+03  0.20941916873E+03  0.47000000000E+01 0. -1.
        -11    1    6    6    0    0 -0.10057110295E+02  0.87122617936E+01 -0.15596342424E+03  0.15652999289E+03  0.00000000000E+00 0.  1.
         12    1    6    6    0    0  0.99931447290E+02  0.70777891624E+01 -0.38982593363E+03  0.40249304067E+03  0.00000000000E+00 0. -1.
         -5    1    3    3    0  503  0.45030006455E+02 -0.11638465904E+02 -0.74593405434E+02  0.88030798611E+02  0.47000000000E+01 0.  1.
         13    1    4    4    0    0 -0.85185391360E+01 -0.11203957265E+02 -0.42133199121E+02  0.44421848628E+02  0.00000000000E+00 0. -1.
        -14    1    4    4    0    0 -0.71931930717E+02 -0.22243864181E+01  0.12488386709E+02  0.73041839751E+02  0.00000000000E+00 0.  1.
</event>
<event>
12    1  0.8453150E-002  0.1889725E+03  0.7818608E-02  0.1159657E+00
         21   -1    0    0  501  502  0.00000000000E+00  0.00000000000E+00  0.19880398133E+03  0.19880398133E+03  0.00000000000E+00 0.  1.
         21   -1    0    0  502  503 -0.00000000000E+00 -0.00000000000E+00 -0.18347761076E+03  0.18347761076E+03  0.00000000000E+00 0.  1.
         -6    2    1    2    0  503 -0.34726748405E+02 -0.66703762374E+02 -0.23772151118E+02  0.18930674723E+03  0.17209471348E+03 0.  0.
        -24    2    3    3    0    0  0.32874452088E+02  0.87274916216E+01 -0.13616244892E+02  0.87399785646E+02  0.79349994933E+02 0.  0.
          6    2    1    2  501    0  0.34726748405E+02  0.66703762374E+02  0.39098521689E+02  0.19297484486E+03  0.17336452169E+03 0.  0.
         24    2    5    5    0    0  0.18513482855E+02  0.11214845121E+03  0.23028791139E+02  0.14190219109E+03  0.81767245647E+02 0.  0.
          5    1    5    5  501    0  0.16213265550E+02 -0.45444688832E+02  0.16069730550E+02  0.51072653767E+02  0.47000000000E+01 0. -1.
        -13    1    6    6    0    0  0.18273931064E+02  0.10973951440E+03 -0.72878422059E+01  0.11148905875E+03  0.00000000000E+00 0.  1.
         14    1    6    6    0    0  0.23955179109E+00  0.24089368071E+01  0.30316633345E+02  0.30413132344E+02  0.00000000000E+00 0. -1.
         -5    1    3    3    0  503 -0.67601200493E+02 -0.75431253996E+02 -0.10155906226E+02  0.10190696158E+03  0.47000000000E+01 0.  1.
         13    1    4    4    0    0 -0.68793970948E+01  0.88106149584E+01 -0.38774700272E+02  0.40353815452E+02  0.00000000000E+00 0. -1.
        -14    1    4    4    0    0  0.39753849183E+02 -0.83123336764E-01  0.25158455380E+02  0.47045970194E+02  0.00000000000E+00 0.  1.
</event>
<event>
12    1  0.8453150E-002  0.1791548E+03  0.7818608E-02  0.1168626E+00
         21   -1    0    0  501  502  0.00000000000E+00  0.00000000000E+00  0.25258729447E+03  0.25258729447E+03  0.00000000000E+00 0.  1.
         21   -1    0    0  502  503 -0.00000000000E+00 -0.00000000000E+00 -0.58799951442E+03  0.58799951442E+03  0.00000000000E+00 0.  1.
         -6    2    1    2    0  503 -0.14505008518E+02  0.47913043101E+02 -0.53982637668E+03  0.56877513987E+03  0.17200752251E+03 0.  0.
        -24    2    3    3    0    0 -0.60242573861E+02  0.67436541926E+02 -0.28492015530E+03  0.30902071047E+03  0.78341877143E+02 0.  0.
          6    2    1    2  501    0  0.14505008518E+02 -0.47913043101E+02  0.20441415673E+03  0.27181166901E+03  0.17201854833E+03 0.  0.
         24    2    5    5    0    0  0.71430221974E+02 -0.14466600841E+02  0.96592348606E+02  0.14529377805E+03  0.80427861957E+02 0.  0.
          5    1    5    5  501    0 -0.56925213456E+02 -0.33446442260E+02  0.10782180813E+03  0.12651789097E+03  0.47000000000E+01 0. -1.
        -13    1    6    6    0    0  0.70018597841E+02 -0.23692350106E+02  0.10780010999E+03  0.13070881842E+03  0.00000000000E+00 0.  1.
         14    1    6    6    0    0  0.14116241331E+01  0.92257492644E+01 -0.11207761386E+02  0.14584959632E+02  0.00000000000E+00 0. -1.
         -5    1    3    3    0  503  0.45737565343E+02 -0.19523498824E+02 -0.25490622139E+03  0.25975442940E+03  0.47000000000E+01 0.  1.
         13    1    4    4    0    0 -0.20669216420E+02 -0.12392609990E+02 -0.27236741282E+02  0.36368026692E+02  0.00000000000E+00 0. -1.
        -14    1    4    4    0    0 -0.39573357441E+02  0.79829151915E+02 -0.25768341401E+03  0.27265268378E+03  0.00000000000E+00 0.  1.
</event>
<event>
12    1  0.8453150E-002  0.1796172E+03  0.7818608E-02  0.1168404E+00
         21   -1    0    0  503  502  0.00000000000E+00  0.00000000000E+00  0.23082426898E+03  0.23082426898E+03  0.00000000000E+00 0.  1.
         21   -1    0    0  501  503 -0.00000000000E+00 -0.00000000000E+00 -0.13904007298E+03  0.13904007298E+03  0.00000000000E+00 0.  1.
          6    2    1    2  501    0  0.18135771628E+02  0.45994325369E+02  0.44805967184E+02  0.18512136042E+03  0.17267877464E+03 0.  0.
         24    2    3    3    0    0  0.68374855792E+02  0.65472966115E+02  0.49723635615E+02  0.13081062036E+03  0.75346853051E+02 0.  0.
         -6    2    1    2    0  502 -0.18135771628E+02 -0.45994325369E+02  0.46978228815E+02  0.18474298153E+03  0.17169342172E+03 0.  0.
        -24    2    5    5    0    0 -0.42736091314E+02  0.30608735887E+02  0.56483161948E+01  0.94170047383E+02  0.77928339741E+02 0.  0.
          5    1    3    3  501    0 -0.50239084164E+02 -0.19478640746E+02 -0.49176684305E+01  0.54310740059E+02  0.47000000000E+01 0. -1.
        -13    1    4    4    0    0  0.28735566209E+02  0.74294776117E+02  0.39601071263E+02  0.88958930798E+02  0.00000000000E+00 0.  1.
         14    1    4    4    0    0  0.39639289584E+02 -0.88218100018E+01  0.10122564351E+02  0.41851689565E+02  0.00000000000E+00 0. -1.
         -5    1    5    5    0  502  0.24600319686E+02 -0.76603061256E+02  0.41329912621E+02  0.90572934145E+02  0.47000000000E+01 0.  1.
         11    1    6    6    0    0 -0.32711590759E+02 -0.19454122408E+02 -0.12382734449E+02  0.40023032882E+02  0.00000000000E+00 0. -1.
        -12    1    6    6    0    0 -0.10024500556E+02  0.50062858295E+02  0.18031050644E+02  0.54147014501E+02  0.00000000000E+00 0.  1.
</event>
<event>
12    1  0.8453150E-002  0.1738937E+03  0.7818608E-02  0.1174827E+00
         21   -1    0    0  503  502  0.00000000000E+00  0.00000000000E+00  0.26719293128E+03  0.26719293128E+03  0.00000000000E+00 0.  1.
         21   -1    0    0  501  503 -0.00000000000E+00 -0.00000000000E+00 -0.16019504948E+03  0.16019504948E+03  0.00000000000E+00 0.  1.
          6    2    1    2  501    0 -0.18233747144E+02 -0.11475864139E+02 -0.64868970846E+02  0.18559900363E+03  0.17255388079E+03 0.  0.
         24    2    3    3    0    0 -0.50046971584E+02  0.13853846070E+02 -0.95748166758E+02  0.13432239874E+03  0.78601316466E+02 0.  0.
         -6    2    1    2    0  502  0.18233747144E+02  0.11475864139E+02  0.17186685264E+03  0.24178897713E+03  0.16869952409E+03 0.  0.
        -24    2    5    5    0    0 -0.36259218850E+02  0.45429394654E+02  0.59666382427E+02  0.11243148374E+03  0.75512916080E+02 0.  0.
          5    1    3    3  501    0  0.31813224440E+02 -0.25329710209E+02  0.30879195912E+02  0.51276604887E+02  0.47000000000E+01 0. -1.
        -13    1    4    4    0    0 -0.67343346254E+01 -0.29999533869E+02 -0.44901724944E+02  0.54419557129E+02  0.00000000000E+00 0.  1.
         14    1    4    4    0    0 -0.43312636959E+02  0.43853379939E+02 -0.50846441814E+02  0.79902841611E+02  0.00000000000E+00 0. -1.
         -5    1    5    5    0  502  0.54492965994E+02 -0.33953530514E+02  0.11220047022E+03  0.12935749338E+03  0.47000000000E+01 0.  1.
         11    1    6    6    0    0 -0.47737859982E+02  0.12132280733E+02  0.59459270312E+02  0.77210752732E+02  0.00000000000E+00 0. -1.
        -12    1    6    6    0    0  0.11478641132E+02  0.33297113920E+02  0.20711211595E+00  0.35220731013E+02  0.00000000000E+00 0.  1.
</event>
<event>
12    1  0.8453150E-002  0.2058086E+03  0.7818608E-02  0.1145048E+00
         21   -1    0    0  503  502  0.00000000000E+00  0.00000000000E+00  0.31941552748E+03  0.31941552748E+03  0.00000000000E+00 0. -1.
         21   -1    0    0  501  503 -0.00000000000E+00 -0.00000000000E+00 -0.16002740701E+03  0.16002740701E+03  0.00000000000E+00 0. -1.
          6    2    1    2  501    0 -0.22784703940E+02 -0.11204376689E+03 -0.20118903767E+02  0.20678959693E+03  0.17112632374E+03 0.  0.
         24    2    3    3    0    0  0.45932804631E+02 -0.29435736689E+02 -0.20985729659E+02  0.99230199273E+02  0.80186946961E+02 0.  0.
         -6    2    1    2    0  502  0.22784703940E+02  0.11204376689E+03  0.17950702423E+03  0.27265333756E+03  0.17042336196E+03 0.  0.
        -24    2    5    5    0    0  0.46020660755E+02  0.12601781363E+03  0.92114685607E+02  0.18103077198E+03  0.79300911298E+02 0.  0.
          5    1    3    3  501    0 -0.68717508571E+02 -0.82608030196E+02  0.86682589110E+00  0.10755939766E+03  0.47000000000E+01 0. -1.
        -13    1    4    4    0    0  0.17846117352E+02  0.19775597562E+02  0.16459840582E+02  0.31312689368E+02  0.00000000000E+00 0.  1.
         14    1    4    4    0    0  0.28086687279E+02 -0.49211334251E+02 -0.37445570240E+02  0.67917509905E+02  0.00000000000E+00 0. -1.
         -5    1    5    5    0  502 -0.23235956815E+02 -0.13974046744E+02  0.87392338626E+02  0.91622565572E+02  0.47000000000E+01 0.  1.
         11    1    6    6    0    0  0.31707155805E+02  0.57962514261E+01  0.68589260528E+01  0.32954288438E+02  0.00000000000E+00 0. -1.
        -12    1    6    6    0    0  0.14313504950E+02  0.12022156220E+03  0.85255759554E+02  0.14807648355E+03  0.00000000000E+00 0.  1.
</event>
<event>
12    1  0.8453150E-002  0.2041251E+03  0.7818608E-02  0.1146482E+00
         21   -1    0    0  501  502  0.00000000000E+00  0.00000000000E+00  0.12502982661E+03  0.12502982661E+03  0.00000000000E+00 0.  1.
         21   -1    0    0  502  503 -0.00000000000E+00 -0.00000000000E+00 -0.33386290772E+03  0.33386290772E+03  0.00000000000E+00 0. -1.
         -6    2    1    2    0  503 -0.96486531338E+02  0.52358630163E+02 -0.12201370795E+03  0.23707151005E+03  0.17106863848E+03 0.  0.
        -24    2    3    3    0    0 -0.43741371885E+02 -0.34642685318E+02 -0.84395683505E+02  0.12849671324E+03  0.79217110889E+02 0.  0.
          6    2    1    2  501    0  0.96486531338E+02 -0.52358630163E+02 -0.86819373157E+02  0.22182122428E+03  0.17209292578E+03 0.  0.
         24    2    5    5    0    0  0.11930416209E+03 -0.16090680030E+02 -0.10071896880E+03  0.17652997524E+03  0.80784456478E+02 0.  0.
          5    1    5    5  501    0 -0.22817630753E+02 -0.36267950133E+02  0.13899595638E+02  0.45291249033E+02  0.47000000000E+01 0. -1.
        -11    1    6    6    0    0  0.26567914331E+02  0.29895209920E+02 -0.17245946724E+02  0.43554567228E+02  0.00000000000E+00 0.  1.
         12    1    6    6    0    0  0.92736247761E+02 -0.45985889951E+02 -0.83473022072E+02  0.13297540802E+03  0.00000000000E+00 0. -1.
         -5    1    3    3    0  503 -0.52745159454E+02  0.87001315482E+02 -0.37618024441E+02  0.10857479682E+03  0.47000000000E+01 0.  1.
         11    1    4    4    0    0 -0.14945908796E+01  0.64690255915E+01 -0.66586135856E+02  0.66916332702E+02  0.00000000000E+00 0. -1.
        -12    1    4    4    0    0 -0.42246781005E+02 -0.41111710910E+02 -0.17809547650E+02  0.61580380534E+02  0.00000000000E+00 0.  1.
</event>
<event>
12    1  0.8453150E-002  0.1844227E+03  0.7818608E-02  0.1164563E+00
         21   -1    0    0  501  502  0.00000000000E+00  0.00000000000E+00  0.54079399109E+02  0.54079399109E+02  0.00000000000E+00 0. -1.
         21   -1    0    0  502  503 -0.00000000000E+00 -0.00000000000E+00 -0.64659401772E+03  0.64659401772E+03  0.00000000000E+00 0. -1.
         -6    2    1    2    0  503 -0.77315725397E+01 -0.51694785459E+02 -0.37050745119E+03  0.41205790908E+03  0.17257989740E+03 0.  0.
        -24    2    3    3    0    0 -0.53721700072E+02 -0.34042046548E+02 -0.33763303238E+03  0.35264807459E+03  0.79496653808E+02 0.  0.
          6    2    1    2  501    0  0.77315725397E+01  0.51694785459E+02 -0.22200716742E+03  0.28861550775E+03  0.17686039938E+03 0.  0.
         24    2    5    5    0    0  0.72781832922E+02  0.57725563910E+02 -0.13614354971E+03  0.18062218615E+03  0.73890947137E+02 0.  0.
          5    1    5    5  501    0 -0.65050260382E+02 -0.60307784508E+01 -0.85863617707E+02  0.10799332160E+03  0.47000000000E+01 0. -1.
        -11    1    6    6    0    0  0.12757929961E+02  0.48387469600E+02 -0.30055026838E+02  0.58373081376E+02  0.00000000000E+00 0.  1.
         12    1    6    6    0    0  0.60023902961E+02  0.93380943102E+01 -0.10608852287E+03  0.12224910477E+03  0.00000000000E+00 0. -1.
         -5    1    3    3    0  503  0.45990127532E+02 -0.17652738912E+02 -0.32874418808E+02  0.59409834485E+02  0.47000000000E+01 0.  1.
         11    1    4    4    0    0 -0.31424511058E+02  0.21150272113E+02 -0.84361396367E+02  0.92475289146E+02  0.00000000000E+00 0. -1.
        -12    1    4    4    0    0 -0.22297189014E+02 -0.55192318661E+02 -0.25327163602E+03  0.26017278545E+03  0.00000000000E+00 0.  1.
</event>
<event>
12    1  0.8453150E-002  0.3472818E+03  0.7818608E-02  0.1063758E+00
         21   -1    0    0  503  502  0.00000000000E+00  0.00000000000E+00  0.40050385822E+03  0.40050385822E+03  0.00000000000E+00 0. -1.
         21   -1    0    0  501  503 -0.00000000000E+00 -0.00000000000E+00 -0.51430166820E+03  0.51430166820E+03  0.00000000000E+00 0. -1.
          6    2    1    2  501    0 -0.10464643738E+03  0.28381497768E+03 -0.35149442900E+03  0.49396784904E+03  0.17015899581E+03 0.  0.
         24    2    3    3    0    0 -0.60543228115E+02  0.97517577398E+02 -0.78101043286E+02  0.16017472782E+03  0.79881224947E+02 0.  0.
         -6    2    1    2    0  502  0.10464643738E+03 -0.28381497768E+03  0.23769661903E+03  0.42083767738E+03  0.17059557320E+03 0.  0.
        -24    2    5    5    0    0  0.13498770797E+03 -0.20261004818E+03  0.14641437465E+03  0.29486398404E+03  0.78962567403E+02 0.  0.
          5    1    3    3  501    0 -0.44103209264E+02  0.18629740028E+03 -0.27339338571E+03  0.33379312121E+03  0.47000000000E+01 0. -1.
        -13    1    4    4    0    0  0.43928170480E+01  0.61707261355E+02 -0.17182607669E+02  0.64205334294E+02  0.00000000000E+00 0.  1.
         14    1    4    4    0    0 -0.64936045163E+02  0.35810316043E+02 -0.60918435617E+02  0.95969393530E+02  0.00000000000E+00 0. -1.
         -5    1    5    5    0  502 -0.30341270593E+02 -0.81204929493E+02  0.91282244379E+02  0.12597369334E+03  0.47000000000E+01 0.  1.
         13    1    6    6    0    0  0.71708220821E+02 -0.11277535172E+03  0.12484201705E+03  0.18288214268E+03  0.00000000000E+00 0. -1.
        -14    1    6    6    0    0  0.63279487150E+02 -0.89834696460E+02  0.21572357599E+02  0.11198184136E+03  0.00000000000E+00 0.  1.
</event>
<event>
12    1  0.8453150E-002  0.2725472E+03  0.7818608E-02  0.1100218E+00
         21   -1    0    0  503  502  0.00000000000E+00  0.00000000000E+00  0.70889709460E+02  0.70889709460E+02  0.00000000000E+00 0. -1.
         21   -1    0    0  501  503 -0.00000000000E+00 -0.00000000000E+00 -0.12598320015E+04  0.12598320015E+04  0.00000000000E+00 0. -1.
          6    2    1    2  501    0 -0.14347352693E+03 -0.15227552508E+03 -0.87158837205E+03  0.91239708203E+03  0.17038091601E+03 0.  0.
         24    2    3    3    0    0 -0.42986414828E+02 -0.72468116465E+02 -0.23217053063E+03  0.26021294538E+03  0.81903369214E+02 0.  0.
         -6    2    1    2    0  502  0.14347352693E+03  0.15227552508E+03 -0.31735392003E+03  0.41832462897E+03  0.17466967733E+03 0.  0.
        -24    2    5    5    0    0  0.65350764198E+02  0.12117740886E+03 -0.29519084651E+03  0.33124104431E+03  0.60235427902E+02 0.  0.
          5    1    3    3  501    0 -0.10048711210E+03 -0.79807408612E+02 -0.63941784142E+03  0.65218413665E+03  0.47000000000E+01 0. -1.
        -11    1    4    4    0    0 -0.44921093299E+02 -0.33491084306E+01 -0.62918585263E+02  0.77381325408E+02  0.00000000000E+00 0.  1.
         12    1    4    4    0    0  0.19346784711E+01 -0.69119008034E+02 -0.16925194537E+03  0.18283161998E+03  0.00000000000E+00 0. -1.
         -5    1    5    5    0  502  0.78122762728E+02  0.31098116220E+02 -0.22163073518E+02  0.87083584656E+02  0.47000000000E+01 0.  1.
         13    1    6    6    0    0  0.23206085512E+02  0.59040935273E+02 -0.73026169439E+02  0.96732496430E+02  0.00000000000E+00 0. -1.
        -14    1    6    6    0    0  0.42144678687E+02  0.62136473584E+02 -0.22216467707E+03  0.23450854788E+03  0.00000000000E+00 0.  1.
</event>
<event>
12    1  0.8453150E-002  0.2667682E+03  0.7818608E-02  0.1103387E+00
         21   -1    0    0  501  502  0.00000000000E+00  0.00000000000E+00  0.33164676253E+03  0.33164676253E+03  0.00000000000E+00 0.  1.
         21   -1    0    0  502  503 -0.00000000000E+00 -0.00000000000E+00 -0.23889050524E+03  0.23889050524E+03  0.00000000000E+00 0. -1.
         -6    2    1    2    0  503 -0.83063231369E+02  0.18576958202E+03 -0.47221693899E+02  0.26927479054E+03  0.16990934770E+03 0.  0.
        -24    2    3    3    0    0 -0.40469950339E+02  0.69459866550E+02  0.36077046729E+02  0.11993320995E+03  0.81362962134E+02 0.  0.
          6    2    1    2  501    0  0.83063231369E+02 -0.18576958202E+03  0.13997795119E+03  0.30126247722E+03  0.17249758072E+03 0.  0.
         24    2    5    5    0    0  0.22129021612E+01 -0.20192625822E+02  0.63456286479E+02  0.10168753058E+03  0.76818061083E+02 0.  0.
          5    1    5    5  501    0  0.80850329208E+02 -0.16557695620E+03  0.76521664708E+02  0.19957494664E+03  0.47000000000E+01 0. -1.
        -11    1    6    6    0    0  0.16944021964E+02  0.17717703778E+02  0.54900461481E+02  0.60125515202E+02  0.00000000000E+00 0.  1.
         12    1    6    6    0    0 -0.14731119803E+02 -0.37910329600E+02  0.85558249983E+01  0.41562015380E+02  0.00000000000E+00 0. -1.
         -5    1    3    3    0  503 -0.42593281030E+02  0.11630971547E+03 -0.83298740627E+02  0.14934158059E+03  0.47000000000E+01 0.  1.
         13    1    4    4    0    0 -0.77476142454E+01  0.21368971658E+02 -0.26220603376E+02  0.34701275447E+02  0.00000000000E+00 0. -1.
        -14    1    4    4    0    0 -0.32722336094E+02  0.48090894892E+02  0.62297650105E+02  0.85231934506E+02  0.00000000000E+00 0.  1.
</event>
<event>
12    1  0.8453150E-002  0.1725419E+03  0.7818608E-02  0.1175519E+00
         21   -1    0    0  503  502  0.00000000000E+00  0.00000000000E+00  0.45514104598E+03  0.45514104598E+03  0.00000000000E+00 0.  1.
         21   -1    0    0  501  503 -0.00000000000E+00 -0.00000000000E+00 -0.75935004414E+02  0.75935004414E+02  0.00000000000E+00 0.  1.
          6    2    1    2  501    0  0.45029083443E+01  0.26090718449E+01  0.88166344718E+02  0.19273478843E+03  0.17130764983E+03 0.  0.
         24    2    3    3    0    0  0.49397673296E+02  0.27459687663E+02  0.82397107106E+01  0.97637733533E+02  0.79190085258E+02 0.  0.
         -6    2    1    2    0  502 -0.45029083443E+01 -0.26090718449E+01  0.29103969685E+03  0.33834126196E+03  0.17246339022E+03 0.  0.
        -24    2    5    5    0    0 -0.48210628444E+02  0.41311197656E+02  0.23035645558E+03  0.25148563094E+03  0.78422230241E+02 0.  0.
          5    1    3    3  501    0 -0.44894764952E+02 -0.24850615818E+02  0.79926634007E+02  0.95097054898E+02  0.47000000000E+01 0. -1.
        -11    1    4    4    0    0 -0.53691835762E+01 -0.18621123546E+02 -0.12570643877E+02  0.23099685320E+02  0.00000000000E+00 0.  1.
         12    1    4    4    0    0  0.54766856872E+02  0.46080811209E+02  0.20810354587E+02  0.74538048213E+02  0.00000000000E+00 0. -1.
         -5    1    5    5    0  502  0.43707720099E+02 -0.43920269501E+02  0.60683241271E+02  0.86855631023E+02  0.47000000000E+01 0.  1.
         11    1    6    6    0    0 -0.32516457070E+02  0.81910441572E+01  0.22403754431E+02  0.40327923297E+02  0.00000000000E+00 0. -1.
        -12    1    6    6    0    0 -0.15694171373E+02  0.33120153499E+02  0.20795270115E+03  0.21115770764E+03  0.00000000000E+00 0.  1.
</event>
<event>
12    1  0.8453150E-002  0.1828288E+03  0.7818608E-02  0.1165858E+00
         21   -1    0    0  501  502  0.00000000000E+00  0.00000000000E+00  0.52481936232E+02  0.52481936232E+02  0.00000000000E+00 0. -1.
         21   -1    0    0  502  503 -0.00000000000E+00 -0.00000000000E+00 -0.85475879879E+03  0.85475879879E+03  0.00000000000E+00 0. -1.
         -6    2    1    2    0  503 -0.46178851401E+02 -0.12250703086E+02 -0.63330277773E+03  0.65828570207E+03  0.17316203747E+03 0.  0.
        -24    2    3    3    0    0 -0.10111483597E+02 -0.63648876508E+02 -0.50377775410E+03  0.51426678317E+03  0.80776711819E+02 0.  0.
          6    2    1    2  501    0  0.46178851401E+02  0.12250703086E+02 -0.16897408483E+03  0.24895503296E+03  0.17647606367E+03 0.  0.
         24    2    5    5    0    0  0.40506219950E+02  0.14018624573E+02 -0.19850495911E+03  0.21846787452E+03  0.80540162116E+02 0.  0.
          5    1    5    5  501    0  0.56726314509E+01 -0.17679214869E+01  0.29530874283E+02  0.30487158442E+02  0.47000000000E+01 0. -1.
        -11    1    6    6    0    0  0.30284971497E+01 -0.27130032091E+02 -0.27984977374E+02  0.39094365257E+02  0.00000000000E+00 0.  1.
         12    1    6    6    0    0  0.37477722801E+02  0.41148656664E+02 -0.17051998174E+03  0.17937350926E+03  0.00000000000E+00 0. -1.
         -5    1    3    3    0  503 -0.36067367804E+02  0.51398173422E+02 -0.12952502364E+03  0.14401891889E+03  0.47000000000E+01 0.  1.
         13    1    4    4    0    0 -0.11799685863E+02 -0.57422456767E+02 -0.15955264782E+03  0.16998123000E+03  0.00000000000E+00 0. -1.
        -14    1    4    4    0    0  0.16882022663E+01 -0.62264197415E+01 -0.34422510628E+03  0.34428555317E+03  0.00000000000E+00 0.  1.
</event>
<event>
12    1  0.8453150E-002  0.2373593E+03  0.7818608E-02  0.1121587E+00
         21   -1    0    0  501  502  0.00000000000E+00  0.00000000000E+00  0.43435393794E+02  0.43435393794E+02  0.00000000000E+00 0. -1.
         21   -1    0    0  502  503 -0.00000000000E+00 -0.00000000000E+00 -0.14557314428E+04  0.14557314428E+04  0.00000000000E+00 0.  1.
         -6    2    1    2    0  503  0.17257528047E+02  0.16278980346E+03 -0.45794490805E+03  0.51574143584E+03  0.17168968356E+03 0.  0.
        -24    2    3    3    0    0  0.49548154650E+02  0.14913084877E+03 -0.25697757458E+03  0.31168455471E+03  0.80092185181E+02 0.  0.
          6    2    1    2  501    0 -0.17257528047E+02 -0.16278980346E+03 -0.95435114095E+03  0.98342540076E+03  0.17187517631E+03 0.  0.
         24    2    5    5    0    0  0.18840272794E+02 -0.12375055113E+02 -0.22303832483E+03  0.23591742570E+03  0.73504010360E+02 0.  0.
          5    1    5    5  501    0 -0.36097800841E+02 -0.15041474835E+03 -0.73131281612E+03  0.74750797505E+03  0.47000000000E+01 0. -1.
        -11    1    6    6    0    0  0.39503716794E+02 -0.29001375557E+02 -0.12247918936E+03  0.13191957873E+03  0.00000000000E+00 0.  1.
         12    1    6    6    0    0 -0.20663444000E+02  0.16626320444E+02 -0.10055913547E+03  0.10399784698E+03  0.00000000000E+00 0. -1.
         -5    1    3    3    0  503 -0.32290626603E+02  0.13658954690E+02 -0.20096733348E+03  0.20405688112E+03  0.47000000000E+01 0.  1.
         11    1    4    4    0    0 -0.89699402436E+01  0.88972107959E+02 -0.10367046660E+03  0.13690895320E+03  0.00000000000E+00 0. -1.
        -12    1    4    4    0    0  0.58518094894E+02  0.60158740810E+02 -0.15330710798E+03  0.17477560151E+03  0.00000000000E+00 0.  1.
</event>
<event>
12    1  0.8453150E-002  0.2165801E+03  0.7818608E-02  0.1136703E+00
         21   -1    0    0  503  502  0.00000000000E+00  0.00000000000E+00  0.15008487538E+04  0.15008487538E+04  0.00000000000E+00 0.  1.
         21   -1    0    0  501  503 -0.00000000000E+00 -0.00000000000E+00 -0.31073883889E+02  0.31073883889E+02  0.00000000000E+00 0.  1.
          6    2    1    2  501    0  0.39115287001E+02  0.12479492660E+03  0.74686479482E+03  0.77763356293E+03  0.17263590901E+03 0.  0.
         24    2    3    3    0    0  0.84977906069E+02  0.51446263441E+02  0.38705280794E+03  0.40753876140E+03  0.80062496674E+02 0.  0.
         -6    2    1    2    0  502 -0.39115287001E+02 -0.12479492660E+03  0.72291007512E+03  0.75428907478E+03  0.17102412766E+03 0.  0.
        -24    2    5    5    0    0  0.62867253508E+00 -0.30189870801E+02  0.51806107108E+03  0.52512777055E+03  0.80374613549E+02 0.  0.
          5    1    3    3  501    0 -0.45862619068E+02  0.73348663159E+02  0.35981198688E+03  0.37009480153E+03  0.47000000000E+01 0. -1.
        -11    1    4    4    0    0  0.65575136439E+02  0.64421838472E+02  0.36117242772E+03  0.37268726076E+03  0.00000000000E+00 0.  1.
         12    1    4    4    0    0  0.19402769630E+02 -0.12975575031E+02  0.25880380215E+02  0.34851500638E+02  0.00000000000E+00 0. -1.
         -5    1    5    5    0  502 -0.39743959536E+02 -0.94605055799E+02  0.20484900404E+03  0.22916130423E+03  0.47000000000E+01 0.  1.
         11    1    6    6    0    0 -0.27222703094E+02  0.13258403940E+02  0.12120283591E+03  0.12492793231E+03  0.00000000000E+00 0. -1.
        -12    1    6    6    0    0  0.27851375629E+02 -0.43448274742E+02  0.39685823517E+03  0.40019983823E+03  0.00000000000E+00 0.  1.
</event>
<event>
12    1  0.8453150E-002  0.2052562E+03  0.7818608E-02  0.1146375E+00
         21   -1    0    0  503  502  0.00000000000E+00  0.00000000000E+00  0.15224757713E+03  0.15224757713E+03  0.00000000000E+00 0.  1.
         21   -1    0    0  501  503 -0.00000000000E+00 -0.00000000000E+00 -0.27115047756E+03  0.27115047756E+03  0.00000000000E+00 0. -1.
          6    2    1    2  501    0  0.10380459204E+03  0.14549781836E+02 -0.48014520501E+02  0.21079727810E+03  0.17647381901E+03 0.  0.
         24    2    3    3    0    0  0.69780515603E+02 -0.40403662310E+02 -0.78986527285E+02  0.13897197612E+03  0.81071341222E+02 0.  0.
         -6    2    1    2    0  502 -0.10380459204E+03 -0.14549781836E+02 -0.70888379928E+02  0.21260077659E+03  0.17084155911E+03 0.  0.
        -24    2    5    5    0    0  0.69468929838E+01 -0.14635526468E+02 -0.64779958990E+02  0.10158140174E+03  0.76549853924E+02 0.  0.
          5    1    3    3  501    0  0.34024076435E+02  0.54953444146E+02  0.30972006784E+02  0.71825301983E+02  0.47000000000E+01 0. -1.
        -13    1    4    4    0    0  0.37932213964E+01 -0.22177333811E+02 -0.65422092652E+02  0.69182894348E+02  0.00000000000E+00 0.  1.
         14    1    4    4    0    0  0.65987294206E+02 -0.18226328499E+02 -0.13564434634E+02  0.69789081769E+02  0.00000000000E+00 0. -1.
         -5    1    5    5    0  502 -0.11075148502E+03  0.85744631859E-01 -0.61084209374E+01  0.11101937485E+03  0.47000000000E+01 0.  1.
         13    1    6    6    0    0  0.47059476952E+01  0.18427949487E+01  0.17202364701E+02  0.17929394531E+02  0.00000000000E+00 0. -1.
        -14    1    6    6    0    0  0.22409452885E+01 -0.16478321416E+02 -0.81982323691E+02  0.83652007210E+02  0.00000000000E+00 0.  1.
</event>
<event>
12    1  0.8453150E-002  0.2369705E+03  0.7818608E-02  0.1121902E+00
         21   -1    0    0  503  502  0.00000000000E+00  0.00000000000E+00  0.24414763160E+03  0.24414763160E+03  0.00000000000E+00 0.  1.
         21   -1    0    0  501  503 -0.00000000000E+00 -0.00000000000E+00 -0.38362956479E+03  0.38362956479E+03  0.00000000000E+00 0.  1.
          6    2    1    2  501    0  0.12571045772E+03 -0.10403691913E+03 -0.26860987589E+03  0.35790863742E+03  0.17123237893E+03 0.  0.
         24    2    3    3    0    0  0.14953383205E+03 -0.98539334628E+02 -0.26931410759E+03  0.33300155926E+03  0.79306888278E+02 0.  0.
         -6    2    1    2    0  502 -0.12571045772E+03  0.10403691913E+03  0.12912794269E+03  0.26986855897E+03  0.17183775434E+03 0.  0.
        -24    2    5    5    0    0 -0.28611466058E+02  0.21175454545E+02  0.66291580813E+00  0.88706781475E+02  0.81249232348E+02 0.  0.
          5    1    3    3  501    0 -0.23823374338E+02 -0.54975844993E+01  0.70423169730E+00  0.24907078160E+02  0.47000000000E+01 0. -1.
        -13    1    4    4    0    0 -0.67608575560E+01 -0.96130637600E+01 -0.39410969851E+02  0.41125961804E+02  0.00000000000E+00 0.  1.
         14    1    4    4    0    0  0.15629468961E+03 -0.88926270868E+02 -0.22990313773E+03  0.29187559746E+03  0.00000000000E+00 0. -1.
         -5    1    5    5    0  502 -0.97098991657E+02  0.82861464582E+02  0.12846502689E+03  0.18116177750E+03  0.47000000000E+01 0.  1.
         11    1    6    6    0    0  0.90600227656E+01  0.14941773214E+02  0.33864441367E+02  0.38106967715E+02  0.00000000000E+00 0. -1.
        -12    1    6    6    0    0 -0.37671488824E+02  0.62336813315E+01 -0.33201525559E+02  0.50599813761E+02  0.00000000000E+00 0.  1.
</event>
<event>
12    1  0.8453150E-002  0.1756473E+03  0.7818608E-02  0.1172332E+00
         21   -1    0    0  503  502  0.00000000000E+00  0.00000000000E+00  0.48833391877E+02  0.48833391877E+02  0.00000000000E+00 0. -1.
         21   -1    0    0  501  503 -0.00000000000E+00 -0.00000000000E+00 -0.65366060507E+03  0.65366060507E+03  0.00000000000E+00 0. -1.
          6    2    1    2  501    0 -0.28289899816E+02 -0.74400947421E+01 -0.37254476914E+03  0.41187568895E+03  0.17319441301E+03 0.  0.
         24    2    3    3    0    0  0.51713157694E+02 -0.68428676114E+00 -0.20385026973E+03  0.22499055235E+03  0.79944338458E+02 0.  0.
         -6    2    1    2    0  502  0.28289899816E+02  0.74400947421E+01 -0.23228244405E+03  0.29061830799E+03  0.17218650842E+03 0.  0.
        -24    2    5    5    0    0  0.77146005245E+02 -0.21957638976E+02 -0.18440907315E+03  0.21601874079E+03  0.78890722370E+02 0.  0.
          5    1    3    3  501    0 -0.80003057510E+02 -0.67558079810E+01 -0.16869449940E+03  0.18688513660E+03  0.47000000000E+01 0. -1.
        -11    1    4    4    0    0  0.59372071681E+02  0.12494510886E+02 -0.81027415671E+02  0.10122547994E+03  0.00000000000E+00 0.  1.
         12    1    4    4    0    0 -0.76589139863E+01 -0.13178797647E+02 -0.12282285406E+03  0.12376507242E+03  0.00000000000E+00 0. -1.
         -5    1    5    5    0  502 -0.48856105429E+02  0.29397733718E+02 -0.47873370904E+02  0.74599567205E+02  0.47000000000E+01 0.  1.
         11    1    6    6    0    0  0.43794081245E+02  0.27965054939E+02 -0.75415156736E+02  0.91582813428E+02  0.00000000000E+00 0. -1.
        -12    1    6    6    0    0  0.33351924000E+02 -0.49922693915E+02 -0.10899391641E+03  0.12443592736E+03  0.00000000000E+00 0.  1.
</event>
<event>
12    1  0.8453150E-002  0.1960794E+03  0.7818608E-02  0.1153441E+00
         21   -1    0    0  501  502  0.00000000000E+00  0.00000000000E+00  0.11037565214E+03  0.11037565214E+03  0.00000000000E+00 0. -1.
         21   -1    0    0  502  503 -0.00000000000E+00 -0.00000000000E+00 -0.78074512447E+03  0.78074512447E+03  0.00000000000E+00 0. -1.
         -6    2    1    2    0  503 -0.93886493027E+02 -0.85879558512E+01 -0.66848325464E+03  0.69664695904E+03  0.17192642975E+03 0.  0.
        -24    2    3    3    0    0 -0.23153910223E+02 -0.52441452026E+02 -0.27514047039E+03  0.29456877843E+03  0.88217216758E+02 0.  0.
          6    2    1    2  501    0  0.93886493027E+02  0.85879558512E+01 -0.18862176907E+01  0.19447381757E+03  0.17008257214E+03 0.  0.
         24    2    5    5    0    0 -0.66157681936E+01  0.17661418568E+01 -0.53799306673E+02  0.81052917979E+02  0.60235558174E+02 0.  0.
          5    1    5    5  501    0  0.10050226122E+03  0.68218139943E+01  0.51913088983E+02  0.11342089959E+03  0.47000000000E+01 0. -1.
        -13    1    6    6    0    0  0.10480575412E+02  0.27368247037E+02 -0.20895768138E+02  0.35993006722E+02  0.00000000000E+00 0.  1.
         14    1    6    6    0    0 -0.17096343606E+02 -0.25602105180E+02 -0.32903538535E+02  0.45059911257E+02  0.00000000000E+00 0. -1.
         -5    1    3    3    0  503 -0.70732582803E+02  0.43853496175E+02 -0.39334278425E+03  0.40207818061E+03  0.47000000000E+01 0.  1.
         11    1    4    4    0    0 -0.47686846063E+02 -0.30695969483E+01 -0.97684839086E+02  0.10874642753E+03  0.00000000000E+00 0. -1.
        -12    1    4    4    0    0  0.24532935840E+02 -0.49371855078E+02 -0.17745563130E+03  0.18582235091E+03  0.00000000000E+00 0.  1.
</event>
<event>
12    1  0.8453150E-002  0.2266275E+03  0.7818608E-02  0.1129306E+00
         21   -1    0    0  503  502  0.00000000000E+00  0.00000000000E+00  0.38486800141E+02  0.38486800141E+02  0.00000000000E+00 0.  1.
         21   -1    0    0  501  503 -0.00000000000E+00 -0.00000000000E+00 -0.14194553821E+04  0.14194553821E+04  0.00000000000E+00 0.  1.
          6    2    1    2  501    0 -0.49694307584E+01  0.14646702852E+03 -0.50095230451E+03  0.54921302263E+03  0.17089308690E+03 0.  0.
         24    2    3    3    0    0 -0.13162449614E+02  0.43684235728E+02 -0.10451611153E+03  0.13956051970E+03  0.80448483886E+02 0.  0.
         -6    2    1    2    0  502  0.49694307584E+01 -0.14646702852E+03 -0.88001627742E+03  0.90872915958E+03  0.17286628144E+03 0.  0.
        -24    2    5    5    0    0  0.89224220403E+01 -0.12277658055E+03 -0.36981733481E+03  0.39794357394E+03  0.80252903745E+02 0.  0.
          5    1    3    3  501    0  0.81930188561E+01  0.10278279279E+03 -0.39643619298E+03  0.40965250293E+03  0.47000000000E+01 0. -1.
        -13    1    4    4    0    0 -0.22668394422E+02  0.57617279398E+02 -0.42020144370E+02  0.74828467335E+02  0.00000000000E+00 0.  1.
         14    1    4    4    0    0  0.95059448072E+01 -0.13933043670E+02 -0.62495967156E+02  0.64732052365E+02  0.00000000000E+00 0. -1.
         -5    1    5    5    0  502 -0.39529912819E+01 -0.23690447964E+02 -0.51019894260E+03  0.51078558564E+03  0.47000000000E+01 0.  1.
         11    1    6    6    0    0  0.42813780385E+02 -0.58234809596E+02 -0.15333807132E+03  0.16951954741E+03  0.00000000000E+00 0. -1.
        -12    1    6    6    0    0 -0.33891358344E+02 -0.64541770959E+02 -0.21647926350E+03  0.22842402652E+03  0.00000000000E+00 0.  1.
</event>
<event>
12    1  0.8453150E-002  0.3765562E+03  0.7818608E-02  0.1052223E+00
         21   -1    0    0  503  502  0.00000000000E+00  0.00000000000E+00  0.48634466560E+03  0.48634466560E+03  0.00000000000E+00 0.  1.
         21   -1    0    0  501  503 -0.00000000000E+00 -0.00000000000E+00 -0.61926381522E+03  0.61926381522E+03  0.00000000000E+00 0.  1.
          6    2    1    2  501    0  0.33326652447E+03 -0.29473260057E+02 -0.46864520475E+03  0.60112202045E+03  0.17258072356E+03 0.  0.
         24    2    3    3    0    0  0.98825113458E+02  0.34407211292E+02 -0.19942583101E+03  0.23843117274E+03  0.78284754712E+02 0.  0.
         -6    2    1    2    0  502 -0.33326652447E+03  0.29473260057E+02  0.33572605514E+03  0.50448646037E+03  0.17279859724E+03 0.  0.
        -24    2    5    5    0    0 -0.28846847443E+03 -0.17845024517E+02  0.31828087945E+03  0.43686760577E+03  0.77576292174E+02 0.  0.
          5    1    3    3  501    0  0.23444141101E+03 -0.63880471349E+02 -0.26921937374E+03  0.36269084771E+03  0.47000000000E+01 0. -1.
        -11    1    4    4    0    0  0.17612709667E+02  0.33562351617E+02 -0.11585180201E+03  0.12189454056E+03  0.00000000000E+00 0.  1.
         12    1    4    4    0    0  0.81212403791E+02  0.84485967471E+00 -0.83574029000E+02  0.11653663218E+03  0.00000000000E+00 0. -1.
         -5    1    5    5    0  502 -0.44798050043E+02  0.47318284574E+02  0.17445175681E+02  0.67618854599E+02  0.47000000000E+01 0.  1.
         13    1    6    6    0    0 -0.11968007684E+02  0.16389871814E+02  0.16640731271E+02  0.26244524062E+02  0.00000000000E+00 0. -1.
        -14    1    6    6    0    0 -0.27650046674E+03 -0.34234896331E+02  0.30164014818E+03  0.41062308171E+03  0.00000000000E+00 0.  1.
</event>
<event>
12    1  0.8453150E-002  0.2975128E+03  0.7818608E-02  0.1087347E+00
         21   -1    0    0  503  502  0.00000000000E+00  0.00000000000E+00  0.51258834619E+03  0.51258834619E+03  0.00000000000E+00 0. -1.
         21   -1    0    0  501  503 -0.00000000000E+00 -0.00000000000E+00 -0.17307167505E+03  0.17307167505E+03  0.00000000000E+00 0. -1.
          6    2    1    2  501    0  0.19054362922E+03 -0.13751425204E+03  0.11412303767E+03  0.31240925348E+03  0.17134301790E+03 0.  0.
         24    2    3    3    0    0  0.81325578580E+02 -0.12257157388E+03  0.11213149149E+03  0.20205562883E+03  0.81334895982E+02 0.  0.
         -6    2    1    2    0  502 -0.19054362922E+03  0.13751425204E+03  0.22539363347E+03  0.37325076776E+03  0.18247411179E+03 0.  0.
        -24    2    5    5    0    0 -0.90044834937E+02  0.12887104972E+03  0.74866646669E+02  0.19199079878E+03  0.80867992917E+02 0.  0.
          5    1    3    3  501    0  0.10921805064E+03 -0.14942678157E+02  0.19915461805E+01  0.11035362465E+03  0.47000000000E+01 0. -1.
        -13    1    4    4    0    0 -0.66802601444E+01 -0.40523012729E+01  0.34290228340E+02  0.35169116862E+02  0.00000000000E+00 0.  1.
         14    1    4    4    0    0  0.88005838724E+02 -0.11851927261E+03  0.77841263149E+02  0.16688651197E+03  0.00000000000E+00 0. -1.
         -5    1    5    5    0  502 -0.10049879428E+03  0.86432023213E+01  0.15052698680E+03  0.18125996898E+03  0.47000000000E+01 0.  1.
         11    1    6    6    0    0 -0.90824740313E+02  0.62314214505E+02  0.43781914838E+02  0.11852869209E+03  0.00000000000E+00 0. -1.
        -12    1    6    6    0    0  0.77990537532E+00  0.66556835215E+02  0.31084731831E+02  0.73462106689E+02  0.00000000000E+00 0.  1.
</event>
<event>
12    1  0.8453150E-002  0.1992645E+03  0.7818608E-02  0.1151375E+00
         21   -1    0    0  501  502  0.00000000000E+00  0.00000000000E+00  0.95491542757E+02  0.95491542757E+02  0.00000000000E+00 0.  1.
         21   -1    0    0  502  503 -0.00000000000E+00 -0.00000000000E+00 -0.41651076469E+03  0.41651076469E+03  0.00000000000E+00 0. -1.
         -6    2    1    2    0  503 -0.11911718318E+02  0.89846560172E+02 -0.19927254000E+03  0.27848870604E+03  0.17213982917E+03 0.  0.
        -24    2    3    3    0    0  0.51675804235E+02  0.41439198602E+02 -0.64475698926E+02  0.12171203673E+03  0.79177700192E+02 0.  0.
          6    2    1    2  501    0  0.11911718318E+02 -0.89846560172E+02 -0.12174668194E+03  0.23351360141E+03  0.17746000696E+03 0.  0.
         24    2    5    5    0    0 -0.23585682969E+02 -0.66406004807E+02 -0.21213198022E+01  0.10646305084E+03  0.79773675362E+02 0.  0.
          5    1    5    5  501    0  0.35497401287E+02 -0.23440555365E+02 -0.11962536213E+03  0.12705055057E+03  0.47000000000E+01 0. -1.
        -13    1    6    6    0    0 -0.42599180200E+02 -0.62515877809E+01  0.30521919025E+01  0.43163507491E+02  0.00000000000E+00 0.  1.
         14    1    6    6    0    0  0.19013497231E+02 -0.60154417026E+02 -0.51735117048E+01  0.63299543348E+02  0.00000000000E+00 0. -1.
         -5    1    3    3    0  503 -0.63587522553E+02  0.48407361570E+02 -0.13479684107E+03  0.15677666932E+03  0.47000000000E+01 0.  1.
         11    1    4    4    0    0  0.37313954505E+02  0.62501332895E+02 -0.62844125707E+02  0.96167208290E+02  0.00000000000E+00 0. -1.
        -12    1    4    4    0    0  0.14361849730E+02 -0.21062134293E+02 -0.16315732191E+01  0.25544828435E+02  0.00000000000E+00 0.  1.
</event>
<event>
12    1  0.8453150E-002  0.2275355E+03  0.7818608E-02  0.1128447E+00
         21   -1    0    0  503  502  0.00000000000E+00  0.00000000000E+00  0.47128321822E+03  0.47128321822E+03  0.00000000000E+00 0.  1.
         21   -1    0    0  501  503 -0.00000000000E+00 -0.00000000000E+00 -0.95614502277E+03  0.95614502277E+03  0.00000000000E+00 0. -1.
          6    2    1    2  501    0  0.13583850916E+03 -0.61639042253E+02 -0.91397919269E+03  0.94187597840E+03  0.17181653563E+03 0.  0.
         24    2    3    3    0    0  0.83962335946E+01  0.11256999097E+02 -0.32507379718E+03  0.33492703384E+03  0.79409871017E+02 0.  0.
         -6    2    1    2    0  502 -0.13583850916E+03  0.61639042253E+02  0.42911738813E+03  0.48555226259E+03  0.17137034401E+03 0.  0.
        -24    2    5    5    0    0 -0.87167416435E+02  0.56791839018E+02  0.13877354850E+03  0.19107984307E+03  0.80186889174E+02 0.  0.
          5    1    3    3  501    0  0.12744227556E+03 -0.72896041350E+02 -0.58890539550E+03  0.60694894456E+03  0.47000000000E+01 0. -1.
        -11    1    4    4    0    0 -0.68998315086E+01 -0.30215280405E+02 -0.78030579129E+02  0.83960360433E+02  0.00000000000E+00 0.  1.
         12    1    4    4    0    0  0.15296065103E+02  0.41472279502E+02 -0.24704321806E+03  0.25096667341E+03  0.00000000000E+00 0. -1.
         -5    1    5    5    0  502 -0.48671092722E+02  0.48472032348E+01  0.29034383963E+03  0.29447241952E+03  0.47000000000E+01 0.  1.
         13    1    6    6    0    0 -0.57279594846E+02 -0.91426499157E+01  0.50409245390E+02  0.76848110283E+02  0.00000000000E+00 0. -1.
        -14    1    6    6    0    0 -0.29887821589E+02  0.65934488934E+02  0.88364303111E+02  0.11423173278E+03  0.00000000000E+00 0.  1.
</event>
<event>
12    1  0.8453150E-002  0.2005246E+03  0.7818608E-02  0.1149685E+00
         21   -1    0    0  501  502  0.00000000000E+00  0.00000000000E+00  0.17913982666E+03  0.17913982666E+03  0.00000000000E+00 0. -1.
         21   -1    0    0  502  503 -0.00000000000E+00 -0.00000000000E+00 -0.26253089735E+03  0.26253089735E+03  0.00000000000E+00 0. -1.
         -6    2    1    2    0  503 -0.88084136312E+02  0.46326009848E+02 -0.12785971653E+03  0.23627461502E+03  0.17196706759E+03 0.  0.
        -24    2    3    3    0    0 -0.94681287496E+02  0.47434864076E+01 -0.15000440541E+03  0.18847183367E+03  0.63507980434E+02 0.  0.
          6    2    1    2  501    0  0.88084136312E+02 -0.46326009848E+02  0.44468645844E+02  0.20539610899E+03  0.17408385011E+03 0.  0.
         24    2    5    5    0    0  0.55678131505E+02  0.38494190921E+02 -0.47938945836E+01  0.10198671147E+03  0.76134426046E+02 0.  0.
          5    1    5    5  501    0  0.32406004807E+02 -0.84820200769E+02  0.49262540428E+02  0.10340939752E+03  0.47000000000E+01 0. -1.
        -13    1    6    6    0    0  0.80862743975E+01  0.11068318575E+02  0.32716549919E+02  0.35472075613E+02  0.00000000000E+00 0.  1.
         14    1    6    6    0    0  0.47591857108E+02  0.27425872346E+02 -0.37510444502E+02  0.66514635861E+02  0.00000000000E+00 0. -1.
         -5    1    3    3    0  503  0.65971511841E+01  0.41582523440E+02  0.22144688881E+02  0.47802781353E+02  0.47000000000E+01 0.  1.
         13    1    4    4    0    0 -0.59945122486E+02  0.29099044036E+02 -0.11729972143E+03  0.13490513972E+03  0.00000000000E+00 0. -1.
        -14    1    4    4    0    0 -0.34736165010E+02 -0.24355557629E+02 -0.32704683981E+02  0.53566693955E+02  0.00000000000E+00 0.  1.
</event>
<event>
12    1  0.8453150E-002  0.1964060E+03  0.7818608E-02  0.1152844E+00
         21   -1    0    0  503  502  0.00000000000E+00  0.00000000000E+00  0.13537071494E+03  0.13537071494E+03  0.00000000000E+00 0.  1.
         21   -1    0    0  501  503 -0.00000000000E+00 -0.00000000000E+00 -0.56192219647E+03  0.56192219647E+03  0.00000000000E+00 0.  1.
          6    2    1    2  501    0 -0.87746576580E+02 -0.38804388161E+02 -0.45819927774E+03  0.49851969491E+03  0.17137697001E+03 0.  0.
         24    2    3    3    0    0  0.16822418946E+02  0.29071591763E+01 -0.22705954678E+03  0.24137733505E+03  0.80097033262E+02 0.  0.
         -6    2    1    2    0  502  0.87746576580E+02  0.38804388161E+02  0.31647796209E+02  0.19877321650E+03  0.17118401313E+03 0.  0.
        -24    2    5    5    0    0  0.65321558876E+02  0.31859459017E+02 -0.46504745612E+02  0.11703568991E+03  0.79074206698E+02 0.  0.
          5    1    3    3  501    0 -0.10456899553E+03 -0.41711547337E+02 -0.23113973096E+03  0.25714235986E+03  0.47000000000E+01 0. -1.
        -11    1    4    4    0    0  0.89664520136E+01 -0.37960083968E+02 -0.88756190083E+02  0.96948576651E+02  0.00000000000E+00 0.  1.
         12    1    4    4    0    0  0.78559669327E+01  0.40867243144E+02 -0.13830335670E+03  0.14442875840E+03  0.00000000000E+00 0. -1.
         -5    1    5    5    0  502  0.22425017704E+02  0.69449291435E+01  0.78152541821E+02  0.81737526590E+02  0.47000000000E+01 0.  1.
         13    1    6    6    0    0  0.67756022522E+01  0.45289599713E+02 -0.29990874658E+02  0.54740379892E+02  0.00000000000E+00 0. -1.
        -14    1    6    6    0    0  0.58545956624E+02 -0.13430140695E+02 -0.16513870954E+02  0.62295310016E+02  0.00000000000E+00 0.  1.
</event>
<event>
12    1  0.8453150E-002  0.2146446E+03  0.7818608E-02  0.1137983E+00
         21   -1    0    0  503  502  0.00000000000E+00  0.00000000000E+00  0.26317661818E+04  0.26317661818E+04  0.00000000000E+00 0. -1.
         21   -1    0    0  501  503 -0.00000000000E+00 -0.00000000000E+00 -0.17615933942E+02  0.17615933942E+02  0.00000000000E+00 0.  1.
          6    2    1    2  501    0  0.80058045311E+02  0.98738167591E+02  0.14192254313E+04  0.14353320297E+04  0.17268090317E+03 0.  0.
         24    2    3    3    0    0  0.10400492900E+03  0.78261031999E+02  0.75283138965E+03  0.76817696898E+03  0.79993374985E+02 0.  0.
         -6    2    1    2    0  502 -0.80058045311E+02 -0.98738167591E+02  0.11949248166E+04  0.12140500860E+04  0.17295599960E+03 0.  0.
        -24    2    5    5    0    0 -0.10879908719E+03 -0.11802096927E+03  0.10000104836E+04  0.10160309932E+04  0.80819683789E+02 0.  0.
          5    1    3    3  501    0 -0.23946883685E+02  0.20477135593E+02  0.66639404168E+03  0.66715506077E+03  0.47000000000E+01 0. -1.
        -11    1    4    4    0    0  0.99391699285E+02  0.30109430781E+02  0.54302215050E+03  0.55286376590E+03  0.00000000000E+00 0.  1.
         12    1    4    4    0    0  0.46132297104E+01  0.48151601218E+02  0.20980923915E+03  0.21531320308E+03  0.00000000000E+00 0. -1.
         -5    1    5    5    0  502  0.28741041877E+02  0.19282801679E+02  0.19491433294E+03  0.19801909280E+03  0.47000000000E+01 0.  1.
         11    1    6    6    0    0 -0.75636788778E+02 -0.10881514734E+03  0.91118130268E+03  0.92076762892E+03  0.00000000000E+00 0. -1.
        -12    1    6    6    0    0 -0.33162298410E+02 -0.92058219274E+01  0.88829180938E+02  0.95263364308E+02  0.00000000000E+00 0.  1.
</event>
<event>
12    1  0.8453150E-002  0.4236050E+03  0.7818608E-02  0.1035933E+00
         21   -1    0    0  503  502  0.00000000000E+00  0.00000000000E+00  0.13887229530E+03  0.13887229530E+03  0.00000000000E+00 0.  1.
         21   -1    0    0  501  503 -0.00000000000E+00 -0.00000000000E+00 -0.14793236413E+04  0.14793236413E+04  0.00000000000E+00 0.  1.
          6    2    1    2  501    0 -0.37959051634E+03 -0.74899525207E+02 -0.95929597595E+03  0.10486610414E+04  0.17245959331E+03 0.  0.
         24    2    3    3    0    0 -0.13526663917E+03 -0.50032514988E+02 -0.25727892485E+03  0.30491205473E+03  0.77321405309E+02 0.  0.
         -6    2    1    2    0  502  0.37959051634E+03  0.74899525207E+02 -0.38115537001E+03  0.56953489515E+03  0.17144002372E+03 0.  0.
        -24    2    5    5    0    0  0.15808997947E+03  0.91630628918E+02 -0.20966737324E+03  0.28887025416E+03  0.78083305336E+02 0.  0.
          5    1    3    3  501    0 -0.24432387716E+03 -0.24867010219E+02 -0.70201705110E+03  0.74374898667E+03  0.47000000000E+01 0. -1.
        -13    1    4    4    0    0 -0.29694800382E+02  0.21994110620E+01 -0.12181513587E+03  0.12540153869E+03  0.00000000000E+00 0.  1.
         14    1    4    4    0    0 -0.10557183879E+03 -0.52231926050E+02 -0.13546378898E+03  0.17951051605E+03  0.00000000000E+00 0. -1.
         -5    1    5    5    0  502  0.22150053687E+03 -0.16731103711E+02 -0.17148799677E+03  0.28066464099E+03  0.47000000000E+01 0.  1.
         11    1    6    6    0    0  0.12205010550E+03  0.99506602241E+02 -0.14317868998E+03  0.21283310224E+03  0.00000000000E+00 0. -1.
        -12    1    6    6    0    0  0.36039873974E+02 -0.78759733227E+01 -0.66488683255E+02  0.76037151925E+02  0.00000000000E+00 0.  1.
</event>
<event>
12    1  0.8453150E-002  0.1842139E+03  0.7818608E-02  0.1164740E+00
         21   -1    0    0  501  502  0.00000000000E+00  0.00000000000E+00  0.30429623109E+03  0.30429623109E+03  0.00000000000E+00 0.  1.
         21   -1    0    0  502  503 -0.00000000000E+00 -0.00000000000E+00 -0.17861526850E+03  0.17861526850E+03  0.00000000000E+00 0.  1.
         -6    2    1    2    0  503  0.57436833430E+02 -0.78177803909E+01 -0.88208771666E+02  0.20062873007E+03  0.17061943736E+03 0.  0.
        -24    2    3    3    0    0  0.68161130511E+02 -0.63838044727E+02 -0.58721659321E+02  0.13624814015E+03  0.79963033672E+02 0.  0.
          6    2    1    2  501    0 -0.57436833430E+02  0.78177803909E+01  0.21388973426E+03  0.28228276952E+03  0.17485604370E+03 0.  0.
         24    2    5    5    0    0 -0.10632738682E+03  0.97876934076E+01  0.14127977657E+03  0.19459889001E+03  0.80668708903E+02 0.  0.
          5    1    5    5  501    0  0.48890553394E+02 -0.19699130167E+01  0.72609957691E+02  0.87683879501E+02  0.47000000000E+01 0. -1.
        -11    1    6    6    0    0 -0.39551882800E+02  0.21389570257E+02  0.11214972984E+03  0.12082808883E+03  0.00000000000E+00 0.  1.
         12    1    6    6    0    0 -0.66775504024E+02 -0.11601876850E+02  0.29130046734E+02  0.73770801181E+02  0.00000000000E+00 0. -1.
         -5    1    3    3    0  503 -0.10724297081E+02  0.56020264336E+02 -0.29487112344E+02  0.64380589921E+02  0.47000000000E+01 0.  1.
         13    1    4    4    0    0 -0.12257515066E+02  0.10763736810E+01  0.66231191092E+01  0.13973938694E+02  0.00000000000E+00 0. -1.
        -14    1    4    4    0    0  0.80418645577E+02 -0.64914418408E+02 -0.65344778430E+02  0.12227420146E+03  0.00000000000E+00 0.  1.
</event>
<event>
12    1  0.8453150E-002  0.3473584E+03  0.7818608E-02  0.1063748E+00
         21   -1    0    0  503  502  0.00000000000E+00  0.00000000000E+00  0.31380843396E+03  0.31380843396E+03  0.00000000000E+00 0. -1.
         21   -1    0    0  501  503 -0.00000000000E+00 -0.00000000000E+00 -0.44990873477E+03  0.44990873477E+03  0.00000000000E+00 0.  1.
          6    2    1    2  501    0 -0.25617141774E+03 -0.15850788298E+03 -0.21419921027E+03  0.40809207508E+03  0.17294304214E+03 0.  0.
         24    2    3    3    0    0 -0.80806034344E+02 -0.30826597598E+02 -0.12931256075E+03  0.17510417496E+03  0.80373126207E+02 0.  0.
         -6    2    1    2    0  502  0.25617141774E+03  0.15850788298E+03  0.78098909449E+02  0.35562509365E+03  0.17210817337E+03 0.  0.
        -24    2    5    5    0    0  0.73260706342E+02  0.84067226273E+02 -0.15929724216E+02  0.13685303496E+03  0.77721087465E+02 0.  0.
          5    1    3    3  501    0 -0.17536538340E+03 -0.12768128539E+03 -0.84886649515E+02  0.23298790011E+03  0.47000000000E+01 0. -1.
        -11    1    4    4    0    0 -0.81375568209E+02 -0.34627837696E+02 -0.62765489753E+02  0.10844619380E+03  0.00000000000E+00 0.  1.
         12    1    4    4    0    0  0.56953386493E+00  0.38012400984E+01 -0.66547070998E+02  0.66657981169E+02  0.00000000000E+00 0. -1.
         -5    1    5    5    0  502  0.18291071140E+03  0.74440656711E+02  0.94028633665E+02  0.21877205869E+03  0.47000000000E+01 0.  1.
         11    1    6    6    0    0 -0.52912774338E+01  0.87712029292E+01  0.19827328403E+02  0.22317136226E+02  0.00000000000E+00 0. -1.
        -12    1    6    6    0    0  0.78551983776E+02  0.75296023344E+02 -0.35757052619E+02  0.11453589873E+03  0.00000000000E+00 0.  1.
</event>
<event>
12    1  0.8453150E-002  0.1762164E+03  0.7818608E-02  0.1171613E+00
         21   -1    0    0  501  502  0.00000000000E+00  0.00000000000E+00  0.28298010423E+02  0.28298010423E+02  0.00000000000E+00 0. -1.
         21   -1    0    0  502  503 -0.00000000000E+00 -0.00000000000E+00 -0.11538770976E+04  0.11538770976E+04  0.00000000000E+00 0. -1.
         -6    2    1    2    0  503  0.12848511663E+02  0.35805561391E+02 -0.69699530015E+03  0.71892604315E+03  0.17206128157E+03 0.  0.
        -24    2    3    3    0    0  0.19045932219E+02  0.90794791072E+02 -0.46788786527E+03  0.48318353507E+03  0.77076795931E+02 0.  0.
          6    2    1    2  501    0 -0.12848511663E+02 -0.35805561391E+02 -0.42858378704E+03  0.46324906488E+03  0.17166394823E+03 0.  0.
         24    2    5    5    0    0 -0.40800051473E+02 -0.20546596969E+02 -0.42038868946E+03  0.43003198799E+03  0.78192414093E+02 0.  0.
          5    1    5    5  501    0  0.27951539809E+02 -0.15258964423E+02 -0.81950975803E+01  0.33217076893E+02  0.47000000000E+01 0. -1.
        -13    1    6    6    0    0 -0.94957855508E+01 -0.19245175900E+02 -0.37049845315E+03  0.37111945587E+03  0.00000000000E+00 0.  1.
         14    1    6    6    0    0 -0.31304265922E+02 -0.13014210686E+01 -0.49890236308E+02  0.58912532118E+02  0.00000000000E+00 0. -1.
         -5    1    3    3    0  503 -0.61974205557E+01 -0.54989229681E+02 -0.22910743487E+03  0.23574250808E+03  0.47000000000E+01 0.  1.
         13    1    4    4    0    0  0.47725762440E+02  0.41154748219E+02 -0.26088721861E+03  0.26839076463E+03  0.00000000000E+00 0. -1.
        -14    1    4    4    0    0 -0.28679830221E+02  0.49640042853E+02 -0.20700064666E+03  0.21479277044E+03  0.00000000000E+00 0.  1.
</event>
<event>
12    1  0.8453150E-002  0.2052891E+03  0.7818608E-02  0.1145409E+00
         21   -1    0    0  503  502  0.00000000000E+00  0.00000000000E+00  0.63787471700E+03  0.63787471700E+03  0.00000000000E+00 0. -1.
         21   -1    0    0  501  503 -0.00000000000E+00 -0.00000000000E+00 -0.83122883537E+02  0.83122883537E+02  0.00000000000E+00 0.  1.
          6    2    1    2  501    0 -0.85151123210E+02  0.73359466185E+02  0.11380535438E+03  0.23472378788E+03  0.17178845377E+03 0.  0.
         24    2    3    3    0    0 -0.86488347171E+02  0.66134911081E+01  0.12029676132E+03  0.16748509574E+03  0.77820139102E+02 0.  0.
         -6    2    1    2    0  502  0.85151123210E+02 -0.73359466185E+02  0.44094647908E+03  0.48627381266E+03  0.17145290431E+03 0.  0.
        -24    2    5    5    0    0  0.51202921105E+02 -0.71981174729E+02  0.43587333049E+03  0.45160095656E+03  0.78452757029E+02 0.  0.
          5    1    3    3  501    0  0.13372239613E+01  0.66745975076E+02 -0.64914069374E+01  0.67238692141E+02  0.47000000000E+01 0. -1.
        -11    1    4    4    0    0  0.59756216166E+01  0.20778735586E+02  0.13390658022E+02  0.25431744504E+02  0.00000000000E+00 0.  1.
         12    1    4    4    0    0 -0.92463968788E+02 -0.14165244477E+02  0.10690610329E+03  0.14205335123E+03  0.00000000000E+00 0. -1.
         -5    1    5    5    0  502  0.33948202105E+02 -0.13782914555E+01  0.50731485928E+01  0.34672856100E+02  0.47000000000E+01 0.  1.
         11    1    6    6    0    0  0.31264415855E+02 -0.55779214611E+02  0.13229982817E+03  0.14694226422E+03  0.00000000000E+00 0. -1.
        -12    1    6    6    0    0  0.19938505249E+02 -0.16201960119E+02  0.30357350232E+03  0.30465869234E+03  0.00000000000E+00 0.  1.
</event>
<event>
12    1  0.8453150E-002  0.1933177E+03  0.7818608E-02  0.1155517E+00
         21   -1    0    0  501  502  0.00000000000E+00  0.00000000000E+00  0.21547448661E+02  0.21547448661E+02  0.00000000000E+00 0. -1.
         21   -1    0    0  502  503 -0.00000000000E+00 -0.00000000000E+00 -0.18631634019E+04  0.18631634019E+04  0.00000000000E+00 0. -1.
         -6    2    1    2    0  503 -0.46148038744E+02 -0.77758611110E+02 -0.67233693767E+03  0.69955889715E+03  0.17079124613E+03 0.  0.
        -24    2    3    3    0    0 -0.14561792648E+02 -0.96930818084E+02 -0.63238853804E+03  0.64493995268E+03  0.80153915792E+02 0.  0.
          6    2    1    2  501    0  0.46148038744E+02  0.77758611110E+02 -0.11692790156E+04  0.11851519534E+04  0.17086747299E+03 0.  0.
         24    2    5    5    0    0  0.22303764762E+01 -0.21443331115E+02 -0.38933111677E+03  0.39768093728E+03  0.78144854979E+02 0.  0.
          5    1    5    5  501    0  0.43917662267E+02  0.99201942224E+02 -0.77994789881E+03  0.78747101614E+03  0.47000000000E+01 0. -1.
        -13    1    6    6    0    0 -0.28151747559E+02  0.20411831355E+00 -0.29346246235E+03  0.29480973418E+03  0.00000000000E+00 0.  1.
         14    1    6    6    0    0  0.30382124035E+02 -0.21647449428E+02 -0.95868654417E+02  0.10287120310E+03  0.00000000000E+00 0. -1.
         -5    1    3    3    0  503 -0.31586246096E+02  0.19172206975E+02 -0.39948399624E+02  0.54618944472E+02  0.47000000000E+01 0.  1.
         13    1    4    4    0    0 -0.28579683939E+02 -0.45892965227E+02 -0.49103326074E+03  0.49400063335E+03  0.00000000000E+00 0. -1.
        -14    1    4    4    0    0  0.14017891291E+02 -0.51037852857E+02 -0.14135527730E+03  0.15093931933E+03  0.00000000000E+00 0.  1.
</event>
<event>
12    1  0.8453150E-002  0.2576761E+03  0.7818608E-02  0.1108585E+00
         21   -1    0    0  503  502  0.00000000000E+00  0.00000000000E+00  0.87771826847E+03  0.87771826847E+03  0.00000000000E+00 0.  1.
         21   -1    0    0  501  503 -0.00000000000E+00 -0.00000000000E+00 -0.10154617014E+03  0.10154617014E+03  0.00000000000E+00 0.  1.
          6    2    1    2  501    0 -0.19167591559E+03 -0.98342745742E+01  0.14032667812E+03  0.29319127657E+03  0.17156100516E+03 0.  0.
         24    2    3    3    0    0 -0.37733080603E+02 -0.31016410577E+02  0.89582427538E+02  0.12965489439E+03  0.79997357572E+02 0.  0.
         -6    2    1    2    0  502  0.19167591559E+03  0.98342745742E+01  0.63584542022E+03  0.68607316204E+03  0.17193200891E+03 0.  0.
        -24    2    5    5    0    0  0.53551724296E+02  0.16288533469E+02  0.13389919216E+03  0.16540814926E+03  0.79358419098E+02 0.  0.
          5    1    3    3  501    0 -0.15394283499E+03  0.21182136003E+02  0.50744250580E+02  0.16353638218E+03  0.47000000000E+01 0. -1.
        -13    1    4    4    0    0 -0.15140892732E+02  0.26018785836E+02  0.43623248412E+02  0.53001996671E+02  0.00000000000E+00 0.  1.
         14    1    4    4    0    0 -0.22592187872E+02 -0.57035196413E+02  0.45959179126E+02  0.76652897719E+02  0.00000000000E+00 0. -1.
         -5    1    5    5    0  502  0.13812419129E+03 -0.64542588950E+01  0.50194622805E+03  0.52066501278E+03  0.47000000000E+01 0.  1.
         11    1    6    6    0    0  0.43279788873E+02  0.47022763613E+02  0.78474997443E+02  0.10120575896E+03  0.00000000000E+00 0. -1.
        -12    1    6    6    0    0  0.10271935423E+02 -0.30734230144E+02  0.55424194719E+02  0.64202390300E+02  0.00000000000E+00 0.  1.
</event>
<event>
12    1  0.8453150E-002  0.2131162E+03  0.7818608E-02  0.1139147E+00
         21   -1    0    0  503  502  0.00000000000E+00  0.00000000000E+00  0.37960632759E+03  0.37960632759E+03  0.00000000000E+00 0.  1.
         21   -1    0    0  501  503 -0.00000000000E+00 -0.00000000000E+00 -0.65457541320E+03  0.65457541320E+03  0.00000000000E+00 0.  1.
          6    2    1    2  501    0 -0.10746741989E+03 -0.63574774007E+02 -0.60495899139E+03  0.64135628783E+03  0.17254422172E+03 0.  0.
         24    2    3    3    0    0 -0.10276450106E+03 -0.10689137213E+03 -0.46305703007E+03  0.49284129955E+03  0.80525929543E+02 0.  0.
         -6    2    1    2    0  502  0.10746741989E+03  0.63574774007E+02  0.32998990578E+03  0.39282545296E+03  0.17270639928E+03 0.  0.
        -24    2    5    5    0    0  0.56487368693E+01  0.28302711198E+02  0.78439660370E+02  0.11912711794E+03  0.84885441752E+02 0.  0.
          5    1    3    3  501    0 -0.47029188258E+01  0.43316598122E+02 -0.14190196131E+03  0.14851498828E+03  0.47000000000E+01 0. -1.
        -13    1    4    4    0    0 -0.76756003784E+02 -0.92939307220E+02 -0.43749472039E+03  0.45379602170E+03  0.00000000000E+00 0.  1.
         14    1    4    4    0    0 -0.26008497279E+02 -0.13952064909E+02 -0.25562309680E+02  0.39045277847E+02  0.00000000000E+00 0. -1.
         -5    1    5    5    0  502  0.10181868302E+03  0.35272062809E+02  0.25155024541E+03  0.27369833502E+03  0.47000000000E+01 0.  1.
         13    1    6    6    0    0  0.38280922146E+02  0.27932118404E+02  0.18484256700E+02  0.50865508791E+02  0.00000000000E+00 0. -1.
        -14    1    6    6    0    0 -0.32632185276E+02  0.37059279412E+00  0.59955403669E+02  0.68261609153E+02  0.00000000000E+00 0.  1.
</event>
<event>
12    1  0.8453150E-002  0.2591657E+03  0.7818608E-02  0.1107673E+00
         21   -1    0    0  503  502  0.00000000000E+00  0.00000000000E+00  0.10796845411E+03  0.10796845411E+03  0.00000000000E+00 0.  1.
         21   -1    0    0  501  503 -0.00000000000E+00 -0.00000000000E+00 -0.62410003183E+03  0.62410003183E+03  0.00000000000E+00 0.  1.
          6    2    1    2  501    0 -0.11926440518E+03 -0.15107808333E+03 -0.23511382543E+03  0.34978872769E+03  0.17327740044E+03 0.  0.
         24    2    3    3    0    0 -0.34375885845E+02 -0.11488538080E+03 -0.20848552138E+03  0.25362673411E+03  0.80498170049E+02 0.  0.
         -6    2    1    2    0  502  0.11926440518E+03  0.15107808333E+03 -0.28101775228E+03  0.38227975826E+03  0.17354610589E+03 0.  0.
        -24    2    5    5    0    0  0.13490770172E+02  0.11605607473E+03 -0.19487726665E+03  0.24136532956E+03  0.81419038907E+02 0.  0.
          5    1    3    3  501    0 -0.84888519337E+02 -0.36192702530E+02 -0.26628304049E+02  0.96161993574E+02  0.47000000000E+01 0. -1.
        -13    1    4    4    0    0 -0.59321832758E+02 -0.61310773814E+02 -0.12531384379E+03  0.15159699955E+03  0.00000000000E+00 0.  1.
         14    1    4    4    0    0  0.24945946914E+02 -0.53574606983E+02 -0.83171677598E+02  0.10202973456E+03  0.00000000000E+00 0. -1.
         -5    1    5    5    0  502  0.10577363501E+03  0.35022008601E+02 -0.86140485633E+02  0.14091442870E+03  0.47000000000E+01 0.  1.
         13    1    6    6    0    0  0.31105454069E+01  0.84793135370E+02 -0.63659259989E+02  0.10607569317E+03  0.00000000000E+00 0. -1.
        -14    1    6    6    0    0  0.10380224765E+02  0.31262939356E+02 -0.13121800666E+03  0.13528963639E+03  0.00000000000E+00 0.  1.
</event>
<event>
12    1  0.8453150E-002  0.1816328E+03  0.7818608E-02  0.1166339E+00
         21   -1    0    0  501  502  0.00000000000E+00  0.00000000000E+00  0.15073861951E+03  0.15073861951E+03  0.00000000000E+00 0.  1.
         21   -1    0    0  502  503 -0.00000000000E+00 -0.00000000000E+00 -0.10371315352E+04  0.10371315352E+04  0.00000000000E+00 0.  1.
         -6    2    1    2    0  503 -0.61242373399E+02  0.60144438684E+01 -0.97104332495E+03  0.98788440970E+03  0.17089080191E+03 0.  0.
        -24    2    3    3    0    0 -0.58775808040E+02 -0.23132184103E+02 -0.93762719827E+03  0.94322640495E+03  0.80880124253E+02 0.  0.
          6    2    1    2  501    0  0.61242373399E+02 -0.60144438684E+01  0.84650409216E+02  0.19998574505E+03  0.17041656202E+03 0.  0.
         24    2    5    5    0    0  0.69760687774E+02 -0.61417222746E+02  0.73550145996E+02  0.14265045548E+03  0.79378206479E+02 0.  0.
          5    1    5    5  501    0 -0.85183143748E+01  0.55402778878E+02  0.11100263219E+02  0.57335289575E+02  0.47000000000E+01 0. -1.
        -11    1    6    6    0    0  0.54105047086E+02  0.46619655429E+01  0.33731693712E+02  0.63929001272E+02  0.00000000000E+00 0.  1.
         12    1    6    6    0    0  0.15655640688E+02 -0.66079188289E+02  0.39818452284E+02  0.78721454208E+02  0.00000000000E+00 0. -1.
         -5    1    3    3    0  503 -0.24665653594E+01  0.29146627972E+02 -0.33416126673E+02  0.44658004754E+02  0.47000000000E+01 0.  1.
         13    1    4    4    0    0  0.29705484305E+01  0.24456659505E+02 -0.21578863811E+03  0.21719044336E+03  0.00000000000E+00 0. -1.
        -14    1    4    4    0    0 -0.61746356470E+02 -0.47588843609E+02 -0.72183856017E+03  0.72603596159E+03  0.00000000000E+00 0.  1.
</event>
<event>
12    1  0.8453150E-002  0.2657208E+03  0.7818608E-02  0.1103777E+00
         21   -1    0    0  503  502  0.00000000000E+00  0.00000000000E+00  0.33594922278E+03  0.33594922278E+03  0.00000000000E+00 0.  1.
         21   -1    0    0  501  503 -0.00000000000E+00 -0.00000000000E+00 -0.21334265477E+03  0.21334265477E+03  0.00000000000E+00 0.  1.
          6    2    1    2  501    0  0.85920665878E+02  0.18326907327E+03  0.27158013088E+02  0.26694815648E+03  0.17191232222E+03 0.  0.
         24    2    3    3    0    0  0.14090090536E+01  0.53156620161E+02  0.52413065360E+02  0.10968602417E+03  0.80350998151E+02 0.  0.
         -6    2    1    2    0  502 -0.85920665878E+02 -0.18326907327E+03  0.95448554922E+02  0.28234372107E+03  0.17215584843E+03 0.  0.
        -24    2    5    5    0    0  0.19693741147E+02 -0.65947998524E+02  0.57065008977E+02  0.11981980237E+03  0.79770845800E+02 0.  0.
          5    1    3    3  501    0  0.84511656824E+02  0.13011245311E+03 -0.25255052272E+02  0.15726213231E+03  0.47000000000E+01 0. -1.
        -11    1    4    4    0    0  0.32974850882E+02  0.35893207449E+02  0.55152886817E+02  0.73603695940E+02  0.00000000000E+00 0.  1.
         12    1    4    4    0    0 -0.31565841828E+02  0.17263412712E+02 -0.27398214576E+01  0.36082328228E+02  0.00000000000E+00 0. -1.
         -5    1    5    5    0  502 -0.10561440703E+03 -0.11732107475E+03  0.38383545945E+02  0.16252391870E+03  0.47000000000E+01 0.  1.
         13    1    6    6    0    0  0.42870098079E+02 -0.13370121488E+02  0.11153817962E+02  0.46271082903E+02  0.00000000000E+00 0. -1.
        -14    1    6    6    0    0 -0.23176356931E+02 -0.52577877036E+02  0.45911191015E+02  0.73548719463E+02  0.00000000000E+00 0.  1.
</event>
<event>
12    1  0.8453150E-002  0.2611998E+03  0.7818608E-02  0.1106446E+00
         21   -1    0    0  501  502  0.00000000000E+00  0.00000000000E+00  0.18025452107E+03  0.18025452107E+03  0.00000000000E+00 0.  1.
         21   -1    0    0  502  503 -0.00000000000E+00 -0.00000000000E+00 -0.41447200550E+03  0.41447200550E+03  0.00000000000E+00 0. -1.
         -6    2    1    2    0  503 -0.67000673021E+01  0.19631003066E+03 -0.29277128833E+02  0.26283548980E+03  0.17217091911E+03 0.  0.
        -24    2    3    3    0    0  0.21995478288E+02  0.43527349829E+02 -0.46094215222E+02  0.10640375935E+03  0.82575129898E+02 0.  0.
          6    2    1    2  501    0  0.67000673021E+01 -0.19631003066E+03 -0.20494035559E+03  0.33189103677E+03  0.17195520317E+03 0.  0.
         24    2    5    5    0    0 -0.62132737068E+02 -0.93016014658E+02 -0.10153033649E+03  0.17026390183E+03  0.78542542861E+02 0.  0.
          5    1    5    5  501    0  0.68832804370E+02 -0.10329401600E+03 -0.10341001910E+03  0.16162713494E+03  0.47000000000E+01 0. -1.
        -13    1    6    6    0    0 -0.52824970699E+02 -0.77017871860E+02 -0.32642821532E+02  0.98933229568E+02  0.00000000000E+00 0.  1.
         14    1    6    6    0    0 -0.93077663690E+01 -0.15998142798E+02 -0.68887514959E+02  0.71330672259E+02  0.00000000000E+00 0. -1.
         -5    1    3    3    0  503 -0.28695545590E+02  0.15278268083E+03  0.16817086389E+02  0.15643173045E+03  0.47000000000E+01 0.  1.
         13    1    4    4    0    0 -0.15429523231E+02  0.27281417522E+02 -0.56220495629E+02  0.64366839738E+02  0.00000000000E+00 0. -1.
        -14    1    4    4    0    0  0.37425001519E+02  0.16245932306E+02  0.10126280407E+02  0.42036919607E+02  0.00000000000E+00 0.  1.
</event>
<event>
12    1  0.8453150E-002  0.1854252E+03  0.7818608E-02  0.1162801E+00
         21   -1    0    0  501  502  0.00000000000E+00  0.00000000000E+00  0.94708921928E+02  0.94708921928E+02  0.00000000000E+00 0. -1.
         21   -1    0    0  502  503 -0.00000000000E+00 -0.00000000000E+00 -0.48471065198E+03  0.48471065198E+03  0.00000000000E+00 0. -1.
         -6    2    1    2    0  503  0.55148019485E+02  0.37945407014E+02 -0.34113738808E+03  0.38827469289E+03  0.17292010185E+03 0.  0.
        -24    2    3    3    0    0  0.10417705337E+03  0.21303061208E+02 -0.26781455172E+03  0.29839064441E+03  0.77496217305E+02 0.  0.
          6    2    1    2  501    0 -0.55148019485E+02 -0.37945407014E+02 -0.48864341972E+02  0.19114488102E+03  0.17224251408E+03 0.  0.
         24    2    5    5    0    0 -0.65744119103E+02 -0.37463603576E+02 -0.94375731014E+02  0.14417802042E+03  0.78451973714E+02 0.  0.
          5    1    5    5  501    0  0.10596099618E+02 -0.48180343771E+00  0.45511389041E+02  0.46966860595E+02  0.47000000000E+01 0. -1.
        -13    1    6    6    0    0  0.15722767176E+02 -0.10752339289E+02 -0.35139973262E+02  0.39970438185E+02  0.00000000000E+00 0.  1.
         14    1    6    6    0    0 -0.81466886279E+02 -0.26711264287E+02 -0.59235757751E+02  0.10420758224E+03  0.00000000000E+00 0. -1.
         -5    1    3    3    0  503 -0.49029033887E+02  0.16642345805E+02 -0.73322836363E+02  0.89884048474E+02  0.47000000000E+01 0.  1.
         13    1    4    4    0    0  0.51248977593E+01  0.14984613506E+02 -0.11556995034E+03  0.11664997488E+03  0.00000000000E+00 0. -1.
        -14    1    4    4    0    0  0.99052155613E+02  0.63184477021E+01 -0.15224460138E+03  0.18174066953E+03  0.00000000000E+00 0.  1.
</event>
<event>
12    1  0.8453150E-002  0.1746438E+03  0.7818608E-02  0.1173224E+00
         21   -1    0    0  503  502  0.00000000000E+00  0.00000000000E+00  0.62119697558E+03  0.62119697558E+03  0.00000000000E+00 0. -1.
         21   -1    0    0  501  503 -0.00000000000E+00 -0.00000000000E+00 -0.10859699768E+03  0.10859699768E+03  0.00000000000E+00 0. -1.
          6    2    1    2  501    0  0.51039510959E+01  0.32584378138E+02 -0.14307142588E+02  0.17469798370E+03  0.17095876451E+03 0.  0.
         24    2    3    3    0    0  0.17060938989E+02 -0.30710108693E+02  0.34177687129E+02  0.93938895447E+02  0.80138725753E+02 0.  0.
         -6    2    1    2    0  502 -0.51039510959E+01 -0.32584378138E+02  0.52690712049E+03  0.55509598956E+03  0.17150117198E+03 0.  0.
        -24    2    5    5    0    0 -0.45248339341E+02  0.33656932223E+02  0.29159021715E+03  0.30731459780E+03  0.78975983590E+02 0.  0.
          5    1    3    3  501    0 -0.11956987893E+02  0.63294486831E+02 -0.48484829717E+02  0.80759088252E+02  0.47000000000E+01 0. -1.
        -13    1    4    4    0    0  0.92820052930E+01  0.15018509790E+02  0.43213900738E+02  0.46681393248E+02  0.00000000000E+00 0.  1.
         14    1    4    4    0    0  0.77789336956E+01 -0.45728618483E+02 -0.90362136091E+01  0.47257502200E+02  0.00000000000E+00 0. -1.
         -5    1    5    5    0  502  0.40144388245E+02 -0.66241310361E+02  0.23531690334E+03  0.24778139176E+03  0.47000000000E+01 0.  1.
         11    1    6    6    0    0 -0.23508031651E+02 -0.18984658767E+02  0.17462317814E+03  0.17721822469E+03  0.00000000000E+00 0. -1.
        -12    1    6    6    0    0 -0.21740307690E+02  0.52641590990E+02  0.11696703901E+03  0.13009637311E+03  0.00000000000E+00 0.  1.
</event>
<event>
12    1  0.8453150E-002  0.1795289E+03  0.7818608E-02  0.1168462E+00
         21   -1    0    0  503  502  0.00000000000E+00  0.00000000000E+00  0.40750799633E+03  0.40750799633E+03  0.00000000000E+00 0. -1.
         21   -1    0    0  501  503 -0.00000000000E+00 -0.00000000000E+00 -0.86765967338E+02  0.86765967338E+02  0.00000000000E+00 0. -1.
          6    2    1    2  501    0 -0.42997135908E+02  0.26030523233E+02  0.23525885283E+03  0.29543232656E+03  0.17148524689E+03 0.  0.
         24    2    3    3    0    0 -0.68406741037E+02 -0.24819830911E+02  0.96360803544E+02  0.14527852326E+03  0.80777092259E+02 0.  0.
         -6    2    1    2    0  502  0.42997135908E+02 -0.26030523233E+02  0.85483176160E+02  0.19884163711E+03  0.17234930057E+03 0.  0.
        -24    2    5    5    0    0 -0.37381304275E+02 -0.15980500418E+02  0.12060697566E+02  0.89412907028E+02  0.78717655037E+02 0.  0.
          5    1    3    3  501    0  0.25409605129E+02  0.50850354144E+02  0.13889804929E+03  0.15015380330E+03  0.47000000000E+01 0. -1.
        -13    1    4    4    0    0 -0.33512538787E+02  0.27084494821E+02  0.22887893195E+02  0.48790529517E+02  0.00000000000E+00 0.  1.
         14    1    4    4    0    0 -0.34894202250E+02 -0.51904325733E+02  0.73472910350E+02  0.96487993739E+02  0.00000000000E+00 0. -1.
         -5    1    5    5    0  502  0.80378440184E+02 -0.10050022815E+02  0.73422478594E+02  0.10942873008E+03  0.47000000000E+01 0.  1.
         13    1    6    6    0    0  0.91467282273E+01 -0.19362242352E+02 -0.22721910988E+02  0.31222496779E+02  0.00000000000E+00 0. -1.
        -14    1    6    6    0    0 -0.46528032503E+02  0.33817419342E+01  0.34782608554E+02  0.58190410249E+02  0.00000000000E+00 0.  1.
</event>
<event>
12    1  0.8453150E-002  0.2256214E+03  0.7818608E-02  0.1130523E+00
         21   -1    0    0  503  502  0.00000000000E+00  0.00000000000E+00  0.11326764841E+03  0.11326764841E+03  0.00000000000E+00 0. -1.
         21   -1    0    0  501  503 -0.00000000000E+00 -0.00000000000E+00 -0.57200084746E+03  0.57200084746E+03  0.00000000000E+00 0. -1.
          6    2    1    2  501    0  0.14392764037E+02 -0.14015341432E+03 -0.39491169740E+03  0.45481894898E+03  0.17622399498E+03 0.  0.
         24    2    3    3    0    0  0.46276069283E+02 -0.75273277391E+02 -0.35329768846E+03  0.37127379316E+03  0.72231793094E+02 0.  0.
         -6    2    1    2    0  502 -0.14392764037E+02  0.14015341432E+03 -0.63821501643E+02  0.23044954689E+03  0.17083231072E+03 0.  0.
        -24    2    5    5    0    0 -0.13823681594E+02  0.67312170241E+02  0.31717720429E+02  0.11021642479E+03  0.80122556562E+02 0.  0.
          5    1    3    3  501    0 -0.31883305246E+02 -0.64880136934E+02 -0.41614008935E+02  0.83545155824E+02  0.47000000000E+01 0. -1.
        -11    1    4    4    0    0  0.70736612983E+01 -0.52083091830E+01  0.18681661235E+00  0.87862431764E+01  0.00000000000E+00 0.  1.
         12    1    4    4    0    0  0.39202407985E+02 -0.70064968208E+02 -0.35348450508E+03  0.36248754998E+03  0.00000000000E+00 0. -1.
         -5    1    5    5    0  502 -0.56908244276E+00  0.72841244083E+02 -0.95539222073E+02  0.12023312209E+03  0.47000000000E+01 0.  1.
         13    1    6    6    0    0 -0.36945127099E+02  0.50226723780E+02 -0.61703606748E+01  0.62655722395E+02  0.00000000000E+00 0. -1.
        -14    1    6    6    0    0  0.23121445505E+02  0.17085446461E+02  0.37888081104E+02  0.47560702400E+02  0.00000000000E+00 0.  1.
</event>
<event>
12    1  0.8453150E-002  0.1787572E+03  0.7818608E-02  0.1169676E+00
         21   -1    0    0  503  502  0.00000000000E+00  0.00000000000E+00  0.53215097431E+03  0.53215097431E+03  0.00000000000E+00 0.  1.
         21   -1    0    0  501  503 -0.00000000000E+00 -0.00000000000E+00 -0.22673888306E+03  0.22673888306E+03  0.00000000000E+00 0.  1.
          6    2    1    2  501    0  0.28025690544E+02 -0.37814101745E+02 -0.17382017329E+03  0.24740406690E+03  0.16964661522E+03 0.  0.
         24    2    3    3    0    0 -0.22971951450E+02 -0.76424144232E+01 -0.11216587643E+02  0.74276639062E+02  0.69318758070E+02 0.  0.
         -6    2    1    2    0  502 -0.28025690544E+02  0.37814101745E+02  0.47923226455E+03  0.51148579047E+03  0.17244942690E+03 0.  0.
        -24    2    5    5    0    0 -0.13960282855E+02  0.39763291533E+02  0.10615726262E+03  0.13811106971E+03  0.77648530685E+02 0.  0.
          5    1    3    3  501    0  0.50997641994E+02 -0.30171687321E+02 -0.16260358565E+03  0.17312742784E+03  0.47000000000E+01 0. -1.
        -13    1    4    4    0    0 -0.35095829732E+02 -0.27534426030E+02 -0.20634756868E+02  0.49149314058E+02  0.00000000000E+00 0.  1.
         14    1    4    4    0    0  0.12123878281E+02  0.19892011606E+02  0.94181692252E+01  0.25127325005E+02  0.00000000000E+00 0. -1.
         -5    1    5    5    0  502 -0.14065407689E+02 -0.19491897883E+01  0.37307500193E+03  0.37337472076E+03  0.47000000000E+01 0.  1.
         11    1    6    6    0    0 -0.23710811249E+02  0.60608784247E+02  0.82870619364E+02  0.10537156567E+03  0.00000000000E+00 0. -1.
        -12    1    6    6    0    0  0.97505283940E+01 -0.20845492714E+02  0.23286643256E+02  0.32739504036E+02  0.00000000000E+00 0.  1.
</event>
<event>
12    1  0.8453150E-002  0.1967043E+03  0.7818608E-02  0.1152568E+00
         21   -1    0    0  503  502  0.00000000000E+00  0.00000000000E+00  0.19732525067E+04  0.19732525067E+04  0.00000000000E+00 0. -1.
         21   -1    0    0  501  503 -0.00000000000E+00 -0.00000000000E+00 -0.35693954690E+02  0.35693954690E+02  0.00000000000E+00 0. -1.
          6    2    1    2  501    0 -0.84250971615E+02 -0.46929983735E+02  0.29417852398E+03  0.35383603884E+03  0.17134260655E+03 0.  0.
         24    2    3    3    0    0 -0.10945445067E+03 -0.11669718500E+02  0.14753237961E+03  0.20084687805E+03  0.80356743876E+02 0.  0.
         -6    2    1    2    0  502  0.84250971615E+02  0.46929983735E+02  0.16433800280E+04  0.16551104225E+04  0.17144079073E+03 0.  0.
        -24    2    5    5    0    0  0.10304798372E+03  0.72031402874E+02  0.10293631121E+04  0.10402752642E+04  0.82321314327E+02 0.  0.
          5    1    3    3  501    0  0.25203479055E+02 -0.35260265235E+02  0.14664614437E+03  0.15298916079E+03  0.47000000000E+01 0. -1.
        -13    1    4    4    0    0  0.13099654859E+02  0.48969944010E+00  0.13180975983E+02  0.18589752306E+02  0.00000000000E+00 0.  1.
         14    1    4    4    0    0 -0.12255410553E+03 -0.12159417940E+02  0.13435140363E+03  0.18225712574E+03  0.00000000000E+00 0. -1.
         -5    1    5    5    0  502 -0.18797012109E+02 -0.25101419139E+02  0.61401691591E+03  0.61483515834E+03  0.47000000000E+01 0.  1.
         11    1    6    6    0    0  0.73702555065E+02  0.24664383102E+02  0.81824316671E+03  0.82192595669E+03  0.00000000000E+00 0. -1.
        -12    1    6    6    0    0  0.29345428659E+02  0.47367019772E+02  0.21111994541E+03  0.21834930752E+03  0.00000000000E+00 0.  1.
</event>
<event>
12    1  0.8453150E-002  0.2219207E+03  0.7818608E-02  0.1132652E+00
         21   -1    0    0  501  502  0.00000000000E+00  0.00000000000E+00  0.66960849857E+02  0.66960849857E+02  0.00000000000E+00 0. -1.
         21   -1    0    0  502  503 -0.00000000000E+00 -0.00000000000E+00 -0.10679011633E+04  0.10679011633E+04  0.00000000000E+00 0. -1.
         -6    2    1    2    0  503 -0.18557884074E+02  0.13633634083E+03 -0.81950495464E+03  0.84902129773E+03  0.17411720313E+03 0.  0.
        -24    2    3    3    0    0 -0.66464850940E+02  0.86744862317E+02 -0.35820899097E+03  0.38257682267E+03  0.78160709331E+02 0.  0.
          6    2    1    2  501    0  0.18557884074E+02 -0.13633634083E+03 -0.18143535879E+03  0.28584071542E+03  0.17278348381E+03 0.  0.
         24    2    5    5    0    0  0.57734585471E+02 -0.34209300012E+02 -0.51372862168E+02  0.11583162911E+03  0.79210079964E+02 0.  0.
          5    1    5    5  501    0 -0.39176701397E+02 -0.10212704082E+03 -0.13006249662E+03  0.17000908631E+03  0.47000000000E+01 0. -1.
        -11    1    6    6    0    0  0.35809530275E+02 -0.64690428765E+01 -0.67719561143E+02  0.76877239387E+02  0.00000000000E+00 0.  1.
         12    1    6    6    0    0  0.21925055196E+02 -0.27740257135E+02  0.16346698975E+02  0.38954389722E+02  0.00000000000E+00 0. -1.
         -5    1    3    3    0  503  0.47906966865E+02  0.49591478516E+02 -0.46129596367E+03  0.46644447506E+03  0.47000000000E+01 0.  1.
         13    1    4    4    0    0 -0.34160867445E+02  0.74081588955E+02 -0.32300610675E+03  0.33314860300E+03  0.00000000000E+00 0. -1.
        -14    1    4    4    0    0 -0.32303983495E+02  0.12663273362E+02 -0.35202884226E+02  0.49428219670E+02  0.00000000000E+00 0.  1.
</event>
<event>
12    1  0.8453150E-002  0.1922138E+03  0.7818608E-02  0.1156507E+00
         21   -1    0    0  501  502  0.00000000000E+00  0.00000000000E+00  0.72422802357E+02  0.72422802357E+02  0.00000000000E+00 0. -1.
         21   -1    0    0  502  503 -0.00000000000E+00 -0.00000000000E+00 -0.51739117505E+03  0.51739117505E+03  0.00000000000E+00 0. -1.
         -6    2    1    2    0  503 -0.15839622940E+02 -0.82444698913E+02 -0.18686903487E+03  0.26807865475E+03  0.17291069055E+03 0.  0.
        -24    2    3    3    0    0 -0.27888646797E+02 -0.11780602930E+03 -0.10320851964E+03  0.17633567425E+03  0.76067301298E+02 0.  0.
          6    2    1    2  501    0  0.15839622940E+02  0.82444698913E+02 -0.25809933782E+03  0.32173532266E+03  0.17277247358E+03 0.  0.
         24    2    5    5    0    0 -0.45579753192E+02  0.32430740382E+02 -0.20429358781E+03  0.22586622155E+03  0.78424570092E+02 0.  0.
          5    1    5    5  501    0  0.61419376132E+02  0.50013958531E+02 -0.53805750013E+02  0.95869101106E+02  0.47000000000E+01 0. -1.
        -13    1    6    6    0    0 -0.53416143713E+01 -0.53679646757E+01 -0.14367946123E+03  0.14387889167E+03  0.00000000000E+00 0.  1.
         14    1    6    6    0    0 -0.40238138821E+02  0.37798705058E+02 -0.60614126582E+02  0.81987329881E+02  0.00000000000E+00 0. -1.
         -5    1    3    3    0  503  0.12049023858E+02  0.35361330389E+02 -0.83660515231E+02  0.91742980503E+02  0.47000000000E+01 0.  1.
         11    1    4    4    0    0  0.20771005508E+02 -0.52880267628E+02 -0.65969320619E+02  0.87061522139E+02  0.00000000000E+00 0. -1.
        -12    1    4    4    0    0 -0.48659652305E+02 -0.64925761674E+02 -0.37239199021E+02  0.89274152111E+02  0.00000000000E+00 0.  1.
</event>
<event>
12    1  0.8453150E-002  0.2038067E+03  0.7818608E-02  0.1146670E+00
         21   -1    0    0  503  502  0.00000000000E+00  0.00000000000E+00  0.42451815308E+02  0.42451815308E+02  0.00000000000E+00 0.  1.
         21   -1    0    0  501  503 -0.00000000000E+00 -0.00000000000E+00 -0.23061957754E+04  0.23061957754E+04  0.00000000000E+00 0.  1.
          6    2    1    2  501    0  0.13547746650E+02  0.10669884272E+03 -0.20231273728E+04  0.20333167816E+04  0.17252415257E+03 0.  0.
         24    2    3    3    0    0 -0.40433301440E+02  0.81844608568E+02 -0.17456402920E+04  0.17494984303E+04  0.71772813721E+02 0.  0.
         -6    2    1    2    0  502 -0.13547746650E+02 -0.10669884272E+03 -0.24061658733E+03  0.31533080917E+03  0.17311554706E+03 0.  0.
        -24    2    5    5    0    0 -0.55861391458E+02 -0.10647961432E+02 -0.13086489881E+03  0.16339747028E+03  0.79619328143E+02 0.  0.
          5    1    3    3  501    0  0.53981048090E+02  0.24854234149E+02 -0.27748708081E+03  0.28381835128E+03  0.47000000000E+01 0. -1.
        -13    1    4    4    0    0 -0.31920347997E+02  0.94540770075E+02 -0.15828157377E+04  0.15859579204E+04  0.00000000000E+00 0.  1.
         14    1    4    4    0    0 -0.85129534427E+01 -0.12696161507E+02 -0.16282455428E+03  0.16354050988E+03  0.00000000000E+00 0. -1.
         -5    1    5    5    0  502  0.42313644807E+02 -0.96050881285E+02 -0.10975168852E+03  0.15193333889E+03  0.47000000000E+01 0.  1.
         11    1    6    6    0    0  0.16362358523E+02 -0.82415119973E+01 -0.57795538909E+02  0.60629807968E+02  0.00000000000E+00 0. -1.
        -12    1    6    6    0    0 -0.72223749980E+02 -0.24064494347E+01 -0.73069359902E+02  0.10276766231E+03  0.00000000000E+00 0.  1.
</event>
<event>
12    1  0.8453150E-002  0.1881643E+03  0.7818608E-02  0.1160327E+00
         21   -1    0    0  503  502  0.00000000000E+00  0.00000000000E+00  0.18450121320E+03  0.18450121320E+03  0.00000000000E+00 0.  1.
         21   -1    0    0  501  503 -0.00000000000E+00 -0.00000000000E+00 -0.25415704431E+03  0.25415704431E+03  0.00000000000E+00 0.  1.
          6    2    1    2  501    0 -0.81734997256E+01 -0.73194739882E+02 -0.14421393128E+03  0.23707267984E+03  0.17315172972E+03 0.  0.
         24    2    3    3    0    0 -0.67414598248E+02 -0.63957015882E+02 -0.12980832679E+03  0.17523050378E+03  0.72251642294E+02 0.  0.
         -6    2    1    2    0  502  0.81734997256E+01  0.73194739882E+02  0.74558100175E+02  0.20158557767E+03  0.17220208703E+03 0.  0.
        -24    2    5    5    0    0 -0.40931372557E+02 -0.10665362638E+02  0.27606825779E+02  0.93556334204E+02  0.78749753145E+02 0.  0.
          5    1    3    3  501    0  0.59241098522E+02 -0.92377239994E+01 -0.14405604490E+02  0.61842176057E+02  0.47000000000E+01 0. -1.
        -11    1    4    4    0    0 -0.46029394675E+02 -0.30843876644E+02 -0.12343453342E+03  0.13530016239E+03  0.00000000000E+00 0.  1.
         12    1    4    4    0    0 -0.21385203573E+02 -0.33113139238E+02 -0.63737933678E+01  0.39930341396E+02  0.00000000000E+00 0. -1.
         -5    1    5    5    0  502  0.49104872283E+02  0.83860102520E+02  0.46951274396E+02  0.10802924347E+03  0.47000000000E+01 0.  1.
         13    1    6    6    0    0  0.45713275379E+01 -0.10602177124E+02 -0.22856740966E+02  0.25607299795E+02  0.00000000000E+00 0. -1.
        -14    1    6    6    0    0 -0.45502700095E+02 -0.63185514561E-01  0.50463566745E+02  0.67949034408E+02  0.00000000000E+00 0.  1.
</event>
<event>
12    1  0.8453150E-002  0.2106668E+03  0.7818608E-02  0.1141108E+00
         21   -1    0    0  501  502  0.00000000000E+00  0.00000000000E+00  0.23498674618E+03  0.23498674618E+03  0.00000000000E+00 0.  1.
         21   -1    0    0  502  503 -0.00000000000E+00 -0.00000000000E+00 -0.20249345845E+03  0.20249345845E+03  0.00000000000E+00 0.  1.
         -6    2    1    2    0  503  0.11534402209E+03 -0.41774949100E+02 -0.41134753324E+02  0.21464520568E+03  0.17126326689E+03 0.  0.
        -24    2    3    3    0    0  0.52433193589E+02  0.22474559344E+01 -0.89616351848E+02  0.12371501331E+03  0.67231117442E+02 0.  0.
          6    2    1    2  501    0 -0.11534402209E+03  0.41774949100E+02  0.73628041055E+02  0.22283499895E+03  0.17083605745E+03 0.  0.
         24    2    5    5    0    0 -0.11372276925E+03  0.29097164086E+02 -0.56714719442E+01  0.14237471400E+03  0.80367159886E+02 0.  0.
          5    1    5    5  501    0 -0.16212528426E+01  0.12677785014E+02  0.79299512999E+02  0.80460284958E+02  0.47000000000E+01 0. -1.
        -13    1    6    6    0    0 -0.10423871262E+03  0.51820400484E+02 -0.11785127557E+02  0.11700406979E+03  0.00000000000E+00 0.  1.
         14    1    6    6    0    0 -0.94840566242E+01 -0.22723236399E+02  0.61136556130E+01  0.25370644206E+02  0.00000000000E+00 0. -1.
         -5    1    3    3    0  503  0.62910828501E+02 -0.44022405034E+02  0.48481598524E+02  0.90930192363E+02  0.47000000000E+01 0.  1.
         13    1    4    4    0    0  0.83658578758E+01 -0.28035967367E+02 -0.18040862677E+02  0.34372602030E+02  0.00000000000E+00 0. -1.
        -14    1    4    4    0    0  0.44067335713E+02  0.30283423302E+02 -0.71575489171E+02  0.89342411283E+02  0.00000000000E+00 0.  1.
</event>
<event>
12    1  0.8453150E-002  0.1925796E+03  0.7818608E-02  0.1156197E+00
         21   -1    0    0  501  502  0.00000000000E+00  0.00000000000E+00  0.18127693425E+04  0.18127693425E+04  0.00000000000E+00 0. -1.
         21   -1    0    0  502  503 -0.00000000000E+00 -0.00000000000E+00 -0.27414894646E+02  0.27414894646E+02  0.00000000000E+00 0. -1.
         -6    2    1    2    0  503 -0.39438396838E+02 -0.78093746167E+02  0.42820189744E+03  0.46943628044E+03  0.17134624619E+03 0.  0.
        -24    2    3    3    0    0 -0.28456285002E+01  0.20499282822E+02  0.25297036679E+03  0.26501564696E+03  0.76229708504E+02 0.  0.
          6    2    1    2  501    0  0.39438396838E+02  0.78093746167E+02  0.13571525504E+04  0.13707479567E+04  0.17156018008E+03 0.  0.
         24    2    5    5    0    0  0.86609234786E+02  0.77520185776E+02  0.90992426557E+03  0.92101398458E+03  0.82426039338E+02 0.  0.
          5    1    5    5  501    0 -0.47170837948E+02  0.57356039028E+00  0.44722828482E+03  0.44973397210E+03  0.47000000000E+01 0. -1.
        -13    1    6    6    0    0 -0.10868770038E+02 -0.56759997421E+01  0.44738576353E+02  0.46388439824E+02  0.00000000000E+00 0.  1.
         14    1    6    6    0    0  0.97478004824E+02  0.83196185518E+02  0.86518568922E+03  0.87462554475E+03  0.00000000000E+00 0. -1.
         -5    1    3    3    0  503 -0.36592768338E+02 -0.98593028989E+02  0.17523153065E+03  0.20442063348E+03  0.47000000000E+01 0.  1.
         13    1    4    4    0    0 -0.28496945576E+02  0.23814568128E+02  0.61775787501E+02  0.72079521944E+02  0.00000000000E+00 0. -1.
        -14    1    4    4    0    0  0.25651317076E+02 -0.33152853053E+01  0.19119457929E+03  0.19293612501E+03  0.00000000000E+00 0.  1.
</event>
<event>
12    1  0.8453150E-002  0.2220189E+03  0.7818608E-02  0.1132434E+00
         21   -1    0    0  503  502  0.00000000000E+00  0.00000000000E+00  0.19221003654E+03  0.19221003654E+03  0.00000000000E+00 0. -1.
         21   -1    0    0  501  503 -0.00000000000E+00 -0.00000000000E+00 -0.39405129432E+03  0.39405129432E+03  0.00000000000E+00 0. -1.
          6    2    1    2  501    0 -0.53693804471E+02  0.13064418647E+03 -0.27436368402E+03  0.35294164705E+03  0.17129345292E+03 0.  0.
         24    2    3    3    0    0  0.21195386318E+02  0.10209705750E+03 -0.11520986522E+03  0.17468520955E+03  0.79803232017E+02 0.  0.
         -6    2    1    2    0  502  0.53693804471E+02 -0.13064418647E+03  0.72522426242E+02  0.23331968381E+03  0.17096094421E+03 0.  0.
        -24    2    5    5    0    0  0.17910467621E+02 -0.14143678791E+03  0.95217336222E+02  0.18934154855E+03  0.80366230865E+02 0.  0.
          5    1    3    3  501    0 -0.74889190789E+02  0.28547128970E+02 -0.15915381880E+03  0.17825643749E+03  0.47000000000E+01 0. -1.
        -13    1    4    4    0    0  0.32320908790E+02  0.33850352487E+02 -0.89339657264E+02  0.10085664018E+03  0.00000000000E+00 0.  1.
         14    1    4    4    0    0 -0.11125522472E+02  0.68246705015E+02 -0.25870207956E+02  0.73828569371E+02  0.00000000000E+00 0. -1.
         -5    1    5    5    0  502  0.35783336850E+02  0.10792601441E+02 -0.22694909979E+02  0.43978135260E+02  0.47000000000E+01 0.  1.
         11    1    6    6    0    0  0.42413076414E+02 -0.11154738592E+03  0.48775687736E+02  0.12892151128E+03  0.00000000000E+00 0. -1.
        -12    1    6    6    0    0 -0.24502608793E+02 -0.29889401989E+02  0.46441648486E+02  0.60420037264E+02  0.00000000000E+00 0.  1.
</event>
<event>
12    1  0.8453150E-002  0.2400251E+03  0.7818608E-02  0.1119947E+00
         21   -1    0    0  501  502  0.00000000000E+00  0.00000000000E+00  0.16140985239E+04  0.16140985239E+04  0.00000000000E+00 0. -1.
         21   -1    0    0  502  503 -0.00000000000E+00 -0.00000000000E+00 -0.36101455786E+02  0.36101455786E+02  0.00000000000E+00 0.  1.
         -6    2    1    2    0  503  0.96086675948E+01  0.16768271969E+03  0.68786458550E+03  0.72853943925E+03  0.17147071345E+03 0.  0.
        -24    2    3    3    0    0  0.13431232913E+02  0.84546422668E+02  0.58509377135E+03  0.59621337934E+03  0.76204834677E+02 0.  0.
          6    2    1    2  501    0 -0.96086675948E+01 -0.16768271969E+03  0.89013248261E+03  0.92166054044E+03  0.17003674377E+03 0.  0.
         24    2    5    5    0    0  0.55889046953E+02 -0.94149581390E+02  0.41728017829E+03  0.43864039103E+03  0.79340507944E+02 0.  0.
          5    1    5    5  501    0 -0.65497714548E+02 -0.73533138301E+02  0.47285230432E+03  0.48302014941E+03  0.47000000000E+01 0. -1.
        -11    1    6    6    0    0 -0.81823079545E+01 -0.18488838293E+01  0.22715372966E+01  0.86907086343E+01  0.00000000000E+00 0.  1.
         12    1    6    6    0    0  0.64071354908E+02 -0.92300697561E+02  0.41500864099E+03  0.42994968239E+03  0.00000000000E+00 0. -1.
         -5    1    3    3    0  503 -0.38225653177E+01  0.83136297023E+02  0.10277081416E+03  0.13232605991E+03  0.47000000000E+01 0.  1.
         11    1    4    4    0    0 -0.24391846599E+02  0.38263832368E+02  0.14116912354E+03  0.14828285298E+03  0.00000000000E+00 0. -1.
        -12    1    4    4    0    0  0.37823079511E+02  0.46282590300E+02  0.44392464781E+03  0.44793052635E+03  0.00000000000E+00 0.  1.
</event>
<event>
12    1  0.8453150E-002  0.2628994E+03  0.7818608E-02  0.1105492E+00
         21   -1    0    0  501  502  0.00000000000E+00  0.00000000000E+00  0.71471840519E+02  0.71471840519E+02  0.00000000000E+00 0. -1.
         21   -1    0    0  502  503 -0.00000000000E+00 -0.00000000000E+00 -0.10033065205E+04  0.10033065205E+04  0.00000000000E+00 0. -1.
         -6    2    1    2    0  503  0.11056886654E+03  0.16500522583E+03 -0.57124316725E+03  0.62883609035E+03  0.17223203416E+03 0.  0.
        -24    2    3    3    0    0  0.12493686267E+03  0.18429557326E+03 -0.48932846934E+03  0.54333366611E+03  0.78708600843E+02 0.  0.
          6    2    1    2  501    0 -0.11056886654E+03 -0.16500522583E+03 -0.36059151271E+03  0.44594227065E+03  0.17142365914E+03 0.  0.
         24    2    5    5    0    0 -0.13814892401E+03 -0.16044665634E+03 -0.27519834869E+03  0.35596714860E+03  0.78423370417E+02 0.  0.
          5    1    5    5  501    0  0.27580057469E+02 -0.45585694914E+01 -0.85393164020E+02  0.89975122046E+02  0.47000000000E+01 0. -1.
        -13    1    6    6    0    0  0.20930138322E+01  0.34690253497E+01 -0.26231037152E+02  0.26542082697E+02  0.00000000000E+00 0.  1.
         14    1    6    6    0    0 -0.14024193784E+03 -0.16391568169E+03 -0.24896731154E+03  0.32942506591E+03  0.00000000000E+00 0. -1.
         -5    1    3    3    0  503 -0.14367996130E+02 -0.19290347423E+02 -0.81914697906E+02  0.85502424232E+02  0.47000000000E+01 0.  1.
         11    1    4    4    0    0  0.13614946913E+03  0.16594161949E+03 -0.44485570167E+03  0.49393308689E+03  0.00000000000E+00 0. -1.
        -12    1    4    4    0    0 -0.11212606458E+02  0.18353953767E+02 -0.44472767675E+02  0.49400579219E+02  0.00000000000E+00 0.  1.
</event>
<event>
12    1  0.8453150E-002  0.2569114E+03  0.7818608E-02  0.1109184E+00
         21   -1    0    0  503  502  0.00000000000E+00  0.00000000000E+00  0.55514057340E+02  0.55514057340E+02  0.00000000000E+00 0.  1.
         21   -1    0    0  501  503 -0.00000000000E+00 -0.00000000000E+00 -0.12730128244E+04  0.12730128244E+04  0.00000000000E+00 0. -1.
          6    2    1    2  501    0 -0.18398235630E+03  0.45099686574E+02 -0.78337133610E+03  0.82407657507E+03  0.17189549790E+03 0.  0.
         24    2    3    3    0    0 -0.97388955801E+02 -0.10299418584E+02 -0.23756655226E+03  0.26865562667E+03  0.78404669839E+02 0.  0.
         -6    2    1    2    0  502  0.18398235630E+03 -0.45099686574E+02 -0.43412743099E+03  0.50445030670E+03  0.17355113492E+03 0.  0.
        -24    2    5    5    0    0  0.11347222774E+03 -0.57561301836E+02 -0.15412546350E+03  0.21539985802E+03  0.80331752113E+02 0.  0.
          5    1    3    3  501    0 -0.86593400501E+02  0.55399105159E+02 -0.54580478384E+03  0.55542094840E+03  0.47000000000E+01 0. -1.
        -11    1    4    4    0    0 -0.73706865086E+02 -0.39682916763E+02 -0.19223846534E+03  0.20967370699E+03  0.00000000000E+00 0.  1.
         12    1    4    4    0    0 -0.23682090715E+02  0.29383498178E+02 -0.45328086913E+02  0.58981919679E+02  0.00000000000E+00 0. -1.
         -5    1    5    5    0  502  0.70510128560E+02  0.12461615262E+02 -0.28000196749E+03  0.28905044868E+03  0.47000000000E+01 0.  1.
         13    1    6    6    0    0  0.63863093357E+02  0.79156804386E+01 -0.92605703775E+02  0.11276953960E+03  0.00000000000E+00 0. -1.
        -14    1    6    6    0    0  0.49609134386E+02 -0.65476982274E+02 -0.61519759729E+02  0.10263031842E+03  0.00000000000E+00 0.  1.
</event>
<event>
12    1  0.8453150E-002  0.4170377E+03  0.7818608E-02  0.1038047E+00
         21   -1    0    0  503  502  0.00000000000E+00  0.00000000000E+00  0.45195186491E+03  0.45195186491E+03  0.00000000000E+00 0. -1.
         21   -1    0    0  501  503 -0.00000000000E+00 -0.00000000000E+00 -0.40046379337E+03  0.40046379337E+03  0.00000000000E+00 0.  1.
          6    2    1    2  501    0 -0.28010688876E+03  0.25646214382E+03 -0.58862754386E+02  0.42117129812E+03  0.17230130052E+03 0.  0.
         24    2    3    3    0    0 -0.10363535393E+03  0.13540046132E+03 -0.80484776369E+02  0.20602545128E+03  0.83036834239E+02 0.  0.
         -6    2    1    2    0  502  0.28010688876E+03 -0.25646214382E+03  0.11035082593E+03  0.43124436017E+03  0.17193514199E+03 0.  0.
        -24    2    5    5    0    0  0.14708022188E+03 -0.18136779020E+03  0.12652185312E+03  0.27756011189E+03  0.80653390557E+02 0.  0.
          5    1    3    3  501    0 -0.17647153483E+03  0.12106168250E+03  0.21622021983E+02  0.21514584683E+03  0.47000000000E+01 0. -1.
        -13    1    4    4    0    0 -0.11222993657E+03  0.13540724090E+03 -0.63488779016E+02  0.18697995778E+03  0.00000000000E+00 0.  1.
         14    1    4    4    0    0  0.85945826397E+01 -0.67795845762E-02 -0.16995997354E+02  0.19045493503E+02  0.00000000000E+00 0. -1.
         -5    1    5    5    0  502  0.13302666688E+03 -0.75094353612E+02 -0.16171027190E+02  0.15368424827E+03  0.47000000000E+01 0.  1.
         11    1    6    6    0    0  0.74979055153E+02 -0.53022234005E+02  0.83684103903E+02  0.12424268693E+03  0.00000000000E+00 0. -1.
        -12    1    6    6    0    0  0.72101166723E+02 -0.12834555620E+03  0.42837749213E+02  0.15331742496E+03  0.00000000000E+00 0.  1.
</event>
<event>
12    1  0.8453150E-002  0.1845653E+03  0.7818608E-02  0.1163477E+00
         21   -1    0    0  503  502  0.00000000000E+00  0.00000000000E+00  0.96955756781E+02  0.96955756781E+02  0.00000000000E+00 0. -1.
         21   -1    0    0  501  503 -0.00000000000E+00 -0.00000000000E+00 -0.89425755844E+03  0.89425755844E+03  0.00000000000E+00 0. -1.
          6    2    1    2  501    0  0.35767346955E+02 -0.55854438774E+02 -0.78491295527E+03  0.80632047559E+03  0.17223629283E+03 0.  0.
         24    2    3    3    0    0 -0.37914054225E+02  0.21292359192E+01 -0.34160786858E+03  0.35318413265E+03  0.81247070873E+02 0.  0.
         -6    2    1    2    0  502 -0.35767346955E+02  0.55854438774E+02 -0.12388846394E+02  0.18489283963E+03  0.17214196814E+03 0.  0.
        -24    2    5    5    0    0  0.58805871611E+01  0.81886337779E+02  0.31560763292E+02  0.11881812152E+03  0.79885609483E+02 0.  0.
          5    1    3    3  501    0  0.73681401180E+02 -0.57983674693E+02 -0.44330508669E+03  0.45313634294E+03  0.47000000000E+01 0. -1.
        -13    1    4    4    0    0 -0.76221869478E+01 -0.25711499790E+02 -0.36380866715E+02  0.45196752298E+02  0.00000000000E+00 0.  1.
         14    1    4    4    0    0 -0.30291867277E+02  0.27840735709E+02 -0.30522700187E+03  0.30798738035E+03  0.00000000000E+00 0. -1.
         -5    1    5    5    0  502 -0.41647934116E+02 -0.26031899005E+02 -0.43949609686E+02  0.66074718111E+02  0.47000000000E+01 0.  1.
         11    1    6    6    0    0 -0.13115664389E+02 -0.23193054240E+01  0.29617427387E+02  0.32474479750E+02  0.00000000000E+00 0. -1.
        -12    1    6    6    0    0  0.18996251551E+02  0.84205643203E+02  0.19433359051E+01  0.86343641773E+02  0.00000000000E+00 0.  1.
</event>
<event>
12    1  0.8453150E-002  0.1736631E+03  0.7818608E-02  0.1174161E+00
         21   -1    0    0  503  502  0.00000000000E+00  0.00000000000E+00  0.94941066101E+02  0.94941066101E+02  0.00000000000E+00 0.  1.
         21   -1    0    0  501  503 -0.00000000000E+00 -0.00000000000E+00 -0.58753474865E+03  0.58753474865E+03  0.00000000000E+00 0.  1.
          6    2    1    2  501    0  0.24915206718E+02 -0.91851641610E+01 -0.47769439009E+03  0.50817476613E+03  0.17130244552E+03 0.  0.
         24    2    3    3    0    0  0.68320295630E+02 -0.41246383184E+02 -0.37124947971E+03  0.38874054803E+03  0.83211240658E+02 0.  0.
         -6    2    1    2    0  502 -0.24915206718E+02  0.91851641610E+01 -0.14899292463E+02  0.17430104863E+03  0.17162089578E+03 0.  0.
        -24    2    5    5    0    0 -0.32363182241E+02 -0.18538360303E+02 -0.69773446929E+02  0.11219364990E+03  0.79548946027E+02 0.  0.
          5    1    3    3  501    0 -0.43405088912E+02  0.32061219023E+02 -0.10644491037E+03  0.11943421810E+03  0.47000000000E+01 0. -1.
        -13    1    4    4    0    0  0.55789254720E+02  0.13468315832E+02 -0.15367712926E+03  0.16404419079E+03  0.00000000000E+00 0.  1.
         14    1    4    4    0    0  0.12531040910E+02 -0.54714699016E+02 -0.21757235045E+03  0.22469635724E+03  0.00000000000E+00 0. -1.
         -5    1    5    5    0  502  0.74479755233E+01  0.27723524464E+02  0.54874154466E+02  0.62107398726E+02  0.47000000000E+01 0.  1.
         13    1    6    6    0    0 -0.17279051284E+02 -0.45700784782E+02 -0.18504450208E+02  0.52245019097E+02  0.00000000000E+00 0. -1.
        -14    1    6    6    0    0 -0.15084130958E+02  0.27162424479E+02 -0.51268996721E+02  0.59948630802E+02  0.00000000000E+00 0.  1.
</event>
<event>
12    1  0.8453150E-002  0.1747679E+03  0.7818608E-02  0.1173730E+00
         21   -1    0    0  503  502  0.00000000000E+00  0.00000000000E+00  0.15918822013E+03  0.15918822013E+03  0.00000000000E+00 0. -1.
         21   -1    0    0  501  503 -0.00000000000E+00 -0.00000000000E+00 -0.22488525877E+03  0.22488525877E+03  0.00000000000E+00 0. -1.
          6    2    1    2  501    0 -0.81837693071E+01 -0.22595194055E+02 -0.10976869500E+03  0.20383441051E+03  0.17006405743E+03 0.  0.
         24    2    3    3    0    0  0.20323334652E+02 -0.48829114061E+02 -0.12853262952E+03  0.16053257713E+03  0.80329018158E+02 0.  0.
         -6    2    1    2    0  502  0.81837693071E+01  0.22595194055E+02  0.44071656363E+02  0.18023906840E+03  0.17310775259E+03 0.  0.
        -24    2    5    5    0    0 -0.15492361035E+02  0.66217421544E+02 -0.12001151950E+02  0.10520769022E+03  0.79371722084E+02 0.  0.
          5    1    3    3  501    0 -0.28507103959E+02  0.26233920006E+02  0.18763934520E+02  0.43301833375E+02  0.47000000000E+01 0. -1.
        -11    1    4    4    0    0  0.40983995740E+02 -0.21494231055E+02 -0.27465081648E+02  0.53814687450E+02  0.00000000000E+00 0.  1.
         12    1    4    4    0    0 -0.20660661088E+02 -0.27334883006E+02 -0.10106754787E+03  0.10671788968E+03  0.00000000000E+00 0. -1.
         -5    1    5    5    0  502  0.23676130342E+02 -0.43622227489E+02  0.56072808313E+02  0.75031378178E+02  0.47000000000E+01 0.  1.
         13    1    6    6    0    0  0.73162566395E+01  0.47375557173E+02  0.27953656643E+02  0.55492143123E+02  0.00000000000E+00 0. -1.
        -14    1    6    6    0    0 -0.22808617675E+02  0.18841864372E+02 -0.39954808593E+02  0.49715547095E+02  0.00000000000E+00 0.  1.
</event>
<event>
12    1  0.8453150E-002  0.2994064E+03  0.7818608E-02  0.1085556E+00
         21   -1    0    0  501  502  0.00000000000E+00  0.00000000000E+00  0.11684085320E+04  0.11684085320E+04  0.00000000000E+00 0.  1.
         21   -1    0    0  502  503 -0.00000000000E+00 -0.00000000000E+00 -0.16361620659E+03  0.16361620659E+03  0.00000000000E+00 0. -1.
         -6    2    1    2    0  503 -0.63361238309E+01 -0.24459220766E+03  0.16991801942E+02  0.29988819249E+03  0.17256509540E+03 0.  0.
        -24    2    3    3    0    0 -0.33513522261E+02 -0.10309986480E+03 -0.46065559446E+02  0.14254457203E+03  0.80275656045E+02 0.  0.
          6    2    1    2  501    0  0.63361238309E+01  0.24459220766E+03  0.98780052349E+03  0.10321365461E+04  0.17230926008E+03 0.  0.
         24    2    5    5    0    0 -0.36608708135E+02  0.62567361378E+02  0.44902142695E+03  0.46180128670E+03  0.79908161808E+02 0.  0.
          5    1    5    5  501    0  0.42944831966E+02  0.18202484628E+03  0.53877909654E+03  0.57033525941E+03  0.47000000000E+01 0. -1.
        -11    1    6    6    0    0 -0.49838192477E+02  0.73547565687E+02  0.33918184392E+03  0.35062431903E+03  0.00000000000E+00 0.  1.
         12    1    6    6    0    0  0.13229484342E+02 -0.10980204309E+02  0.10983958302E+03  0.11117696767E+03  0.00000000000E+00 0. -1.
         -5    1    3    3    0  503  0.27177398430E+02 -0.14149234286E+03  0.63057361387E+02  0.15734362046E+03  0.47000000000E+01 0.  1.
         11    1    4    4    0    0 -0.37421991576E+02 -0.73511865639E+01 -0.20803695500E+02  0.43442365772E+02  0.00000000000E+00 0. -1.
        -12    1    4    4    0    0  0.39084693152E+01 -0.95748678232E+02 -0.25261863945E+02  0.99102206260E+02  0.00000000000E+00 0.  1.
</event>
<event>
12    1  0.8453150E-002  0.2650154E+03  0.7818608E-02  0.1104455E+00
         21   -1    0    0  501  502  0.00000000000E+00  0.00000000000E+00  0.25519281493E+03  0.25519281493E+03  0.00000000000E+00 0. -1.
         21   -1    0    0  502  503 -0.00000000000E+00 -0.00000000000E+00 -0.37213120769E+03  0.37213120769E+03  0.00000000000E+00 0. -1.
         -6    2    1    2    0  503 -0.16953540335E+03  0.10522219518E+03 -0.22036642984E+03  0.34466582084E+03  0.17441101258E+03 0.  0.
        -24    2    3    3    0    0 -0.10347805327E+03  0.15814755565E+02 -0.18640380677E+03  0.22833519923E+03  0.80204551175E+02 0.  0.
          6    2    1    2  501    0  0.16953540335E+03 -0.10522219518E+03  0.10342803708E+03  0.28265820177E+03  0.17141860118E+03 0.  0.
         24    2    5    5    0    0  0.13654311918E+03 -0.48341846528E+02  0.74687753375E+01  0.16623597541E+03  0.81225977342E+02 0.  0.
          5    1    5    5  501    0  0.32992284167E+02 -0.56880348655E+02  0.95959261739E+02  0.11642222636E+03  0.47000000000E+01 0. -1.
        -11    1    6    6    0    0 -0.70109302564E+01 -0.68265007704E+01 -0.12058038764E+02  0.15529022979E+02  0.00000000000E+00 0.  1.
         12    1    6    6    0    0  0.14355404944E+03 -0.41515345757E+02  0.19526814102E+02  0.15070695243E+03  0.00000000000E+00 0. -1.
         -5    1    3    3    0  503 -0.66057350072E+02  0.89407439618E+02 -0.33962623076E+02  0.11633062161E+03  0.47000000000E+01 0.  1.
         11    1    4    4    0    0 -0.23674359622E+01  0.29494447663E+02 -0.36203210964E+02  0.46756814264E+02  0.00000000000E+00 0. -1.
        -12    1    4    4    0    0 -0.10111061731E+03 -0.13679692098E+02 -0.15020059580E+03  0.18157838497E+03  0.00000000000E+00 0.  1.
</event>
<event>
12    1  0.8453150E-002  0.1815852E+03  0.7818608E-02  0.1166460E+00
         21   -1    0    0  503  502  0.00000000000E+00  0.00000000000E+00  0.31133267853E+03  0.31133267853E+03  0.00000000000E+00 0.  1.
         21   -1    0    0  501  503 -0.00000000000E+00 -0.00000000000E+00 -0.10718400453E+03  0.10718400453E+03  0.00000000000E+00 0.  1.
          6    2    1    2  501    0  0.57886908334E+02 -0.23381376211E+01  0.75370824217E+02  0.19590285642E+03  0.17129158463E+03 0.  0.
         24    2    3    3    0    0  0.81522072217E+02  0.30177969002E+02  0.62256185583E+01  0.11578377238E+03  0.76227065722E+02 0.  0.
         -6    2    1    2    0  502 -0.57886908334E+02  0.23381376211E+01  0.12877784978E+03  0.22261382665E+03  0.17209538104E+03 0.  0.
        -24    2    5    5    0    0 -0.77703526038E+00 -0.34172158426E+02  0.30883835559E+02  0.10345063040E+03  0.92627649412E+02 0.  0.
          5    1    3    3  501    0 -0.23635163883E+02 -0.32516106624E+02  0.69145205659E+02  0.80119084039E+02  0.47000000000E+01 0. -1.
        -11    1    4    4    0    0  0.93018131259E+02  0.19962452461E+02  0.17477353908E+02  0.96728124921E+02  0.00000000000E+00 0.  1.
         12    1    4    4    0    0 -0.11496059042E+02  0.10215516541E+02 -0.11251735350E+02  0.19055647459E+02  0.00000000000E+00 0. -1.
         -5    1    5    5    0  502 -0.57109873073E+02  0.36510296047E+02  0.97894014222E+02  0.11916319625E+03  0.47000000000E+01 0.  1.
         11    1    6    6    0    0  0.25271059712E+02  0.18787775761E+02 -0.83532282240E+01  0.32578879643E+02  0.00000000000E+00 0. -1.
        -12    1    6    6    0    0 -0.26048094972E+02 -0.52959934187E+02  0.39237063783E+02  0.70871750755E+02  0.00000000000E+00 0.  1.
</event>
<event>
12    1  0.8453150E-002  0.2227236E+03  0.7818608E-02  0.1132114E+00
         21   -1    0    0  501  502  0.00000000000E+00  0.00000000000E+00  0.26391280788E+03  0.26391280788E+03  0.00000000000E+00 0.  1.
         21   -1    0    0  502  503 -0.00000000000E+00 -0.00000000000E+00 -0.48364819973E+03  0.48364819973E+03  0.00000000000E+00 0. -1.
         -6    2    1    2    0  503 -0.13196917829E+03 -0.43608036751E+02 -0.40280655710E+03  0.46028134380E+03  0.17403524963E+03 0.  0.
        -24    2    3    3    0    0 -0.15608205590E+03 -0.29816388090E+02 -0.37521089133E+03  0.42084467040E+03  0.10524446994E+03 0.  0.
          6    2    1    2  501    0  0.13196917829E+03  0.43608036751E+02  0.18307116525E+03  0.28727966381E+03  0.17232825886E+03 0.  0.
         24    2    5    5    0    0  0.16650140912E+03  0.39141856486E+02  0.15557381623E+03  0.24266334465E+03  0.73671448812E+02 0.  0.
          5    1    5    5  501    0 -0.34532230830E+02  0.44661802650E+01  0.27497349026E+02  0.44616319164E+02  0.47000000000E+01 0. -1.
        -13    1    6    6    0    0  0.10273369139E+03  0.57019223792E+02  0.79830615827E+02  0.14205045038E+03  0.00000000000E+00 0.  1.
         14    1    6    6    0    0  0.63767717733E+02 -0.17877367306E+02  0.75743200400E+02  0.10061289427E+03  0.00000000000E+00 0. -1.
         -5    1    3    3    0  503  0.24112877612E+02 -0.13791648661E+02 -0.27595665769E+02  0.39436673399E+02  0.47000000000E+01 0.  1.
         11    1    4    4    0    0 -0.76300398556E+02 -0.67920460792E+02 -0.20490752631E+03  0.22895858610E+03  0.00000000000E+00 0. -1.
        -12    1    4    4    0    0 -0.79781657349E+02  0.38104072702E+02 -0.17030336503E+03  0.19188608429E+03  0.00000000000E+00 0.  1.
</event>
<event>
12    1  0.8453150E-002  0.2110823E+03  0.7818608E-02  0.1141161E+00
         21   -1    0    0  501  502  0.00000000000E+00  0.00000000000E+00  0.84472737109E+02  0.84472737109E+02  0.00000000000E+00 0. -1.
         21   -1    0    0  502  503 -0.00000000000E+00 -0.00000000000E+00 -0.55129974385E+03  0.55129974385E+03  0.00000000000E+00 0.  1.
         -6    2    1    2    0  503 -0.63725110157E+02  0.10298205750E+03 -0.30575987744E+03  0.37025721733E+03  0.17010323484E+03 0.  0.
        -24    2    3    3    0    0 -0.47939096465E+02  0.10920034869E+01 -0.20977392715E+03  0.22930980165E+03  0.79237208284E+02 0.  0.
          6    2    1    2  501    0  0.63725110157E+02 -0.10298205750E+03 -0.16106712930E+03  0.26551526363E+03  0.17288591975E+03 0.  0.
         24    2    5    5    0    0  0.30945858162E+02 -0.13564099330E+03 -0.14513905623E+03  0.21635350043E+03  0.79921000385E+02 0.  0.
          5    1    5    5  501    0  0.32779251995E+02  0.32658935803E+02 -0.15928073074E+02  0.49161763201E+02  0.47000000000E+01 0. -1.
        -13    1    6    6    0    0 -0.71796165355E+01 -0.56011297371E+01 -0.49890532367E+02  0.50714739157E+02  0.00000000000E+00 0.  1.
         14    1    6    6    0    0  0.38125474698E+02 -0.13003986357E+03 -0.95248523861E+02  0.16563876127E+03  0.00000000000E+00 0. -1.
         -5    1    3    3    0  503 -0.15786013692E+02  0.10189005401E+03 -0.95985950285E+02  0.14094741568E+03  0.47000000000E+01 0.  1.
         11    1    4    4    0    0  0.17583538729E+02 -0.16919622589E+02 -0.63307566862E+02  0.67847641704E+02  0.00000000000E+00 0. -1.
        -12    1    4    4    0    0 -0.65522635194E+02  0.18011626076E+02 -0.14646636029E+03  0.16146215994E+03  0.00000000000E+00 0.  1.
</event>
<event>
12    1  0.8453150E-002  0.2129544E+03  0.7818608E-02  0.1139514E+00
         21   -1    0    0  501  502  0.00000000000E+00  0.00000000000E+00  0.49246972940E+03  0.49246972940E+03  0.00000000000E+00 0.  1.
         21   -1    0    0  502  503 -0.00000000000E+00 -0.00000000000E+00 -0.91901631009E+02  0.91901631009E+02  0.00000000000E+00 0. -1.
         -6    2    1    2    0  503  0.50781933335E+02 -0.11498645344E+03  0.21904971575E+03  0.30455266602E+03  0.17020240650E+03 0.  0.
        -24    2    3    3    0    0 -0.51072692303E+01 -0.49409985041E+02  0.19238005985E+03  0.21423524402E+03  0.80120044486E+02 0.  0.
          6    2    1    2  501    0 -0.50781933335E+02  0.11498645344E+03  0.18151838264E+03  0.27981869439E+03  0.17189790361E+03 0.  0.
         24    2    5    5    0    0 -0.45024131847E+02  0.14822887131E+03  0.12798044667E+03  0.21636310983E+03  0.80218637654E+02 0.  0.
          5    1    5    5  501    0 -0.57578014886E+01 -0.33242417872E+02  0.53537935971E+02  0.63455584560E+02  0.47000000000E+01 0. -1.
        -13    1    6    6    0    0  0.10229669141E+02  0.68060988404E+02  0.86474985082E+02  0.11052089087E+03  0.00000000000E+00 0.  1.
         14    1    6    6    0    0 -0.55253800988E+02  0.80167882908E+02  0.41505461589E+02  0.10584221896E+03  0.00000000000E+00 0. -1.
         -5    1    3    3    0  503  0.55889202566E+02 -0.65576468400E+02  0.26669655898E+02  0.90317422001E+02  0.47000000000E+01 0.  1.
         13    1    4    4    0    0  0.12604309216E+02 -0.58371651111E+02  0.78469911333E+02  0.98608545517E+02  0.00000000000E+00 0. -1.
        -14    1    4    4    0    0 -0.17711578446E+02  0.89616660704E+01  0.11391014852E+03  0.11562669850E+03  0.00000000000E+00 0.  1.
</event>
<event>
12    1  0.8453150E-002  0.1853858E+03  0.7818608E-02  0.1163243E+00
         21   -1    0    0  503  502  0.00000000000E+00  0.00000000000E+00  0.29143218833E+03  0.29143218833E+03  0.00000000000E+00 0. -1.
         21   -1    0    0  501  503 -0.00000000000E+00 -0.00000000000E+00 -0.12349317424E+03  0.12349317424E+03  0.00000000000E+00 0. -1.
          6    2    1    2  501    0  0.10699453985E+02  0.62419386618E+02  0.34873284651E+02  0.18863729064E+03  0.17423324395E+03 0.  0.
         24    2    3    3    0    0 -0.16506665626E+02  0.55053834182E+02  0.85472351090E+02  0.13052722412E+03  0.80177545276E+02 0.  0.
         -6    2    1    2    0  502 -0.10699453985E+02 -0.62419386618E+02  0.13306572944E+03  0.22628807193E+03  0.17172403735E+03 0.  0.
        -24    2    5    5    0    0  0.30225272625E+02  0.92734777596E+01  0.11103810078E+03  0.14071934823E+03  0.80454401031E+02 0.  0.
          5    1    3    3  501    0  0.27206119610E+02  0.73655524353E+01 -0.50599066439E+02  0.58110066524E+02  0.47000000000E+01 0. -1.
        -13    1    4    4    0    0  0.15669276770E+02 -0.12464209120E+02  0.49435283176E+01  0.20623317282E+02  0.00000000000E+00 0.  1.
         14    1    4    4    0    0 -0.32175942396E+02  0.67518043302E+02  0.80528822773E+02  0.10990390683E+03  0.00000000000E+00 0. -1.
         -5    1    5    5    0  502 -0.40924726609E+02 -0.71692864377E+02  0.22027628658E+02  0.85568723696E+02  0.47000000000E+01 0.  1.
         13    1    6    6    0    0 -0.52071012571E+01 -0.29990464288E+02  0.23540909926E+02  0.38480076557E+02  0.00000000000E+00 0. -1.
        -14    1    6    6    0    0  0.35432373882E+02  0.39263942047E+02  0.87497190858E+02  0.10223927167E+03  0.00000000000E+00 0.  1.
</event>
<event>
12    1  0.8453150E-002  0.1825400E+03  0.7818608E-02  0.1165495E+00
         21   -1    0    0  503  502  0.00000000000E+00  0.00000000000E+00  0.23465910652E+03  0.23465910652E+03  0.00000000000E+00 0. -1.
         21   -1    0    0  501  503 -0.00000000000E+00 -0.00000000000E+00 -0.14184036319E+03  0.14184036319E+03  0.00000000000E+00 0. -1.
          6    2    1    2  501    0  0.56906029079E+02  0.20205392796E+02  0.38284204649E+02  0.18598739813E+03  0.17169472297E+03 0.  0.
         24    2    3    3    0    0  0.95085175948E+02  0.11978807427E+02  0.62824699297E+02  0.13962308168E+03  0.79768286832E+02 0.  0.
         -6    2    1    2    0  502 -0.56906029079E+02 -0.20205392796E+02  0.54534538678E+02  0.19051207158E+03  0.17226224039E+03 0.  0.
        -24    2    5    5    0    0 -0.10577549935E+02  0.37501792762E+02  0.71957524454E+02  0.11434056983E+03  0.79859949667E+02 0.  0.
          5    1    3    3  501    0 -0.38179146869E+02  0.82265853691E+01 -0.24540494648E+02  0.46364316451E+02  0.47000000000E+01 0. -1.
        -13    1    4    4    0    0  0.93541396395E+02  0.36286258540E+02  0.50334439850E+02  0.11225079614E+03  0.00000000000E+00 0.  1.
         14    1    4    4    0    0  0.15437795530E+01 -0.24307451113E+02  0.12490259447E+02  0.27372285545E+02  0.00000000000E+00 0. -1.
         -5    1    5    5    0  502 -0.46328479144E+02 -0.57707185558E+02 -0.17422985776E+02  0.76171501745E+02  0.47000000000E+01 0.  1.
         11    1    6    6    0    0  0.96204737249E+01  0.47777459509E+02  0.11926377163E+02  0.50174471836E+02  0.00000000000E+00 0. -1.
        -12    1    6    6    0    0 -0.20198023660E+02 -0.10275666747E+02  0.60031147291E+02  0.64166097995E+02  0.00000000000E+00 0.  1.
</event>
<event>
12    1  0.8453150E-002  0.3093844E+03  0.7818608E-02  0.1081327E+00
         21   -1    0    0  501  502  0.00000000000E+00  0.00000000000E+00  0.59049303013E+03  0.59049303013E+03  0.00000000000E+00 0. -1.
         21   -1    0    0  502  503 -0.00000000000E+00 -0.00000000000E+00 -0.26305590092E+03  0.26305590092E+03  0.00000000000E+00 0.  1.
         -6    2    1    2    0  503 -0.18334998607E+03  0.16655828251E+03  0.43101740683E+03  0.52728590573E+03  0.17577127901E+03 0.  0.
        -24    2    3    3    0    0 -0.29120011781E+02  0.19475983180E+02  0.16402514607E+03  0.18563250673E+03  0.79548035817E+02 0.  0.
          6    2    1    2  501    0  0.18334998607E+03 -0.16655828251E+03 -0.10358027763E+03  0.32626302532E+03  0.18536399034E+03 0.  0.
         24    2    5    5    0    0  0.41271945699E+02 -0.39766023898E+02 -0.91752652703E+02  0.13541117411E+03  0.81442781379E+02 0.  0.
          5    1    5    5  501    0  0.14207804037E+03 -0.12679225861E+03 -0.11827624928E+02  0.19085185121E+03  0.47000000000E+01 0. -1.
        -13    1    6    6    0    0  0.66152775889E+02 -0.32167751010E+02 -0.68735350993E+02  0.10067523250E+03  0.00000000000E+00 0.  1.
         14    1    6    6    0    0 -0.24880830190E+02 -0.75982728881E+01 -0.23017301709E+02  0.34735941614E+02  0.00000000000E+00 0. -1.
         -5    1    3    3    0  503 -0.15422997429E+03  0.14708229933E+03  0.26699226076E+03  0.34165339900E+03  0.47000000000E+01 0.  1.
         11    1    4    4    0    0 -0.20803596831E+02 -0.30092573061E+02  0.72942084947E+02  0.81602085457E+02  0.00000000000E+00 0. -1.
        -12    1    4    4    0    0 -0.83164149506E+01  0.49568556241E+02  0.91083061127E+02  0.10403042127E+03  0.00000000000E+00 0.  1.
</event>
<event>
12    1  0.8453150E-002  0.2503515E+03  0.7818608E-02  0.1113245E+00
         21   -1    0    0  501  502  0.00000000000E+00  0.00000000000E+00  0.60722051629E+03  0.60722051629E+03  0.00000000000E+00 0. -1.
         21   -1    0    0  502  503 -0.00000000000E+00 -0.00000000000E+00 -0.12233020079E+03  0.12233020079E+03  0.00000000000E+00 0.  1.
         -6    2    1    2    0  503 -0.17468641769E+03 -0.48796676251E+02  0.97095107920E+02  0.26852059709E+03  0.17256706215E+03 0.  0.
        -24    2    3    3    0    0 -0.12955031999E+03  0.30613716395E+02  0.83109684263E+02  0.17599514194E+03  0.79665458809E+02 0.  0.
          6    2    1    2  501    0  0.17468641769E+03  0.48796676251E+02  0.38779520758E+03  0.46103012000E+03  0.17107655709E+03 0.  0.
         24    2    5    5    0    0  0.13038325860E+03  0.15626517511E+01  0.14884099205E+03  0.21341140080E+03  0.79928399673E+02 0.  0.
          5    1    5    5  501    0  0.44303159086E+02  0.47234024500E+02  0.23895421553E+03  0.24761871920E+03  0.47000000000E+01 0. -1.
        -13    1    6    6    0    0  0.10090797680E+03 -0.23204703795E+02  0.13961907044E+03  0.17382279163E+03  0.00000000000E+00 0.  1.
         14    1    6    6    0    0  0.29475281805E+02  0.24767355546E+02  0.92219216116E+01  0.39588609175E+02  0.00000000000E+00 0. -1.
         -5    1    3    3    0  503 -0.45136097702E+02 -0.79410392646E+02  0.13985423657E+02  0.92525455151E+02  0.47000000000E+01 0.  1.
         13    1    4    4    0    0 -0.75931292400E+02 -0.21407638426E+02  0.30313775550E+02  0.84514928484E+02  0.00000000000E+00 0. -1.
        -14    1    4    4    0    0 -0.53619027588E+02  0.52021354821E+02  0.52795908713E+02  0.91480213454E+02  0.00000000000E+00 0.  1.
</event>
<event>
12    1  0.8453150E-002  0.1784299E+03  0.7818608E-02  0.1169554E+00
         21   -1    0    0  501  502  0.00000000000E+00  0.00000000000E+00  0.23645745540E+03  0.23645745540E+03  0.00000000000E+00 0. -1.
         21   -1    0    0  502  503 -0.00000000000E+00 -0.00000000000E+00 -0.20683983259E+03  0.20683983259E+03  0.00000000000E+00 0. -1.
         -6    2    1    2    0  503  0.97781556123E+01 -0.46990117602E+02 -0.11678387273E+03  0.21249300370E+03  0.17091260987E+03 0.  0.
        -24    2    3    3    0    0  0.12290271953E+02  0.21283152811E+02 -0.11570814493E+03  0.14400360765E+03  0.82125762305E+02 0.  0.
          6    2    1    2  501    0 -0.97781556123E+01  0.46990117602E+02  0.14640149554E+03  0.23080428428E+03  0.17185324049E+03 0.  0.
         24    2    5    5    0    0 -0.70602242710E+02  0.45291147949E+02  0.11031796414E+03  0.15990599582E+03  0.79774115650E+02 0.  0.
          5    1    5    5  501    0  0.60824087097E+02  0.16989696533E+01  0.36083531399E+02  0.70898288465E+02  0.47000000000E+01 0. -1.
        -11    1    6    6    0    0 -0.14285125665E+02  0.48935910523E+02  0.22973319004E+02  0.55915664532E+02  0.00000000000E+00 0.  1.
         12    1    6    6    0    0 -0.56317117045E+02 -0.36447625749E+01  0.87344645137E+02  0.10399033128E+03  0.00000000000E+00 0. -1.
         -5    1    3    3    0  503 -0.25121163403E+01 -0.68273270413E+02 -0.10757277943E+01  0.68489396052E+02  0.47000000000E+01 0.  1.
         11    1    4    4    0    0  0.33192713533E+02 -0.99927459350E+01 -0.17487171691E+02  0.38825408906E+02  0.00000000000E+00 0. -1.
        -12    1    4    4    0    0 -0.20902441580E+02  0.31275898746E+02 -0.98220973243E+02  0.10517819874E+03  0.00000000000E+00 0.  1.
</event>
<event>
12    1  0.8453150E-002  0.1959425E+03  0.7818608E-02  0.1156748E+00
         21   -1    0    0  501  502  0.00000000000E+00  0.00000000000E+00  0.20753265799E+03  0.20753265799E+03  0.00000000000E+00 0. -1.
         21   -1    0    0  502  503 -0.00000000000E+00 -0.00000000000E+00 -0.20316724031E+03  0.20316724031E+03  0.00000000000E+00 0. -1.
         -6    2    1    2    0  503  0.28216800156E+02 -0.42934648118E+02 -0.80131792117E+02  0.19731472144E+03  0.17283640638E+03 0.  0.
        -24    2    3    3    0    0 -0.45373653781E+02 -0.49681304511E+02 -0.33549838889E+02  0.10983306251E+03  0.80066906116E+02 0.  0.
          6    2    1    2  501    0 -0.28216800156E+02  0.42934648118E+02  0.84497209797E+02  0.21338517685E+03  0.18908697315E+03 0.  0.
         24    2    5    5    0    0 -0.42676411205E+02 -0.48756108216E+02  0.41733065380E+02  0.11107614892E+03  0.79986423541E+02 0.  0.
          5    1    5    5  501    0  0.14459611049E+02  0.91690756334E+02  0.42764144417E+02  0.10230902793E+03  0.47000000000E+01 0. -1.
        -11    1    6    6    0    0 -0.48234036234E+02 -0.30130835580E+02 -0.82313555002E+01  0.57464290803E+02  0.00000000000E+00 0.  1.
         12    1    6    6    0    0  0.55576250285E+01 -0.18625272636E+02  0.49964420880E+02  0.53611858116E+02  0.00000000000E+00 0. -1.
         -5    1    3    3    0  503  0.73590453937E+02  0.67466563932E+01 -0.46581953229E+02  0.87481658933E+02  0.47000000000E+01 0.  1.
         11    1    4    4    0    0  0.97520125311E+01  0.14303545067E+02  0.34085262535E+01  0.17644013180E+02  0.00000000000E+00 0. -1.
        -12    1    4    4    0    0 -0.55125666312E+02 -0.63984849578E+02 -0.36958365142E+02  0.92189049327E+02  0.00000000000E+00 0.  1.
</event>
<event>
12    1  0.8453150E-002  0.2180109E+03  0.7818608E-02  0.1135749E+00
         21   -1    0    0  503  502  0.00000000000E+00  0.00000000000E+00  0.26285896508E+02  0.26285896508E+02  0.00000000000E+00 0. -1.
         21   -1    0    0  501  503 -0.00000000000E+00 -0.00000000000E+00 -0.25064207789E+04  0.25064207789E+04  0.00000000000E+00 0. -1.
          6    2    1    2  501    0 -0.39247847154E+01  0.13293528668E+03 -0.19202925680E+04  0.19326283387E+04  0.17274708251E+03 0.  0.
         24    2    3    3    0    0 -0.42212325921E+02  0.77991707833E+02 -0.59770920253E+03  0.60834227397E+03  0.70423323962E+02 0.  0.
         -6    2    1    2    0  502  0.39247847154E+01 -0.13293528668E+03 -0.55984231437E+03  0.60007833667E+03  0.17024511388E+03 0.  0.
        -24    2    5    5    0    0 -0.46713565408E+02 -0.13627885875E+03 -0.42031489755E+03  0.45153402670E+03  0.80400744009E+02 0.  0.
          5    1    3    3  501    0  0.38287541205E+02  0.54943578849E+02 -0.13225833655E+04  0.13242860647E+04  0.47000000000E+01 0. -1.
        -11    1    4    4    0    0 -0.49170881448E+02  0.36241190713E+02 -0.46632059370E+03  0.47030425853E+03  0.00000000000E+00 0.  1.
         12    1    4    4    0    0  0.69585555277E+01  0.41750517119E+02 -0.13138860883E+03  0.13803801543E+03  0.00000000000E+00 0. -1.
         -5    1    5    5    0  502  0.50638350124E+02  0.33435720673E+01 -0.13952741683E+03  0.14854430997E+03  0.47000000000E+01 0.  1.
         13    1    6    6    0    0 -0.14616831414E+02 -0.36907003764E+02 -0.23919156995E+03  0.24246316385E+03  0.00000000000E+00 0. -1.
        -14    1    6    6    0    0 -0.32096733994E+02 -0.99371854985E+02 -0.18112332759E+03  0.20907086286E+03  0.00000000000E+00 0.  1.
</event>
<event>
12    1  0.8453150E-002  0.2043429E+03  0.7818608E-02  0.1146351E+00
         21   -1    0    0  501  502  0.00000000000E+00  0.00000000000E+00  0.37821896708E+03  0.37821896708E+03  0.00000000000E+00 0. -1.
         21   -1    0    0  502  503 -0.00000000000E+00 -0.00000000000E+00 -0.11707007055E+03  0.11707007055E+03  0.00000000000E+00 0. -1.
         -6    2    1    2    0  503 -0.10789273954E+03 -0.28540635759E+01  0.69232858123E+02  0.21575267298E+03  0.17351379868E+03 0.  0.
        -24    2    3    3    0    0 -0.10381953732E+03 -0.44149938458E+01  0.11188231148E+03  0.17262387343E+03  0.80519324118E+02 0.  0.
          6    2    1    2  501    0  0.10789273954E+03  0.28540635759E+01  0.19191603841E+03  0.27953636464E+03  0.17222027881E+03 0.  0.
         24    2    5    5    0    0  0.12480712449E+03 -0.40038337719E+02  0.12573324342E+03  0.19873966385E+03  0.80676630287E+02 0.  0.
          5    1    5    5  501    0 -0.16914384948E+02  0.42892401295E+02  0.66182794986E+02  0.80796700794E+02  0.47000000000E+01 0. -1.
        -13    1    6    6    0    0  0.40549912862E+02  0.24454224703E+02  0.31907572876E+02  0.57099892695E+02  0.00000000000E+00 0.  1.
         14    1    6    6    0    0  0.84257211626E+02 -0.64492562422E+02  0.93825670547E+02  0.14163977115E+03  0.00000000000E+00 0. -1.
         -5    1    3    3    0  503 -0.40732022188E+01  0.15609302699E+01 -0.42649453353E+02  0.43128799553E+02  0.47000000000E+01 0.  1.
         11    1    4    4    0    0  0.42194909049E+01  0.19812421544E+02  0.12240186530E+02  0.23667663957E+02  0.00000000000E+00 0. -1.
        -12    1    4    4    0    0 -0.10803902823E+03 -0.24227415390E+02  0.99642124946E+02  0.14895620947E+03  0.00000000000E+00 0.  1.
</event>
<event>
12    1  0.8453150E-002  0.1844777E+03  0.7818608E-02  0.1164553E+00
         21   -1    0    0  501  502  0.00000000000E+00  0.00000000000E+00  0.28432061104E+03  0.28432061104E+03  0.00000000000E+00 0. -1.
         21   -1    0    0  502  503 -0.00000000000E+00 -0.00000000000E+00 -0.14888101210E+03  0.14888101210E+03  0.00000000000E+00 0. -1.
         -6    2    1    2    0  503 -0.49994419986E+02  0.46868055948E+02 -0.33225860241E+02  0.18324152934E+03  0.16666566410E+03 0.  0.
        -24    2    3    3    0    0 -0.17839968807E+02  0.90371378925E+02 -0.22494658293E+02  0.12789086055E+03  0.85818482535E+02 0.  0.
          6    2    1    2  501    0  0.49994419986E+02 -0.46868055948E+02  0.16866545919E+03  0.24996009380E+03  0.17127742020E+03 0.  0.
         24    2    5    5    0    0  0.81531505558E+02 -0.77224294107E+02  0.14530196290E+03  0.20012003039E+03  0.79526021790E+02 0.  0.
          5    1    5    5  501    0 -0.31537085572E+02  0.30356238159E+02  0.23363496288E+02  0.49840063406E+02  0.47000000000E+01 0. -1.
        -13    1    6    6    0    0 -0.68818337639E+01 -0.39172125823E+02  0.56957640072E+02  0.69469330211E+02  0.00000000000E+00 0.  1.
         14    1    6    6    0    0  0.88413339322E+02 -0.38052168284E+02  0.88344322829E+02  0.13065070018E+03  0.00000000000E+00 0. -1.
         -5    1    3    3    0  503 -0.32154451179E+02 -0.43503322977E+02 -0.10731201948E+02  0.55350668794E+02  0.47000000000E+01 0.  1.
         11    1    4    4    0    0 -0.16242902459E+02  0.10350179109E+03 -0.36050163392E+01  0.10483057179E+03  0.00000000000E+00 0. -1.
        -12    1    4    4    0    0 -0.15970663480E+01 -0.13130412165E+02 -0.18889641954E+02  0.23060288759E+02  0.00000000000E+00 0.  1.
</event>
<event>
12    1  0.8453150E-002  0.2307470E+03  0.7818608E-02  0.1126456E+00
         21   -1    0    0  503  502  0.00000000000E+00  0.00000000000E+00  0.63592472858E+02  0.63592472858E+02  0.00000000000E+00 0. -1.
         21   -1    0    0  501  503 -0.00000000000E+00 -0.00000000000E+00 -0.16897599718E+04  0.16897599718E+04  0.00000000000E+00 0. -1.
          6    2    1    2  501    0 -0.27511639107E+02 -0.14942487579E+03 -0.14366411493E+04  0.14547483408E+04  0.17108553219E+03 0.  0.
         24    2    3    3    0    0 -0.69856993671E+02 -0.11417901604E+03 -0.75649545902E+03  0.77235867959E+03  0.79597130286E+02 0.  0.
         -6    2    1    2    0  502  0.27511639107E+02  0.14942487579E+03 -0.18952634968E+03  0.29860410393E+03  0.17366487805E+03 0.  0.
        -24    2    5    5    0    0  0.34267820756E+02  0.10227942475E+03 -0.37474424324E+02  0.13919827734E+03  0.79601907452E+02 0.  0.
          5    1    3    3  501    0  0.42345354564E+02 -0.35245859748E+02 -0.68014569027E+03  0.68238966118E+03  0.47000000000E+01 0. -1.
        -11    1    4    4    0    0 -0.42398155522E+02 -0.16604312715E+02 -0.37002928238E+03  0.37282030069E+03  0.00000000000E+00 0.  1.
         12    1    4    4    0    0 -0.27458838148E+02 -0.97574703327E+02 -0.38646617664E+03  0.39953837890E+03  0.00000000000E+00 0. -1.
         -5    1    5    5    0  502 -0.67561816495E+01  0.47145451040E+02 -0.15205192536E+03  0.15940582659E+03  0.47000000000E+01 0.  1.
         13    1    6    6    0    0  0.46952792105E+02  0.10182940712E+03 -0.48701704117E+02  0.12225239803E+03  0.00000000000E+00 0. -1.
        -14    1    6    6    0    0 -0.12684971349E+02  0.45001762835E+00  0.11227279793E+02  0.16945879308E+02  0.00000000000E+00 0.  1.
</event>
<event>
12    1  0.8453150E-002  0.1822785E+03  0.7818608E-02  0.1165743E+00
         21   -1    0    0  503  502  0.00000000000E+00  0.00000000000E+00  0.17521222607E+03  0.17521222607E+03  0.00000000000E+00 0. -1.
         21   -1    0    0  501  503 -0.00000000000E+00 -0.00000000000E+00 -0.19775404041E+03  0.19775404041E+03  0.00000000000E+00 0. -1.
          6    2    1    2  501    0 -0.57539190400E+02 -0.65689940163E+01 -0.50322743664E+02  0.18858290861E+03  0.17227078909E+03 0.  0.
         24    2    3    3    0    0 -0.10135229200E+03  0.21279004289E+02 -0.37394186762E+02  0.13487688972E+03  0.77899724393E+02 0.  0.
         -6    2    1    2    0  502  0.57539190400E+02  0.65689940163E+01  0.27780929332E+02  0.18438335787E+03  0.17283382919E+03 0.  0.
        -24    2    5    5    0    0  0.49390919910E+02  0.20498260206E+02  0.83023868964E+02  0.12664003664E+03  0.79278587402E+02 0.  0.
          5    1    3    3  501    0  0.43813101596E+02 -0.27847998305E+02 -0.12928556902E+02  0.53706018886E+02  0.47000000000E+01 0. -1.
        -11    1    4    4    0    0 -0.74078518674E+02  0.36122601000E+02 -0.55093774201E+02  0.99135226775E+02  0.00000000000E+00 0.  1.
         12    1    4    4    0    0 -0.27273773322E+02 -0.14843596712E+02  0.17699587439E+02  0.35741662945E+02  0.00000000000E+00 0. -1.
         -5    1    5    5    0  502  0.81482704899E+01 -0.13929266189E+02 -0.55242939632E+02  0.57743321239E+02  0.47000000000E+01 0.  1.
         11    1    6    6    0    0  0.30253719904E+02  0.48571670532E+02  0.69612287846E+02  0.90113069893E+02  0.00000000000E+00 0. -1.
        -12    1    6    6    0    0  0.19137200006E+02 -0.28073410326E+02  0.13411581117E+02  0.36526966743E+02  0.00000000000E+00 0.  1.
</event>
<event>
12    1  0.8453150E-002  0.2595538E+03  0.7818608E-02  0.1107439E+00
         21   -1    0    0  501  502  0.00000000000E+00  0.00000000000E+00  0.39447555329E+03  0.39447555329E+03  0.00000000000E+00 0.  1.
         21   -1    0    0  502  503 -0.00000000000E+00 -0.00000000000E+00 -0.48550841034E+03  0.48550841034E+03  0.00000000000E+00 0.  1.
         -6    2    1    2    0  503 -0.17371889460E+03  0.87365644229E+02 -0.39983148286E+03  0.47659238619E+03  0.17165103483E+03 0.  0.
        -24    2    3    3    0    0 -0.10965862014E+03 -0.27492902235E+00 -0.14637196298E+03  0.20082362969E+03  0.82947514362E+02 0.  0.
          6    2    1    2  501    0  0.17371889460E+03 -0.87365644229E+02  0.30879862581E+03  0.40339157744E+03  0.17192196868E+03 0.  0.
         24    2    5    5    0    0  0.17131241104E+02 -0.43138530864E+02  0.14663602510E+03  0.17362097477E+03  0.80546301930E+02 0.  0.
          5    1    5    5  501    0  0.15658765349E+03 -0.44227113365E+02  0.16216260071E+03  0.22977060267E+03  0.47000000000E+01 0. -1.
        -13    1    6    6    0    0  0.41100876405E+02 -0.11720704897E+02  0.11598783190E+03  0.12361162613E+03  0.00000000000E+00 0.  1.
         14    1    6    6    0    0 -0.23969635302E+02 -0.31417825967E+02  0.30648193201E+02  0.50009348640E+02  0.00000000000E+00 0. -1.
         -5    1    3    3    0  503 -0.64060274453E+02  0.87640573251E+02 -0.25345951987E+03  0.27576875649E+03  0.47000000000E+01 0.  1.
         13    1    4    4    0    0  0.97348236994E+01 -0.14218267954E+02 -0.16427643087E+02  0.23807423075E+02  0.00000000000E+00 0. -1.
        -14    1    4    4    0    0 -0.11939344384E+03  0.13943338931E+02 -0.12994431989E+03  0.17701620662E+03  0.00000000000E+00 0.  1.
</event>
<event>
12    1  0.8453150E-002  0.2406913E+03  0.7818608E-02  0.1119390E+00
         21   -1    0    0  501  502  0.00000000000E+00  0.00000000000E+00  0.18929909742E+03  0.18929909742E+03  0.00000000000E+00 0. -1.
         21   -1    0    0  502  503 -0.00000000000E+00 -0.00000000000E+00 -0.47463806380E+03  0.47463806380E+03  0.00000000000E+00 0.  1.
         -6    2    1    2    0  503  0.16635587905E+03  0.28753990013E+02  0.55508616634E+02  0.24667301686E+03  0.17107103872E+03 0.  0.
        -24    2    3    3    0    0  0.78067078894E+02 -0.28352198378E+02  0.77766455035E+02  0.13909267313E+03  0.80005213771E+02 0.  0.
          6    2    1    2  501    0 -0.16635587905E+03 -0.28753990013E+02 -0.34084758302E+03  0.41726414437E+03  0.17155529981E+03 0.  0.
         24    2    5    5    0    0 -0.16065798018E+03 -0.72110550579E+02 -0.30217111476E+03  0.35869609342E+03  0.79652914166E+02 0.  0.
          5    1    5    5  501    0 -0.56978988645E+01  0.43356560566E+02 -0.38676468255E+02  0.58568050952E+02  0.47000000000E+01 0. -1.
        -11    1    6    6    0    0 -0.33021192136E+02 -0.47662488970E+02 -0.13521368190E+03  0.14712189422E+03  0.00000000000E+00 0.  1.
         12    1    6    6    0    0 -0.12763678805E+03 -0.24448061609E+02 -0.16695743286E+03  0.21157419920E+03  0.00000000000E+00 0. -1.
         -5    1    3    3    0  503  0.88288800154E+02  0.57106188392E+02 -0.22257838401E+02  0.10758034372E+03  0.47000000000E+01 0.  1.
         13    1    4    4    0    0  0.71138840618E+02 -0.78991037321E+01  0.89432537779E+02  0.11454828370E+03  0.00000000000E+00 0. -1.
        -14    1    4    4    0    0  0.69282382768E+01 -0.20453094646E+02 -0.11666082744E+02  0.24544389437E+02  0.00000000000E+00 0.  1.
</event>
<event>
12    1  0.8453150E-002  0.2118909E+03  0.7818608E-02  0.1140130E+00
         21   -1    0    0  501  502  0.00000000000E+00  0.00000000000E+00  0.10315073846E+03  0.10315073846E+03  0.00000000000E+00 0.  1.
         21   -1    0    0  502  503 -0.00000000000E+00 -0.00000000000E+00 -0.52065033429E+03  0.52065033429E+03  0.00000000000E+00 0. -1.
         -6    2    1    2    0  503  0.69793829932E+02  0.10179728055E+03 -0.33535798139E+03  0.39654570086E+03  0.17190012265E+03 0.  0.
        -24    2    3    3    0    0  0.92279026469E+02  0.12710966523E+03 -0.29233437225E+03  0.34159643495E+03  0.80971930002E+02 0.  0.
          6    2    1    2  501    0 -0.69793829932E+02 -0.10179728055E+03 -0.82141614432E+02  0.22725537189E+03  0.17223209401E+03 0.  0.
         24    2    5    5    0    0 -0.61212378065E+00 -0.11479629775E+03 -0.45889124830E+02  0.14793692563E+03  0.81246276942E+02 0.  0.
          5    1    5    5  501    0 -0.69181706152E+02  0.12999017191E+02 -0.36252489602E+02  0.79318446255E+02  0.47000000000E+01 0. -1.
        -11    1    6    6    0    0  0.17747400311E+02  0.41523163845E+01  0.21371640576E+01  0.18351550871E+02  0.00000000000E+00 0.  1.
         12    1    6    6    0    0 -0.18359524092E+02 -0.11894861413E+03 -0.48026288888E+02  0.12958537476E+03  0.00000000000E+00 0. -1.
         -5    1    3    3    0  503 -0.22485196537E+02 -0.25312384676E+02 -0.43023609139E+02  0.54949265915E+02  0.47000000000E+01 0.  1.
         11    1    4    4    0    0  0.55343226346E+02  0.10674947053E+03 -0.14513499748E+03  0.18847410871E+03  0.00000000000E+00 0. -1.
        -12    1    4    4    0    0  0.36935800124E+02  0.20360194698E+02 -0.14719937477E+03  0.15312232623E+03  0.00000000000E+00 0.  1.
</event>
<event>
12    1  0.8453150E-002  0.2239751E+03  0.7818608E-02  0.1131096E+00
         21   -1    0    0  501  502  0.00000000000E+00  0.00000000000E+00  0.19222381762E+04  0.19222381762E+04  0.00000000000E+00 0. -1.
         21   -1    0    0  502  503 -0.00000000000E+00 -0.00000000000E+00 -0.51928968285E+02  0.51928968285E+02  0.00000000000E+00 0.  1.
         -6    2    1    2    0  503  0.76671725834E+02  0.12220864727E+03  0.23856088285E+03  0.32722488745E+03  0.17132228439E+03 0.  0.
        -24    2    3    3    0    0  0.39144583878E+02  0.10743638461E+03  0.24858328020E+03  0.28540330718E+03  0.81157411062E+02 0.  0.
          6    2    1    2  501    0 -0.76671725834E+02 -0.12220864727E+03  0.16317483250E+04  0.16469422570E+04  0.17030177527E+03 0.  0.
         24    2    5    5    0    0 -0.87056922738E+02 -0.14550746378E+03  0.12145661965E+04  0.12289545711E+04  0.80043503454E+02 0.  0.
          5    1    5    5  501    0  0.10385196904E+02  0.23298816511E+02  0.41718212854E+03  0.41798768587E+03  0.47000000000E+01 0. -1.
        -11    1    6    6    0    0 -0.38858600578E+02 -0.10015370372E+03  0.50451259267E+03  0.51582333349E+03  0.00000000000E+00 0.  1.
         12    1    6    6    0    0 -0.48198322161E+02 -0.45353760059E+02  0.71005360382E+03  0.71313123765E+03  0.00000000000E+00 0. -1.
         -5    1    3    3    0  503  0.37527141956E+02  0.14772262660E+02 -0.10022397347E+02  0.41821580267E+02  0.47000000000E+01 0.  1.
         13    1    4    4    0    0  0.13248470096E+02 -0.11302355513E+02  0.19982102774E+02  0.26505652818E+02  0.00000000000E+00 0. -1.
        -14    1    4    4    0    0  0.25896113783E+02  0.11873874012E+03  0.22860117742E+03  0.25889765436E+03  0.00000000000E+00 0.  1.
</event>
<event>
12    1  0.8453150E-002  0.1887762E+03  0.7818608E-02  0.1160090E+00
         21   -1    0    0  501  502  0.00000000000E+00  0.00000000000E+00  0.85574358971E+03  0.85574358971E+03  0.00000000000E+00 0.  1.
         21   -1    0    0  502  503 -0.00000000000E+00 -0.00000000000E+00 -0.41218963332E+02  0.41218963332E+02  0.00000000000E+00 0.  1.
         -6    2    1    2    0  503  0.49093701419E+02  0.43944588605E+02  0.42888961406E+03  0.46859657142E+03  0.17690428856E+03 0.  0.
        -24    2    3    3    0    0 -0.34094729970E+02  0.11366404284E+02  0.12842647065E+03  0.15509721933E+03  0.79184236581E+02 0.  0.
          6    2    1    2  501    0 -0.49093701419E+02 -0.43944588605E+02  0.38563501232E+03  0.42836598162E+03  0.17447559457E+03 0.  0.
         24    2    5    5    0    0 -0.81279422483E+02 -0.72161651425E+02  0.22657029677E+03  0.26357582109E+03  0.79526508992E+02 0.  0.
          5    1    5    5  501    0  0.32185721064E+02  0.28217062819E+02  0.15906471555E+03  0.16479016053E+03  0.47000000000E+01 0. -1.
        -13    1    6    6    0    0 -0.46094503470E+02  0.82730708326E+01  0.82368846970E+02  0.94751115573E+02  0.00000000000E+00 0.  1.
         14    1    6    6    0    0 -0.35184919013E+02 -0.80434722257E+02  0.14420144980E+03  0.16882470552E+03  0.00000000000E+00 0. -1.
         -5    1    3    3    0  503  0.83188431389E+02  0.32578184321E+02  0.30046314340E+03  0.31349935208E+03  0.47000000000E+01 0.  1.
         13    1    4    4    0    0  0.10894395184E+02 -0.26003864297E+02  0.47737307548E+02  0.55441314349E+02  0.00000000000E+00 0. -1.
        -14    1    4    4    0    0 -0.44989125154E+02  0.37370268581E+02  0.80689163105E+02  0.99655904986E+02  0.00000000000E+00 0.  1.
</event>
<event>
12    1  0.8453150E-002  0.2864935E+03  0.7818608E-02  0.1092399E+00
         21   -1    0    0  503  502  0.00000000000E+00  0.00000000000E+00  0.48114960649E+03  0.48114960649E+03  0.00000000000E+00 0. -1.
         21   -1    0    0  501  503 -0.00000000000E+00 -0.00000000000E+00 -0.22574168591E+03  0.22574168591E+03  0.00000000000E+00 0. -1.
          6    2    1    2  501    0 -0.15858823545E+03 -0.16273761671E+03 -0.48701199922E+02  0.28908644885E+03  0.17194594418E+03 0.  0.
         24    2    3    3    0    0 -0.12159589045E+03 -0.74438754373E+02 -0.88267308808E+02  0.18539127224E+03  0.79070331309E+02 0.  0.
         -6    2    1    2    0  502  0.15858823545E+03  0.16273761671E+03  0.30410912050E+03  0.41780484355E+03  0.17448429674E+03 0.  0.
        -24    2    5    5    0    0  0.67521691722E+02  0.13312363519E+03  0.11425852932E+03  0.20511859515E+03  0.82082552685E+02 0.  0.
          5    1    3    3  501    0 -0.36992344999E+02 -0.88298862342E+02  0.39566108886E+02  0.10369517661E+03  0.47000000000E+01 0. -1.
        -13    1    4    4    0    0 -0.43555802625E+02 -0.13050365707E+02  0.90501121442E+01  0.46360807988E+02  0.00000000000E+00 0.  1.
         14    1    4    4    0    0 -0.78040087823E+02 -0.61388388666E+02 -0.97317420952E+02  0.13903046426E+03  0.00000000000E+00 0. -1.
         -5    1    5    5    0  502  0.91066543726E+02  0.29613981529E+02  0.18985059119E+03  0.21268624841E+03  0.47000000000E+01 0.  1.
         11    1    6    6    0    0  0.76980754421E+02  0.79362251142E+02  0.99073663166E+02  0.14845872891E+03  0.00000000000E+00 0. -1.
        -12    1    6    6    0    0 -0.94590626992E+01  0.53761384044E+02  0.15184866149E+02  0.56659866232E+02  0.00000000000E+00 0.  1.
</event>
<event>
12    1  0.8453150E-002  0.2398431E+03  0.7818608E-02  0.1120145E+00
         21   -1    0    0  501  502  0.00000000000E+00  0.00000000000E+00  0.40843946482E+03  0.40843946482E+03  0.00000000000E+00 0.  1.
         21   -1    0    0  502  503 -0.00000000000E+00 -0.00000000000E+00 -0.13997498982E+03  0.13997498982E+03  0.00000000000E+00 0. -1.
         -6    2    1    2    0  503 -0.89916497665E+02  0.14110916432E+03  0.13262604389E+03  0.27277553189E+03  0.16976469148E+03 0.  0.
        -24    2    3    3    0    0 -0.11983826148E+03  0.14743736619E+03  0.12559875830E+03  0.24104493417E+03  0.78921646837E+02 0.  0.
          6    2    1    2  501    0  0.89916497665E+02 -0.14110916432E+03  0.13583843111E+03  0.27563892274E+03  0.17183702615E+03 0.  0.
         24    2    5    5    0    0  0.11877869188E+03 -0.12516964991E+03  0.68278279428E+02  0.20031589525E+03  0.75423574218E+02 0.  0.
          5    1    5    5  501    0 -0.28862194211E+02 -0.15939514413E+02  0.67560151686E+02  0.75323027490E+02  0.47000000000E+01 0. -1.
        -11    1    6    6    0    0  0.48682134762E+02 -0.22804796309E+02  0.52691906178E+02  0.75275799274E+02  0.00000000000E+00 0.  1.
         12    1    6    6    0    0  0.70096557114E+02 -0.10236485360E+03  0.15586373250E+02  0.12504009598E+03  0.00000000000E+00 0. -1.
         -5    1    3    3    0  503  0.29921763815E+02 -0.63282018721E+01  0.70272855869E+01  0.31730597717E+02  0.47000000000E+01 0.  1.
         13    1    4    4    0    0 -0.64813732954E+02  0.11960049815E+03  0.53508807975E+02  0.14617897136E+03  0.00000000000E+00 0. -1.
        -14    1    4    4    0    0 -0.55024528526E+02  0.27836868038E+02  0.72089950326E+02  0.94865962809E+02  0.00000000000E+00 0.  1.
</event>
<event>
12    1  0.8453150E-002  0.2210760E+03  0.7818608E-02  0.1133191E+00
         21   -1    0    0  501  502  0.00000000000E+00  0.00000000000E+00  0.15617291144E+04  0.15617291144E+04  0.00000000000E+00 0. -1.
         21   -1    0    0  502  503 -0.00000000000E+00 -0.00000000000E+00 -0.36141134285E+02  0.36141134285E+02  0.00000000000E+00 0.  1.
         -6    2    1    2    0  503 -0.63787438601E+02 -0.12202789777E+03  0.46864938541E+03  0.51817647365E+03  0.17295943527E+03 0.  0.
        -24    2    3    3    0    0 -0.10612349974E+03 -0.10999389279E+03  0.41025916497E+03  0.44490528429E+03  0.79166128465E+02 0.  0.
          6    2    1    2  501    0  0.63787438601E+02  0.12202789777E+03  0.10569385947E+04  0.10796937751E+04  0.17222023605E+03 0.  0.
         24    2    5    5    0    0  0.69520256366E+01  0.78340031306E+02  0.90577625028E+03  0.91232879000E+03  0.75681664392E+02 0.  0.
          5    1    5    5  501    0  0.56835412964E+02  0.43687866461E+02  0.15116234445E+03  0.16736498505E+03  0.47000000000E+01 0. -1.
        -11    1    6    6    0    0 -0.20918397891E+02  0.22829286242E+02  0.11432683104E+03  0.11844568366E+03  0.00000000000E+00 0.  1.
         12    1    6    6    0    0  0.27870423528E+02  0.55510745064E+02  0.79144941924E+03  0.79388310634E+03  0.00000000000E+00 0. -1.
         -5    1    3    3    0  503  0.42336061138E+02 -0.12034004975E+02  0.58390220435E+02  0.73271189364E+02  0.47000000000E+01 0.  1.
         11    1    4    4    0    0 -0.44514858754E+02 -0.51892487265E+02  0.28916655227E+03  0.29713918933E+03  0.00000000000E+00 0. -1.
        -12    1    4    4    0    0 -0.61608640984E+02 -0.58101405527E+02  0.12109261270E+03  0.14776609496E+03  0.00000000000E+00 0.  1.
</event>
<event>
12    1  0.8453150E-002  0.1842770E+03  0.7818608E-02  0.1165603E+00
         21   -1    0    0  501  502  0.00000000000E+00  0.00000000000E+00  0.25422944260E+03  0.25422944260E+03  0.00000000000E+00 0.  1.
         21   -1    0    0  502  503 -0.00000000000E+00 -0.00000000000E+00 -0.24922261501E+03  0.24922261501E+03  0.00000000000E+00 0. -1.
         -6    2    1    2    0  503  0.69025835913E+01  0.61868749732E+02 -0.17302974837E+03  0.25277917529E+03  0.17344344838E+03 0.  0.
        -24    2    3    3    0    0 -0.14869392218E+02 -0.25945146155E+02 -0.41630000808E+02  0.93175657469E+02  0.77810004136E+02 0.  0.
          6    2    1    2  501    0 -0.69025835913E+01 -0.61868749732E+02  0.17803657596E+03  0.25067288233E+03  0.16511960424E+03 0.  0.
         24    2    5    5    0    0 -0.11771752021E+02  0.23332937500E+02  0.49580988169E+02  0.96381066792E+02  0.78409409704E+02 0.  0.
          5    1    5    5  501    0  0.48691684298E+01 -0.85201687231E+02  0.12845558779E+03  0.15429181554E+03  0.47000000000E+01 0. -1.
        -13    1    6    6    0    0  0.27217562139E+02 -0.93626111498E+01  0.30764233073E+02  0.42129469649E+02  0.00000000000E+00 0.  1.
         14    1    6    6    0    0 -0.38989314160E+02  0.32695548649E+02  0.18816755097E+02  0.54251597143E+02  0.00000000000E+00 0. -1.
         -5    1    3    3    0  503  0.21771975809E+02  0.87813895887E+02 -0.13139974756E+03  0.15960351782E+03  0.47000000000E+01 0.  1.
         11    1    4    4    0    0 -0.30787875131E+02 -0.47211694096E+02 -0.32635035695E+02  0.65129738748E+02  0.00000000000E+00 0. -1.
        -12    1    4    4    0    0  0.15918482913E+02  0.21266547941E+02 -0.89949651134E+01  0.28045918722E+02  0.00000000000E+00 0.  1.
</event>
<event>
12    1  0.8453150E-002  0.1815833E+03  0.7818608E-02  0.1166730E+00
         21   -1    0    0  501  502  0.00000000000E+00  0.00000000000E+00  0.25361141610E+03  0.25361141610E+03  0.00000000000E+00 0.  1.
         21   -1    0    0  502  503 -0.00000000000E+00 -0.00000000000E+00 -0.13249194652E+03  0.13249194652E+03  0.00000000000E+00 0.  1.
         -6    2    1    2    0  503  0.26296185377E+02  0.50870182938E+02  0.28091062440E+02  0.18374325977E+03  0.17231718673E+03 0.  0.
        -24    2    3    3    0    0 -0.49188774304E+01 -0.27930882993E+02 -0.18513780991E+02  0.86902722962E+02  0.80031203863E+02 0.  0.
          6    2    1    2  501    0 -0.26296185377E+02 -0.50870182938E+02  0.93028407134E+02  0.20236010285E+03  0.17034101624E+03 0.  0.
         24    2    5    5    0    0 -0.11733600580E+02 -0.97032376176E+02  0.67321991020E+02  0.14735167813E+03  0.87334455773E+02 0.  0.
          5    1    5    5  501    0 -0.14562584796E+02  0.46162193238E+02  0.25706416114E+02  0.55008424718E+02  0.47000000000E+01 0. -1.
        -11    1    6    6    0    0  0.26259010354E+02 -0.72156534810E+02  0.67048018751E+02  0.10193889326E+03  0.00000000000E+00 0.  1.
         12    1    6    6    0    0 -0.37992610934E+02 -0.24875841366E+02  0.27397226900E+00  0.45412784875E+02  0.00000000000E+00 0. -1.
         -5    1    3    3    0  503  0.31215062807E+02  0.78801065931E+02  0.46604843431E+02  0.96840536807E+02  0.47000000000E+01 0.  1.
         11    1    4    4    0    0  0.32051247558E+02 -0.34602285651E+02 -0.75321962734E+01  0.47763318802E+02  0.00000000000E+00 0. -1.
        -12    1    4    4    0    0 -0.36970124989E+02  0.66714026581E+01 -0.10981584717E+02  0.39139404160E+02  0.00000000000E+00 0.  1.
</event>
<event>
12    1  0.8453150E-002  0.1787946E+03  0.7818608E-02  0.1169229E+00
         21   -1    0    0  503  502  0.00000000000E+00  0.00000000000E+00  0.40794602700E+03  0.40794602700E+03  0.00000000000E+00 0. -1.
         21   -1    0    0  501  503 -0.00000000000E+00 -0.00000000000E+00 -0.11036409862E+03  0.11036409862E+03  0.00000000000E+00 0. -1.
          6    2    1    2  501    0 -0.22569443356E+02 -0.37726924422E+02  0.28902428265E+03  0.33931089282E+03  0.17223282331E+03 0.  0.
         24    2    3    3    0    0  0.24624714019E+02  0.23648264124E+02  0.79145412208E+02  0.11555783135E+03  0.76967520265E+02 0.  0.
         -6    2    1    2    0  502  0.22569443356E+02  0.37726924422E+02  0.85576457294E+01  0.17899923280E+03  0.17330548590E+03 0.  0.
        -24    2    5    5    0    0 -0.27144499319E+02 -0.35999088006E+01 -0.39447744475E+02  0.98339510952E+02  0.85818131438E+02 0.  0.
          5    1    3    3  501    0 -0.47194157375E+02 -0.61375188545E+02  0.20987887044E+03  0.22375306147E+03  0.47000000000E+01 0. -1.
        -11    1    4    4    0    0  0.40651580058E+02 -0.12500038497E+02  0.53841186047E+02  0.68612500600E+02  0.00000000000E+00 0.  1.
         12    1    4    4    0    0 -0.16026866039E+02  0.36148302621E+02  0.25304226161E+02  0.46945330748E+02  0.00000000000E+00 0. -1.
         -5    1    5    5    0  502  0.49713942676E+02  0.41326833222E+02  0.48005390204E+02  0.80659721852E+02  0.47000000000E+01 0.  1.
         11    1    6    6    0    0 -0.12852632133E+02 -0.26340961012E+02  0.18368086865E+02  0.34589347997E+02  0.00000000000E+00 0. -1.
        -12    1    6    6    0    0 -0.14291867187E+02  0.22741052211E+02 -0.57815831340E+02  0.63750162956E+02  0.00000000000E+00 0.  1.
</event>
<event>
12    1  0.8453150E-002  0.2054164E+03  0.7818608E-02  0.1145599E+00
         21   -1    0    0  503  502  0.00000000000E+00  0.00000000000E+00  0.21552998002E+04  0.21552998002E+04  0.00000000000E+00 0. -1.
         21   -1    0    0  501  503 -0.00000000000E+00 -0.00000000000E+00 -0.22921209434E+02  0.22921209434E+02  0.00000000000E+00 0. -1.
          6    2    1    2  501    0 -0.86970241966E+02 -0.69524105696E+02  0.63642358490E+03  0.66822853033E+03  0.17057832530E+03 0.  0.
         24    2    3    3    0    0 -0.73609800638E+01 -0.89430541767E+00  0.41869219875E+03  0.42640890627E+03  0.80414017659E+02 0.  0.
         -6    2    1    2    0  502  0.86970241966E+02  0.69524105696E+02  0.14959550059E+04  0.15099924793E+04  0.17262237322E+03 0.  0.
        -24    2    5    5    0    0  0.26178377518E+02  0.78436849539E+02  0.12870458039E+04  0.12921846915E+04  0.80104485937E+02 0.  0.
          5    1    3    3  501    0 -0.79609261903E+02 -0.68629800278E+02  0.21773138615E+03  0.24181962406E+03  0.47000000000E+01 0. -1.
        -13    1    4    4    0    0  0.22742791970E+02 -0.16254861524E+02  0.60731463931E+02  0.66856307264E+02  0.00000000000E+00 0.  1.
         14    1    4    4    0    0 -0.30103772033E+02  0.15360556106E+02  0.35796073482E+03  0.35955259900E+03  0.00000000000E+00 0. -1.
         -5    1    5    5    0  502  0.60791864448E+02 -0.89127438433E+01  0.20890920196E+03  0.21780778785E+03  0.47000000000E+01 0.  1.
         11    1    6    6    0    0  0.30449084440E+02  0.10041014477E+01  0.60059948166E+03  0.60137167570E+03  0.00000000000E+00 0. -1.
        -12    1    6    6    0    0 -0.42707069224E+01  0.77432748091E+02  0.68644632225E+03  0.69081301576E+03  0.00000000000E+00 0.  1.
</event>
<event>
12    1  0.8453150E-002  0.2215308E+03  0.7818608E-02  0.1133817E+00
         21   -1    0    0  501  502  0.00000000000E+00  0.00000000000E+00  0.54771131942E+02  0.54771131942E+02  0.00000000000E+00 0.  1.
         21   -1    0    0  502  503 -0.00000000000E+00 -0.00000000000E+00 -0.11491374948E+04  0.11491374948E+04  0.00000000000E+00 0. -1.
         -6    2    1    2    0  503  0.91146849091E+02 -0.91901191520E+02 -0.84764133242E+03  0.87611170691E+03  0.17978408562E+03 0.  0.
        -24    2    3    3    0    0  0.13160092562E+03 -0.66139192896E+02 -0.53053837292E+03  0.55536789978E+03  0.72590237019E+02 0.  0.
          6    2    1    2  501    0 -0.91146849091E+02  0.91901191520E+02 -0.24672503041E+03  0.32779691981E+03  0.17269627357E+03 0.  0.
         24    2    5    5    0    0 -0.87713768204E+02  0.51725582177E+02 -0.25653469971E+03  0.28603347596E+03  0.75072339966E+02 0.  0.
          5    1    5    5  501    0 -0.34330808871E+01  0.40175609342E+02  0.98096693058E+01  0.41763443851E+02  0.47000000000E+01 0. -1.
        -13    1    6    6    0    0 -0.42491314547E+02  0.71173585548E+01 -0.34808564805E+02  0.55387767499E+02  0.00000000000E+00 0.  1.
         14    1    6    6    0    0 -0.45222453657E+02  0.44608223623E+02 -0.22172613491E+03  0.23064570846E+03  0.00000000000E+00 0. -1.
         -5    1    3    3    0  503 -0.40454076526E+02 -0.25761998623E+02 -0.31710295951E+03  0.32074380713E+03  0.47000000000E+01 0.  1.
         13    1    4    4    0    0  0.12910387645E+03 -0.78325148646E+02 -0.50238974561E+03  0.52459326752E+03  0.00000000000E+00 0. -1.
        -14    1    4    4    0    0  0.24970491677E+01  0.12185955749E+02 -0.28148627301E+02  0.30774632264E+02  0.00000000000E+00 0.  1.
</event>
<event>
12    1  0.8453150E-002  0.3750935E+03  0.7818608E-02  0.1052812E+00
         21   -1    0    0  503  502  0.00000000000E+00  0.00000000000E+00  0.24558336469E+03  0.24558336469E+03  0.00000000000E+00 0.  1.
         21   -1    0    0  501  503 -0.00000000000E+00 -0.00000000000E+00 -0.70247051853E+03  0.70247051853E+03  0.00000000000E+00 0. -1.
          6    2    1    2  501    0  0.15589665219E+03 -0.29406640871E+03 -0.43252885147E+03  0.57217032962E+03  0.17181053473E+03 0.  0.
         24    2    3    3    0    0  0.52269407508E+02 -0.22201145293E+03 -0.33247564771E+03  0.41103915301E+03  0.79949689139E+02 0.  0.
         -6    2    1    2    0  502 -0.15589665219E+03  0.29406640871E+03 -0.24358302373E+02  0.37588355360E+03  0.17296329112E+03 0.  0.
        -24    2    5    5    0    0 -0.77895459440E+02  0.25059492176E+03  0.21240730964E+02  0.27550766960E+03  0.81165201542E+02 0.  0.
          5    1    3    3  501    0  0.10362724468E+03 -0.72054955779E+02 -0.10005320376E+03  0.16113117661E+03  0.47000000000E+01 0. -1.
        -11    1    4    4    0    0  0.64846240827E+01 -0.10515601259E+03 -0.21361374510E+03  0.23818200904E+03  0.00000000000E+00 0.  1.
         12    1    4    4    0    0  0.45784783425E+02 -0.11685544034E+03 -0.11886190260E+03  0.17285714397E+03  0.00000000000E+00 0. -1.
         -5    1    5    5    0  502 -0.78001192748E+02  0.43471486950E+02 -0.45599033337E+02  0.10037588400E+03  0.47000000000E+01 0.  1.
         13    1    6    6    0    0 -0.10233438238E+02  0.38616554950E+02  0.34237405927E+02  0.52613320927E+02  0.00000000000E+00 0. -1.
        -14    1    6    6    0    0 -0.67662021203E+02  0.21197836681E+03 -0.12996674963E+02  0.22289434867E+03  0.00000000000E+00 0.  1.
</event>
<event>
12    1  0.8453150E-002  0.2232896E+03  0.7818608E-02  0.1132393E+00
         21   -1    0    0  501  502  0.00000000000E+00  0.00000000000E+00  0.23938406171E+03  0.23938406171E+03  0.00000000000E+00 0.  1.
         21   -1    0    0  502  503 -0.00000000000E+00 -0.00000000000E+00 -0.27641138386E+03  0.27641138386E+03  0.00000000000E+00 0.  1.
         -6    2    1    2    0  503 -0.12341986961E+03  0.63192872685E+02 -0.15105437302E+03  0.26958425451E+03  0.17502126527E+03 0.  0.
        -24    2    3    3    0    0 -0.11634183380E+03  0.68968755596E+02 -0.18004476976E+03  0.23882726315E+03  0.79562748611E+02 0.  0.
          6    2    1    2  501    0  0.12341986961E+03 -0.63192872685E+02  0.11402705087E+03  0.24621119107E+03  0.16849919556E+03 0.  0.
         24    2    5    5    0    0  0.13098081553E+03 -0.93437732651E+02  0.75568033226E+02  0.19648086334E+03  0.83711517098E+02 0.  0.
          5    1    5    5  501    0 -0.75609459159E+01  0.30244859967E+02  0.38459017642E+02  0.49730327724E+02  0.47000000000E+01 0. -1.
        -13    1    6    6    0    0  0.83059602153E+02 -0.10748578259E+02  0.50024793048E+02  0.97554648089E+02  0.00000000000E+00 0.  1.
         14    1    6    6    0    0  0.47921213374E+02 -0.82689154393E+02  0.25543240179E+02  0.98926215253E+02  0.00000000000E+00 0. -1.
         -5    1    3    3    0  503 -0.70780358076E+01 -0.57758829109E+01  0.28990396738E+02  0.30756991357E+02  0.47000000000E+01 0.  1.
         13    1    4    4    0    0 -0.40736101722E+02  0.49895329708E+02 -0.13295643367E+03  0.14773756179E+03  0.00000000000E+00 0. -1.
        -14    1    4    4    0    0 -0.75605732081E+02  0.19073425888E+02 -0.47088336094E+02  0.91089701365E+02  0.00000000000E+00 0.  1.
</event>
<event>
12    1  0.8453150E-002  0.1987950E+03  0.7818608E-02  0.1150788E+00
         21   -1    0    0  501  502  0.00000000000E+00  0.00000000000E+00  0.36994477019E+03  0.36994477019E+03  0.00000000000E+00 0.  1.
         21   -1    0    0  502  503 -0.00000000000E+00 -0.00000000000E+00 -0.44091860109E+03  0.44091860109E+03  0.00000000000E+00 0.  1.
         -6    2    1    2    0  503 -0.98641979044E+02  0.85843904910E+01 -0.38843885042E+03  0.43629227239E+03  0.17222739227E+03 0.  0.
        -24    2    3    3    0    0 -0.92225809729E+02 -0.20832734623E+02 -0.13619203672E+03  0.18221142011E+03  0.75585236253E+02 0.  0.
          6    2    1    2  501    0  0.98641979044E+02 -0.85843904910E+01  0.31746501953E+03  0.37457109889E+03  0.17238195297E+03 0.  0.
         24    2    5    5    0    0  0.17832814207E+02 -0.59749088800E+02  0.13303725092E+03  0.16676436342E+03  0.78889035344E+02 0.  0.
          5    1    5    5  501    0  0.80809164836E+02  0.51164698309E+02  0.18442776860E+03  0.20780673547E+03  0.47000000000E+01 0. -1.
        -11    1    6    6    0    0 -0.16921745959E+02  0.62894419595E+01  0.58773084176E+02  0.61483152082E+02  0.00000000000E+00 0.  1.
         12    1    6    6    0    0  0.34754560167E+02 -0.66038530759E+02  0.74264166747E+02  0.10528121133E+03  0.00000000000E+00 0. -1.
         -5    1    3    3    0  503 -0.64161693148E+01  0.29417125114E+02 -0.25224681369E+03  0.25408085228E+03  0.47000000000E+01 0.  1.
         11    1    4    4    0    0 -0.36350068698E+02 -0.14522927038E+02 -0.49816256737E+01  0.39459593237E+02  0.00000000000E+00 0. -1.
        -12    1    4    4    0    0 -0.55875741031E+02 -0.63098075850E+01 -0.13121041105E+03  0.14275182687E+03  0.00000000000E+00 0.  1.
</event>
<event>
12    1  0.8453150E-002  0.2208701E+03  0.7818608E-02  0.1133521E+00
         21   -1    0    0  501  502  0.00000000000E+00  0.00000000000E+00  0.26541664118E+03  0.26541664118E+03  0.00000000000E+00 0. -1.
         21   -1    0    0  502  503 -0.00000000000E+00 -0.00000000000E+00 -0.19333845465E+03  0.19333845465E+03  0.00000000000E+00 0.  1.
         -6    2    1    2    0  503 -0.82536391408E+02 -0.10765801071E+03 -0.18316850771E+02  0.22010291563E+03  0.17235800900E+03 0.  0.
        -24    2    3    3    0    0 -0.91477633079E+02 -0.11714946831E+03  0.28101970937E+02  0.17165881817E+03  0.81147235357E+02 0.  0.
          6    2    1    2  501    0  0.82536391408E+02  0.10765801071E+03  0.90395037301E+02  0.23865218020E+03  0.17430174172E+03 0.  0.
         24    2    5    5    0    0  0.11714789612E+03  0.93970385566E+02  0.39814154047E+02  0.17567739881E+03  0.81995845389E+02 0.  0.
          5    1    5    5  501    0 -0.34611504712E+02  0.13687625149E+02  0.50580883253E+02  0.62974781392E+02  0.47000000000E+01 0. -1.
        -11    1    6    6    0    0  0.25743552320E+02  0.27374599085E+02 -0.25185228151E+02  0.45237096261E+02  0.00000000000E+00 0.  1.
         12    1    6    6    0    0  0.91404343800E+02  0.66595786481E+02  0.64999382199E+02  0.13044030255E+03  0.00000000000E+00 0. -1.
         -5    1    3    3    0  503  0.89412416718E+01  0.94914575903E+01 -0.46418821708E+02  0.48444097459E+02  0.47000000000E+01 0.  1.
         11    1    4    4    0    0 -0.30364988881E+02 -0.32052979162E-01  0.25303617806E+02  0.39526024986E+02  0.00000000000E+00 0. -1.
        -12    1    4    4    0    0 -0.61112644199E+02 -0.11711741533E+03  0.27983531309E+01  0.13213279318E+03  0.00000000000E+00 0.  1.
</event>
<event>
12    1  0.8453150E-002  0.1875074E+03  0.7818608E-02  0.1160769E+00
         21   -1    0    0  503  502  0.00000000000E+00  0.00000000000E+00  0.81149740773E+03  0.81149740773E+03  0.00000000000E+00 0.  1.
         21   -1    0    0  501  503 -0.00000000000E+00 -0.00000000000E+00 -0.48588233874E+02  0.48588233874E+02  0.00000000000E+00 0.  1.
          6    2    1    2  501    0  0.51020142643E+01  0.78300079519E+02  0.23923520835E+03  0.30385416615E+03  0.17010860169E+03 0.  0.
         24    2    3    3    0    0 -0.90166479897E+01 -0.99211161169E+01  0.55609055507E+02  0.99592153059E+02  0.81526078101E+02 0.  0.
         -6    2    1    2    0  502 -0.51020142643E+01 -0.78300079519E+02  0.52367396551E+03  0.55623147546E+03  0.17030002683E+03 0.  0.
        -24    2    5    5    0    0 -0.64711020098E+02 -0.22163793307E+02  0.32646732014E+03  0.34264995195E+03  0.78417654880E+02 0.  0.
          5    1    3    3  501    0  0.14118662254E+02  0.88221195636E+02  0.18362615284E+03  0.20426201309E+03  0.47000000000E+01 0. -1.
        -13    1    4    4    0    0 -0.32502620274E+02  0.22073952331E+02  0.42296440189E+02  0.57729269429E+02  0.00000000000E+00 0.  1.
         14    1    4    4    0    0  0.23485972284E+02 -0.31995068448E+02  0.13312615318E+02  0.41862883629E+02  0.00000000000E+00 0. -1.
         -5    1    5    5    0  502  0.59609005833E+02 -0.56136286212E+02  0.19720664537E+03  0.21358152351E+03  0.47000000000E+01 0.  1.
         13    1    6    6    0    0 -0.67822573602E+02  0.34723924643E+01  0.15466776471E+03  0.16892032572E+03  0.00000000000E+00 0. -1.
        -14    1    6    6    0    0  0.31115535042E+01 -0.25636185771E+02  0.17179955543E+03  0.17372962623E+03  0.00000000000E+00 0.  1.
</event>
<event>
12    1  0.8453150E-002  0.2066268E+03  0.7818608E-02  0.1144829E+00
         21   -1    0    0  503  502  0.00000000000E+00  0.00000000000E+00  0.16644965061E+04  0.16644965061E+04  0.00000000000E+00 0.  1.
         21   -1    0    0  501  503 -0.00000000000E+00 -0.00000000000E+00 -0.38164558166E+02  0.38164558166E+02  0.00000000000E+00 0.  1.
          6    2    1    2  501    0  0.60881637157E+02  0.96205271961E+02  0.31541287545E+03  0.37555765551E+03  0.16910423564E+03 0.  0.
         24    2    3    3    0    0 -0.24689801823E+02  0.67454677807E+02  0.22320541699E+03  0.24643223884E+03  0.75818667186E+02 0.  0.
         -6    2    1    2    0  502 -0.60881637157E+02 -0.96205271961E+02  0.13109190724E+04  0.13271034087E+04  0.17243147870E+03 0.  0.
        -24    2    5    5    0    0 -0.75171430316E+02 -0.36217508888E+00  0.70718039158E+03  0.71561949056E+03  0.79726243600E+02 0.  0.
          5    1    3    3  501    0  0.85571438980E+02  0.28750594154E+02  0.92207458463E+02  0.12912541667E+03  0.47000000000E+01 0. -1.
        -13    1    4    4    0    0 -0.21580992013E+01  0.78151445403E+02  0.18456838545E+03  0.20044399397E+03  0.00000000000E+00 0.  1.
         14    1    4    4    0    0 -0.22531702622E+02 -0.10696767596E+02  0.38637031536E+02  0.45988244867E+02  0.00000000000E+00 0. -1.
         -5    1    5    5    0  502  0.14289793158E+02 -0.95843096872E+02  0.60373868086E+03  0.61148391816E+03  0.47000000000E+01 0.  1.
         11    1    6    6    0    0 -0.44985023554E+02  0.18107249183E+02  0.15738248533E+03  0.16468385320E+03  0.00000000000E+00 0. -1.
        -12    1    6    6    0    0 -0.30186406762E+02 -0.18469424272E+02  0.54979790625E+03  0.55093563735E+03  0.00000000000E+00 0.  1.
</event>
<event>
12    1  0.8453150E-002  0.3008360E+03  0.7818608E-02  0.1085059E+00
         21   -1    0    0  501  502  0.00000000000E+00  0.00000000000E+00  0.34135897593E+03  0.34135897593E+03  0.00000000000E+00 0. -1.
         21   -1    0    0  502  503 -0.00000000000E+00 -0.00000000000E+00 -0.26494101976E+03  0.26494101976E+03  0.00000000000E+00 0.  1.
         -6    2    1    2    0  503 -0.24602216539E+03  0.20834872214E+02  0.15678210236E+02  0.30124427033E+03  0.17187584580E+03 0.  0.
        -24    2    3    3    0    0 -0.56505483016E+02  0.95286784236E+01 -0.59421484655E+02  0.97022682131E+02  0.50978649315E+02 0.  0.
          6    2    1    2  501    0  0.24602216539E+03 -0.20834872214E+02  0.60739745930E+02  0.30505572536E+03  0.16854874986E+03 0.  0.
         24    2    5    5    0    0  0.46919730581E+02  0.10671862846E+02  0.54451780920E+02  0.10332302498E+03  0.73452714524E+02 0.  0.
          5    1    5    5  501    0  0.19910243481E+03 -0.31506735060E+02  0.62879650097E+01  0.20173270038E+03  0.47000000000E+01 0. -1.
        -13    1    6    6    0    0  0.46956941536E+02  0.15497227942E+02  0.79993346968E+00  0.49454608742E+02  0.00000000000E+00 0.  1.
         14    1    6    6    0    0 -0.37210954590E-01 -0.48253650961E+01  0.53651847451E+02  0.53868416236E+02  0.00000000000E+00 0. -1.
         -5    1    3    3    0  503 -0.18951668237E+03  0.11306193790E+02  0.75099694890E+02  0.20422158820E+03  0.47000000000E+01 0.  1.
         13    1    4    4    0    0  0.50996369309E+01 -0.10450598888E+02 -0.60923747538E+01  0.13127769959E+02  0.00000000000E+00 0. -1.
        -14    1    4    4    0    0 -0.61605119947E+02  0.19979277312E+02 -0.53329109901E+02  0.83894912172E+02  0.00000000000E+00 0.  1.
</event>
<event>
12    1  0.8453150E-002  0.2495510E+03  0.7818608E-02  0.1113599E+00
         21   -1    0    0  501  502  0.00000000000E+00  0.00000000000E+00  0.20165050153E+03  0.20165050153E+03  0.00000000000E+00 0. -1.
         21   -1    0    0  502  503 -0.00000000000E+00 -0.00000000000E+00 -0.42426047461E+03  0.42426047461E+03  0.00000000000E+00 0.  1.
         -6    2    1    2    0  503  0.64435974346E+02 -0.16864466455E+03 -0.27459261491E+03  0.37100338849E+03  0.17218998936E+03 0.  0.
        -24    2    3    3    0    0  0.54028062165E+02 -0.94449008261E+02 -0.25996879758E+03  0.29452289371E+03  0.85558825038E+02 0.  0.
          6    2    1    2  501    0 -0.64435974346E+02  0.16864466455E+03  0.51982641836E+02  0.25490758765E+03  0.17228657962E+03 0.  0.
         24    2    5    5    0    0  0.28767390337E+02  0.11250429077E+03  0.26918232619E+02  0.14315373596E+03  0.79269304815E+02 0.  0.
          5    1    5    5  501    0 -0.93203364683E+02  0.56140373782E+02  0.25064409217E+02  0.11175385168E+03  0.47000000000E+01 0. -1.
        -11    1    6    6    0    0  0.32275073649E+02  0.66845434113E+02 -0.20727876263E+02  0.77069042391E+02  0.00000000000E+00 0.  1.
         12    1    6    6    0    0 -0.35076833118E+01  0.45658856653E+02  0.47646108882E+02  0.66084693574E+02  0.00000000000E+00 0. -1.
         -5    1    3    3    0  503  0.10407912180E+02 -0.74195656287E+02 -0.14623817330E+02  0.76480494775E+02  0.47000000000E+01 0.  1.
         13    1    4    4    0    0  0.31927169066E+00  0.12658989063E+02 -0.66660889604E+01  0.14310439564E+02  0.00000000000E+00 0. -1.
        -14    1    4    4    0    0  0.53708790475E+02 -0.10710799732E+03 -0.25330270862E+03  0.28021245415E+03  0.00000000000E+00 0.  1.
</event>
<event>
12    1  0.8453150E-002  0.1903437E+03  0.7818608E-02  0.1159375E+00
         21   -1    0    0  501  502  0.00000000000E+00  0.00000000000E+00  0.58002885146E+02  0.58002885146E+02  0.00000000000E+00 0. -1.
         21   -1    0    0  502  503 -0.00000000000E+00 -0.00000000000E+00 -0.69920399090E+03  0.69920399090E+03  0.00000000000E+00 0. -1.
         -6    2    1    2    0  503  0.67032847116E+02  0.14219574747E+02 -0.46190848830E+03  0.49959002622E+03  0.17758137243E+03 0.  0.
        -24    2    3    3    0    0 -0.28261813123E+02 -0.19392266000E+02 -0.24348677442E+03  0.25888073432E+03  0.80985401321E+02 0.  0.
          6    2    1    2  501    0 -0.67032847116E+02 -0.14219574747E+02 -0.17929261745E+03  0.25761684983E+03  0.17182840203E+03 0.  0.
         24    2    5    5    0    0 -0.10147501301E+03 -0.15425807544E+02 -0.18033065045E+03  0.22281907257E+03  0.81203828765E+02 0.  0.
          5    1    5    5  501    0  0.34442165898E+02  0.12062327969E+01  0.10380329969E+01  0.34797777254E+02  0.47000000000E+01 0. -1.
        -11    1    6    6    0    0 -0.64544748232E+02  0.36431167731E+01 -0.38992361447E+02  0.75496364649E+02  0.00000000000E+00 0.  1.
         12    1    6    6    0    0 -0.36930264782E+02 -0.19068924317E+02 -0.14133828900E+03  0.14732270792E+03  0.00000000000E+00 0. -1.
         -5    1    3    3    0  503  0.95294660239E+02  0.33611840747E+02 -0.21842171388E+03  0.24070929189E+03  0.47000000000E+01 0.  1.
         11    1    4    4    0    0 -0.23019021846E+02  0.16428212644E+02 -0.26045706888E+02  0.38446591328E+02  0.00000000000E+00 0. -1.
        -12    1    4    4    0    0 -0.52427912766E+01 -0.35820478644E+02 -0.21744106753E+03  0.22043414300E+03  0.00000000000E+00 0.  1.
</event>
<event>
12    1  0.8453150E-002  0.2142647E+03  0.7818608E-02  0.1138745E+00
         21   -1    0    0  503  502  0.00000000000E+00  0.00000000000E+00  0.17031177526E+03  0.17031177526E+03  0.00000000000E+00 0.  1.
         21   -1    0    0  501  503 -0.00000000000E+00 -0.00000000000E+00 -0.26634024539E+03  0.26634024539E+03  0.00000000000E+00 0.  1.
          6    2    1    2  501    0 -0.86648331301E+02 -0.90003743460E+02 -0.52275013844E+02  0.22054940970E+03  0.17407112883E+03 0.  0.
         24    2    3    3    0    0 -0.11261959182E+03 -0.11091143611E+03 -0.27171742376E+02  0.17855057373E+03  0.78469641727E+02 0.  0.
         -6    2    1    2    0  502  0.86648331301E+02  0.90003743460E+02 -0.43753456282E+02  0.21610261094E+03  0.17081383541E+03 0.  0.
        -24    2    5    5    0    0  0.90950309574E+02  0.11744342497E+03 -0.65455194877E+02  0.18054282191E+03  0.79034240204E+02 0.  0.
          5    1    3    3  501    0  0.25971260520E+02  0.20907692648E+02 -0.25103271468E+02  0.41998835975E+02  0.47000000000E+01 0. -1.
        -11    1    4    4    0    0 -0.32884616159E+02 -0.48150815424E+01  0.18692298487E+02  0.38131155411E+02  0.00000000000E+00 0.  1.
         12    1    4    4    0    0 -0.79734975662E+02 -0.10609635457E+03 -0.45864040863E+02  0.14041941832E+03  0.00000000000E+00 0. -1.
         -5    1    5    5    0  502 -0.43019782735E+01 -0.27439681511E+02  0.21701738594E+02  0.35559789039E+02  0.47000000000E+01 0.  1.
         11    1    6    6    0    0  0.45988402047E+02  0.85191047888E+02 -0.26615876983E+01  0.96847983006E+02  0.00000000000E+00 0. -1.
        -12    1    6    6    0    0  0.44961907527E+02  0.32252377082E+02 -0.62793607178E+02  0.83694838899E+02  0.00000000000E+00 0.  1.
</event>
<event>
12    1  0.8453150E-002  0.1766605E+03  0.7818608E-02  0.1171119E+00
         21   -1    0    0  503  502  0.00000000000E+00  0.00000000000E+00  0.10087210408E+04  0.10087210408E+04  0.00000000000E+00 0. -1.
         21   -1    0    0  501  503 -0.00000000000E+00 -0.00000000000E+00 -0.37553761151E+02  0.37553761151E+02  0.00000000000E+00 0. -1.
          6    2    1    2  501    0  0.35223086934E+02  0.56959708016E+01  0.70545422229E+03  0.72719429147E+03  0.17283740297E+03 0.  0.
         24    2    3    3    0    0  0.30526570323E+01  0.69845196343E+02  0.37979214939E+03  0.39368576771E+03  0.76542385580E+02 0.  0.
         -6    2    1    2    0  502 -0.35223086934E+02 -0.56959708016E+01  0.26571305731E+03  0.31908051043E+03  0.17301974851E+03 0.  0.
        -24    2    5    5    0    0 -0.92945176566E+01  0.56670582780E+02  0.10281703313E+03  0.14267449464E+03  0.80540214241E+02 0.  0.
          5    1    3    3  501    0  0.32170429901E+02 -0.64149225541E+02  0.32566207290E+03  0.33350852377E+03  0.47000000000E+01 0. -1.
        -11    1    4    4    0    0  0.23218678414E+02 -0.41936799913E+01  0.13820216493E+03  0.14020175594E+03  0.00000000000E+00 0.  1.
         12    1    4    4    0    0 -0.20166021382E+02  0.74038876334E+02  0.24158998446E+03  0.25348401176E+03  0.00000000000E+00 0. -1.
         -5    1    5    5    0  502 -0.25928569277E+02 -0.62366553582E+02  0.16289602418E+03  0.17640601578E+03  0.47000000000E+01 0.  1.
         13    1    6    6    0    0  0.19677557180E+02 -0.39283110290E+01  0.24556040108E+00  0.20067341230E+02  0.00000000000E+00 0. -1.
        -14    1    6    6    0    0 -0.28972074837E+02  0.60598893809E+02  0.10257147273E+03  0.12260715341E+03  0.00000000000E+00 0.  1.
</event>
<event>
12    1  0.8453150E-002  0.1813547E+03  0.7818608E-02  0.1166548E+00
         21   -1    0    0  503  502  0.00000000000E+00  0.00000000000E+00  0.10462128951E+04  0.10462128951E+04  0.00000000000E+00 0.  1.
         21   -1    0    0  501  503 -0.00000000000E+00 -0.00000000000E+00 -0.64974332355E+02  0.64974332355E+02  0.00000000000E+00 0.  1.
          6    2    1    2  501    0 -0.40239649500E+02  0.41288774449E+02  0.91376521170E+02  0.20307432676E+03  0.17194627440E+03 0.  0.
         24    2    3    3    0    0 -0.67353443235E+02  0.67167757597E+02  0.30027042679E+02  0.13102761906E+03  0.84962460465E+02 0.  0.
         -6    2    1    2    0  502  0.40239649500E+02 -0.41288774449E+02  0.88986204153E+03  0.90811290064E+03  0.17172825941E+03 0.  0.
        -24    2    5    5    0    0  0.93004055876E+02 -0.21994113345E+02  0.64622083370E+03  0.65803392376E+03  0.79207218636E+02 0.  0.
          5    1    3    3  501    0  0.27113793735E+02 -0.25878983149E+02  0.61349478491E+02  0.72046707702E+02  0.47000000000E+01 0. -1.
        -11    1    4    4    0    0 -0.53002138339E+02 -0.56652100262E+01  0.12094475315E+02  0.54658920647E+02  0.00000000000E+00 0.  1.
         12    1    4    4    0    0 -0.14351304896E+02  0.72832967624E+02  0.17932567364E+02  0.76368698413E+02  0.00000000000E+00 0. -1.
         -5    1    5    5    0  502 -0.52764406375E+02 -0.19294661103E+02  0.24364120782E+03  0.25007897688E+03  0.47000000000E+01 0.  1.
         11    1    6    6    0    0  0.59001291583E+02  0.86058014317E+01  0.18096935297E+03  0.19053902210E+03  0.00000000000E+00 0. -1.
        -12    1    6    6    0    0  0.34002764293E+02 -0.30599914777E+02  0.46525148073E+03  0.46749490167E+03  0.00000000000E+00 0.  1.
</event>
<event>
12    1  0.8453150E-002  0.2085505E+03  0.7818608E-02  0.1143016E+00
         21   -1    0    0  501  502  0.00000000000E+00  0.00000000000E+00  0.39319933271E+03  0.39319933271E+03  0.00000000000E+00 0.  1.
         21   -1    0    0  502  503 -0.00000000000E+00 -0.00000000000E+00 -0.16031488644E+03  0.16031488644E+03  0.00000000000E+00 0.  1.
         -6    2    1    2    0  503 -0.12165387734E+02 -0.11634340242E+03 -0.38579498989E+02  0.21208884200E+03  0.17265432289E+03 0.  0.
        -24    2    3    3    0    0  0.41636455059E+01 -0.64515554204E+02  0.44558224161E+02  0.11265678385E+03  0.80786898245E+02 0.  0.
          6    2    1    2  501    0  0.12165387734E+02  0.11634340242E+03  0.27146394526E+03  0.34142537715E+03  0.17086494855E+03 0.  0.
         24    2    5    5    0    0 -0.11317175450E+02  0.13194852316E+03  0.14439837878E+03  0.21118445136E+03  0.78800313950E+02 0.  0.
          5    1    5    5  501    0  0.23482563184E+02 -0.15605120736E+02  0.12706556647E+03  0.13024092579E+03  0.47000000000E+01 0. -1.
        -11    1    6    6    0    0  0.10882285112E+02  0.75552290399E+02  0.12692137721E+03  0.14810674767E+03  0.00000000000E+00 0.  1.
         12    1    6    6    0    0 -0.22199460562E+02  0.56396232760E+02  0.17477001574E+02  0.63077703690E+02  0.00000000000E+00 0. -1.
         -5    1    3    3    0  503 -0.16329033240E+02 -0.51827848218E+02 -0.83137723149E+02  0.99432058150E+02  0.47000000000E+01 0.  1.
         13    1    4    4    0    0  0.40814072614E+02 -0.26345558930E+02  0.32305847491E+02  0.58339907275E+02  0.00000000000E+00 0. -1.
        -14    1    4    4    0    0 -0.36650427108E+02 -0.38169995274E+02  0.12252376669E+02  0.54316876572E+02  0.00000000000E+00 0.  1.
</event>
<event>
12    1  0.8453150E-002  0.2030158E+03  0.7818608E-02  0.1147774E+00
         21   -1    0    0  501  502  0.00000000000E+00  0.00000000000E+00  0.13348133286E+04  0.13348133286E+04  0.00000000000E+00 0. -1.
         21   -1    0    0  502  503 -0.00000000000E+00 -0.00000000000E+00 -0.46170829481E+02  0.46170829481E+02  0.00000000000E+00 0. -1.
         -6    2    1    2    0  503  0.64923022330E+02  0.86233927664E+02  0.24452096013E+03  0.31781426458E+03  0.17194219295E+03 0.  0.
        -24    2    3    3    0    0  0.16931849463E+02  0.82077157460E+02  0.69438548365E+02  0.13616522847E+03  0.81828541115E+02 0.  0.
          6    2    1    2  501    0 -0.64923022330E+02 -0.86233927664E+02  0.10441215390E+04  0.10631698935E+04  0.16878727784E+03 0.  0.
         24    2    5    5    0    0 -0.78359933394E+02 -0.50033942738E+01  0.71940476234E+03  0.72814448376E+03  0.80534862267E+02 0.  0.
          5    1    5    5  501    0  0.13436911064E+02 -0.81230533390E+02  0.32471677663E+03  0.33502540972E+03  0.47000000000E+01 0. -1.
        -13    1    6    6    0    0 -0.42005733314E+02  0.26472286893E+02  0.18389398889E+03  0.19047903495E+03  0.00000000000E+00 0.  1.
         14    1    6    6    0    0 -0.36354200081E+02 -0.31475681167E+02  0.53551077345E+03  0.53766544882E+03  0.00000000000E+00 0. -1.
         -5    1    3    3    0  503  0.47991172867E+02  0.41567702036E+01  0.17508241176E+03  0.18164903611E+03  0.47000000000E+01 0.  1.
         11    1    4    4    0    0  0.19850281906E+02  0.97525186952E+02  0.67655607333E+02  0.12034316343E+03  0.00000000000E+00 0. -1.
        -12    1    4    4    0    0 -0.29184324431E+01 -0.15448029492E+02  0.17829410317E+01  0.15822065031E+02  0.00000000000E+00 0.  1.
</event>
<event>
12    1  0.8453150E-002  0.1808305E+03  0.7818608E-02  0.1167031E+00
         21   -1    0    0  501  502  0.00000000000E+00  0.00000000000E+00  0.22689858149E+03  0.22689858149E+03  0.00000000000E+00 0. -1.
         21   -1    0    0  502  503 -0.00000000000E+00 -0.00000000000E+00 -0.32294725358E+03  0.32294725358E+03  0.00000000000E+00 0.  1.
         -6    2    1    2    0  503 -0.42492683300E+02  0.43697932740E+02 -0.25266990009E+03  0.31071169646E+03  0.17024847267E+03 0.  0.
        -24    2    3    3    0    0  0.14583038872E+02  0.15570968752E+02 -0.47214586216E+02  0.95577458917E+02  0.80316333401E+02 0.  0.
          6    2    1    2  501    0  0.42492683300E+02 -0.43697932740E+02  0.15662122800E+03  0.23913413861E+03  0.17011698836E+03 0.  0.
         24    2    5    5    0    0 -0.14583873894E+02  0.19635963264E+02  0.88316087846E+02  0.12978790897E+03  0.91907069978E+02 0.  0.
          5    1    5    5  501    0  0.57076557194E+02 -0.63333896004E+02  0.68305140158E+02  0.10934622964E+03  0.47000000000E+01 0. -1.
        -11    1    6    6    0    0 -0.48048638743E+02 -0.31942793730E+01  0.70865821212E+02  0.85678700514E+02  0.00000000000E+00 0.  1.
         12    1    6    6    0    0  0.33464764848E+02  0.22830242637E+02  0.17450266634E+02  0.44109208458E+02  0.00000000000E+00 0. -1.
         -5    1    3    3    0  503 -0.57075722172E+02  0.28126963988E+02 -0.20545531387E+03  0.21513423754E+03  0.47000000000E+01 0.  1.
         11    1    4    4    0    0 -0.58962262257E+01  0.40605500762E+02 -0.48097673185E+02  0.63221502209E+02  0.00000000000E+00 0. -1.
        -12    1    4    4    0    0  0.20479265098E+02 -0.25034532010E+02  0.88308696890E+00  0.32355956708E+02  0.00000000000E+00 0.  1.
</event>
<event>
12    1  0.8453150E-002  0.1874220E+03  0.7818608E-02  0.1164713E+00
         21   -1    0    0  503  502  0.00000000000E+00  0.00000000000E+00  0.15559243240E+03  0.15559243240E+03  0.00000000000E+00 0.  1.
         21   -1    0    0  501  503 -0.00000000000E+00 -0.00000000000E+00 -0.22691887468E+03  0.22691887468E+03  0.00000000000E+00 0.  1.
          6    2    1    2  501    0  0.10278059691E+02  0.90764633916E+01 -0.91292075819E+02  0.19402881226E+03  0.17066023608E+03 0.  0.
         24    2    3    3    0    0  0.43195989416E+02 -0.28165356722E+02 -0.10572360068E+03  0.14205860760E+03  0.79649152094E+02 0.  0.
         -6    2    1    2    0  502 -0.10278059691E+02 -0.90764633916E+01  0.19965633544E+02  0.18848249483E+03  0.18691977861E+03 0.  0.
        -24    2    5    5    0    0  0.59890161315E+02  0.14961647515E+02 -0.24884054340E+02  0.10167814863E+03  0.76867076369E+02 0.  0.
          5    1    3    3  501    0 -0.32917929724E+02  0.37241820113E+02  0.14431524865E+02  0.51970204662E+02  0.47000000000E+01 0. -1.
        -11    1    4    4    0    0  0.26927250856E+02 -0.56232428259E+02 -0.72548322527E+02  0.95657837776E+02  0.00000000000E+00 0.  1.
         12    1    4    4    0    0  0.16268738560E+02  0.28067071537E+02 -0.33175278157E+02  0.46400769819E+02  0.00000000000E+00 0. -1.
         -5    1    5    5    0  502 -0.70168221007E+02 -0.24038110907E+02  0.44849687884E+02  0.86804346196E+02  0.47000000000E+01 0.  1.
         13    1    6    6    0    0  0.15237174735E+02  0.33221458252E+02 -0.36926325265E+02  0.51955656860E+02  0.00000000000E+00 0. -1.
        -14    1    6    6    0    0  0.44652986581E+02 -0.18259810737E+02  0.12042270924E+02  0.49722491769E+02  0.00000000000E+00 0.  1.
</event>
<event>
12    1  0.8453150E-002  0.3295505E+03  0.7818608E-02  0.1071337E+00
         21   -1    0    0  501  502  0.00000000000E+00  0.00000000000E+00  0.25676364839E+03  0.25676364839E+03  0.00000000000E+00 0.  1.
         21   -1    0    0  502  503 -0.00000000000E+00 -0.00000000000E+00 -0.42472115961E+03  0.42472115961E+03  0.00000000000E+00 0.  1.
         -6    2    1    2    0  503  0.24252038320E+03  0.14256652646E+03 -0.10594217558E+03  0.34616078796E+03  0.17164555287E+03 0.  0.
        -24    2    3    3    0    0  0.85501729141E+02  0.11740934451E+03 -0.81391003806E+02  0.18518690324E+03  0.81081402099E+02 0.  0.
          6    2    1    2  501    0 -0.24252038320E+03 -0.14256652646E+03 -0.62015335639E+02  0.33532402003E+03  0.17162443247E+03 0.  0.
         24    2    5    5    0    0 -0.25270769492E+03 -0.12878779172E+03 -0.29194190436E+02  0.29800174219E+03  0.86632922301E+02 0.  0.
          5    1    5    5  501    0  0.10187311715E+02 -0.13778734748E+02 -0.32821145203E+02  0.37322277847E+02  0.47000000000E+01 0. -1.
        -11    1    6    6    0    0 -0.21818586433E+03 -0.11369088511E+03 -0.55293513483E+02  0.25216673330E+03  0.00000000000E+00 0.  1.
         12    1    6    6    0    0 -0.34521830584E+02 -0.15096906607E+02  0.26099323047E+02  0.45835008885E+02  0.00000000000E+00 0. -1.
         -5    1    3    3    0  503  0.15701865406E+03  0.25157181950E+02 -0.24551171776E+02  0.16097388472E+03  0.47000000000E+01 0.  1.
         13    1    4    4    0    0  0.66411842410E+02  0.91177012537E+02 -0.18343234017E+02  0.11428147121E+03  0.00000000000E+00 0. -1.
        -14    1    4    4    0    0  0.19089886731E+02  0.26232331977E+02 -0.63047769789E+02  0.70905432033E+02  0.00000000000E+00 0.  1.
</event>
<event>
12    1  0.8453150E-002  0.2256224E+03  0.7818608E-02  0.1130021E+00
         21   -1    0    0  501  502  0.00000000000E+00  0.00000000000E+00  0.15532586081E+03  0.15532586081E+03  0.00000000000E+00 0. -1.
         21   -1    0    0  502  503 -0.00000000000E+00 -0.00000000000E+00 -0.53195916000E+03  0.53195916000E+03  0.00000000000E+00 0.  1.
         -6    2    1    2    0  503  0.87001216412E+02  0.11626038486E+03 -0.40269833895E+03  0.46159657541E+03  0.17268398155E+03 0.  0.
        -24    2    3    3    0    0  0.11502954589E+03  0.77257508788E+02 -0.37188942953E+03  0.40434196428E+03  0.77396105791E+02 0.  0.
          6    2    1    2  501    0 -0.87001216412E+02 -0.11626038486E+03  0.26065039767E+02  0.22568844540E+03  0.17079285507E+03 0.  0.
         24    2    5    5    0    0 -0.10677088251E+03 -0.48528102494E+02  0.14894651553E+01  0.15082489860E+03  0.94820532834E+02 0.  0.
          5    1    5    5  501    0  0.19769666097E+02 -0.67732282367E+02  0.24575574612E+02  0.74863546801E+02  0.47000000000E+01 0. -1.
        -11    1    6    6    0    0 -0.28913286705E+02 -0.30687022609E+02 -0.42308027256E+02  0.59729730244E+02  0.00000000000E+00 0.  1.
         12    1    6    6    0    0 -0.77857595803E+02 -0.17841079886E+02  0.43797492412E+02  0.91095168353E+02  0.00000000000E+00 0. -1.
         -5    1    3    3    0  503 -0.28028329473E+02  0.39002876073E+02 -0.30808909423E+02  0.57254611124E+02  0.47000000000E+01 0.  1.
         13    1    4    4    0    0  0.18262554180E+02  0.22678395259E+02 -0.19982935023E+02  0.35314985330E+02  0.00000000000E+00 0. -1.
        -14    1    4    4    0    0  0.96766991705E+02  0.54579113528E+02 -0.35190649451E+03  0.36902697895E+03  0.00000000000E+00 0.  1.
</event>
<event>
12    1  0.8453150E-002  0.2335127E+03  0.7818608E-02  0.1124210E+00
         21   -1    0    0  501  502  0.00000000000E+00  0.00000000000E+00  0.18868274250E+04  0.18868274250E+04  0.00000000000E+00 0.  1.
         21   -1    0    0  502  503 -0.00000000000E+00 -0.00000000000E+00 -0.95922947998E+02  0.95922947998E+02  0.00000000000E+00 0. -1.
         -6    2    1    2    0  503  0.12832066127E+03 -0.90240314916E+02  0.66744879761E+02  0.24286430196E+03  0.17297018138E+03 0.  0.
        -24    2    3    3    0    0  0.12857834274E+03 -0.11778541786E+03  0.84531549335E+02  0.20973946670E+03  0.80245038335E+02 0.  0.
          6    2    1    2  501    0 -0.12832066127E+03  0.90240314916E+02  0.17241595972E+04  0.17398860710E+04  0.17282279043E+03 0.  0.
         24    2    5    5    0    0 -0.15839278646E+03  0.96692246042E+02  0.14561284439E+04  0.14700551068E+04  0.79462610692E+02 0.  0.
          5    1    5    5  501    0  0.30072125184E+02 -0.64519311268E+01  0.26803115329E+03  0.26983096424E+03  0.47000000000E+01 0. -1.
        -13    1    6    6    0    0 -0.98355463384E+02  0.79885412407E+02  0.11897318464E+04  0.11964603390E+04  0.00000000000E+00 0.  1.
         14    1    6    6    0    0 -0.60037323073E+02  0.16806833635E+02  0.26639659750E+03  0.27359476782E+03  0.00000000000E+00 0. -1.
         -5    1    3    3    0  503 -0.25768146541E+00  0.27545102949E+02 -0.17786669574E+02  0.33124835256E+02  0.47000000000E+01 0.  1.
         13    1    4    4    0    0  0.13655741961E+02 -0.49294696027E+02  0.50091944372E+02  0.71593639633E+02  0.00000000000E+00 0. -1.
        -14    1    4    4    0    0  0.11492260078E+03 -0.68490721837E+02  0.34439604963E+02  0.13814582707E+03  0.00000000000E+00 0.  1.
</event>
<event>
12    1  0.8453150E-002  0.1996776E+03  0.7818608E-02  0.1150820E+00
         21   -1    0    0  501  502  0.00000000000E+00  0.00000000000E+00  0.21960558860E+03  0.21960558860E+03  0.00000000000E+00 0.  1.
         21   -1    0    0  502  503 -0.00000000000E+00 -0.00000000000E+00 -0.20153743188E+03  0.20153743188E+03  0.00000000000E+00 0.  1.
         -6    2    1    2    0  503 -0.84364891911E+02 -0.43638348942E+02 -0.62645947220E+02  0.20927409661E+03  0.17563995082E+03 0.  0.
        -24    2    3    3    0    0 -0.14499327858E+02 -0.79243719858E+02 -0.69670526411E+02  0.13040474774E+03  0.75243726233E+02 0.  0.
          6    2    1    2  501    0  0.84364891911E+02  0.43638348942E+02  0.80714103944E+02  0.21186892387E+03  0.17132406090E+03 0.  0.
         24    2    5    5    0    0  0.48577327864E+02  0.25834823893E+02  0.12048467608E+03  0.15528709240E+03  0.81057565899E+02 0.  0.
          5    1    5    5  501    0  0.35787564048E+02  0.17803525050E+02 -0.39770572135E+02  0.56581831471E+02  0.47000000000E+01 0. -1.
        -13    1    6    6    0    0  0.68236085891E+02  0.57811529653E+01  0.72795347977E+02  0.99943723337E+02  0.00000000000E+00 0.  1.
         14    1    6    6    0    0 -0.19658758028E+02  0.20053670927E+02  0.47689328102E+02  0.55343369066E+02  0.00000000000E+00 0. -1.
         -5    1    3    3    0  503 -0.69865564054E+02  0.35605370916E+02  0.70245791912E+01  0.78869348872E+02  0.47000000000E+01 0.  1.
         11    1    4    4    0    0  0.10137952847E+02 -0.32398252198E+02  0.94267206180E+01  0.35231915858E+02  0.00000000000E+00 0. -1.
        -12    1    4    4    0    0 -0.24637280705E+02 -0.46845467660E+02 -0.79097247029E+02  0.95172831882E+02  0.00000000000E+00 0.  1.
</event>
<event>
12    1  0.8453150E-002  0.2847531E+03  0.7818608E-02  0.1093637E+00
         21   -1    0    0  503  502  0.00000000000E+00  0.00000000000E+00  0.28899043036E+02  0.28899043036E+02  0.00000000000E+00 0. -1.
         21   -1    0    0  501  503 -0.00000000000E+00 -0.00000000000E+00 -0.33591625282E+04  0.33591625282E+04  0.00000000000E+00 0.  1.
          6    2    1    2  501    0 -0.19844416717E+02  0.21948398084E+03 -0.23849765738E+04  0.24019153994E+04  0.18032556494E+03 0.  0.
         24    2    3    3    0    0 -0.39682795403E+02  0.86761939741E+02 -0.16581744952E+04  0.16628132055E+04  0.79389807378E+02 0.  0.
         -6    2    1    2    0  502  0.19844416717E+02 -0.21948398084E+03 -0.94528691130E+03  0.98614617182E+03  0.17421225213E+03 0.  0.
        -24    2    5    5    0    0 -0.43481821326E+02 -0.57507290323E+02 -0.32434557009E+03  0.34129200232E+03  0.77989901799E+02 0.  0.
          5    1    3    3  501    0  0.19838378686E+02  0.13272204110E+03 -0.72680207865E+03  0.73910219388E+03  0.47000000000E+01 0. -1.
        -13    1    4    4    0    0 -0.55394394865E+01  0.51149897686E+02 -0.13257264768E+04  0.13267244207E+04  0.00000000000E+00 0.  1.
         14    1    4    4    0    0 -0.34143355917E+02  0.35612042055E+02 -0.33244801842E+03  0.33608878477E+03  0.00000000000E+00 0. -1.
         -5    1    5    5    0  502  0.63326238043E+02 -0.16197669052E+03 -0.62094134121E+03  0.64485416950E+03  0.47000000000E+01 0.  1.
         13    1    6    6    0    0  0.25429234975E+01 -0.23845287680E+02 -0.18800156429E+02  0.30471463474E+02  0.00000000000E+00 0. -1.
        -14    1    6    6    0    0 -0.46024744823E+02 -0.33662002643E+02 -0.30554541366E+03  0.31082053885E+03  0.00000000000E+00 0.  1.
</event>
<event>
12    1  0.8453150E-002  0.1924555E+03  0.7818608E-02  0.1156677E+00
         21   -1    0    0  501  502  0.00000000000E+00  0.00000000000E+00  0.14975659374E+03  0.14975659374E+03  0.00000000000E+00 0.  1.
         21   -1    0    0  502  503 -0.00000000000E+00 -0.00000000000E+00 -0.24537626307E+03  0.24537626307E+03  0.00000000000E+00 0. -1.
         -6    2    1    2    0  503  0.65447212284E+02  0.57381845316E+02 -0.39896469492E+02  0.19654731374E+03  0.17164819980E+03 0.  0.
        -24    2    3    3    0    0  0.11993341730E+02  0.14649819616E+02 -0.82174726064E+02  0.11596888440E+03  0.79609290184E+02 0.  0.
          6    2    1    2  501    0 -0.65447212284E+02 -0.57381845316E+02 -0.55723199839E+02  0.19858554306E+03  0.16957337393E+03 0.  0.
         24    2    5    5    0    0 -0.57204653194E+02 -0.10376334604E+03 -0.27926139457E+02  0.14368608992E+03  0.76332292272E+02 0.  0.
          5    1    5    5  501    0 -0.82425590900E+01  0.46381500722E+02 -0.27797060382E+02  0.54899453144E+02  0.47000000000E+01 0. -1.
        -13    1    6    6    0    0  0.14053095715E+02 -0.39075500311E+02  0.53202595237E+01  0.41865133287E+02  0.00000000000E+00 0.  1.
         14    1    6    6    0    0 -0.71257748909E+02 -0.64687845727E+02 -0.33246398981E+02  0.10182095663E+03  0.00000000000E+00 0. -1.
         -5    1    3    3    0  503  0.53453870554E+02  0.42732025700E+02  0.42278256571E+02  0.80578429349E+02  0.47000000000E+01 0.  1.
         11    1    4    4    0    0  0.70256416795E+01 -0.18654078448E+02  0.66201702037E+01  0.21003831491E+02  0.00000000000E+00 0. -1.
        -12    1    4    4    0    0  0.49677000505E+01  0.33303898065E+02 -0.88794896267E+02  0.94965052905E+02  0.00000000000E+00 0.  1.
</event>
<event>
12    1  0.8453150E-002  0.1847419E+03  0.7818608E-02  0.1164529E+00
         21   -1    0    0  501  502  0.00000000000E+00  0.00000000000E+00  0.14197124532E+03  0.14197124532E+03  0.00000000000E+00 0. -1.
         21   -1    0    0  502  503 -0.00000000000E+00 -0.00000000000E+00 -0.23974359377E+03  0.23974359377E+03  0.00000000000E+00 0. -1.
         -6    2    1    2    0  503 -0.52719163932E+02 -0.70120593231E+01 -0.19172629886E+02  0.18573414875E+03  0.17692118317E+03 0.  0.
        -24    2    3    3    0    0  0.39819594708E+02  0.10769970151E+02 -0.16250461747E+00  0.89489162983E+02  0.79414680657E+02 0.  0.
          6    2    1    2  501    0  0.52719163932E+02  0.70120593231E+01 -0.78599718568E+02  0.19598069034E+03  0.17147021900E+03 0.  0.
         24    2    5    5    0    0  0.90998395841E+02 -0.27966918198E+02 -0.42171986623E+02  0.13243623253E+03  0.81841448370E+02 0.  0.
          5    1    5    5  501    0 -0.38279231909E+02  0.34978977521E+02 -0.36427731945E+02  0.63544457812E+02  0.47000000000E+01 0. -1.
        -11    1    6    6    0    0  0.95624795984E+01 -0.41442978068E+02 -0.19799691906E+02  0.46914701819E+02  0.00000000000E+00 0.  1.
         12    1    6    6    0    0  0.81435916242E+02  0.13476059869E+02 -0.22372294717E+02  0.85521530709E+02  0.00000000000E+00 0. -1.
         -5    1    3    3    0  503 -0.92538758640E+02 -0.17782029474E+02 -0.19010125269E+02  0.96244985768E+02  0.47000000000E+01 0.  1.
         13    1    4    4    0    0  0.17036850828E+02 -0.28585721753E+02  0.20981125976E+02  0.39339616438E+02  0.00000000000E+00 0. -1.
        -14    1    4    4    0    0  0.22782743880E+02  0.39355691904E+02 -0.21143630593E+02  0.50149546545E+02  0.00000000000E+00 0.  1.
</event>
<event>
12    1  0.8453150E-002  0.2602513E+03  0.7818608E-02  0.1107162E+00
         21   -1    0    0  503  502  0.00000000000E+00  0.00000000000E+00  0.67808807782E+03  0.67808807782E+03  0.00000000000E+00 0.  1.
         21   -1    0    0  501  503 -0.00000000000E+00 -0.00000000000E+00 -0.24525218561E+03  0.24525218561E+03  0.00000000000E+00 0. -1.
          6    2    1    2  501    0  0.54057917852E+02 -0.18690694749E+03 -0.13935286741E+03  0.29521173605E+03  0.17284178299E+03 0.  0.
         24    2    3    3    0    0  0.36153111109E+02 -0.17093628350E+03 -0.49414302162E+02  0.20200937701E+03  0.88542389180E+02 0.  0.
         -6    2    1    2    0  502 -0.54057917852E+02  0.18690694749E+03  0.57218875962E+03  0.62812852738E+03  0.17114030727E+03 0.  0.
        -24    2    5    5    0    0 -0.66772655518E+02  0.65994816383E+02  0.38988641895E+03  0.40895361682E+03  0.80110784046E+02 0.  0.
          5    1    3    3  501    0  0.17904806743E+02 -0.15970663987E+02 -0.89938565243E+02  0.93202359041E+02  0.47000000000E+01 0. -1.
        -13    1    4    4    0    0  0.62651106600E+02 -0.89622292981E+02 -0.17577853854E+02  0.11075331825E+03  0.00000000000E+00 0.  1.
         14    1    4    4    0    0 -0.26497995492E+02 -0.81313990522E+02 -0.31836448309E+02  0.91256058761E+02  0.00000000000E+00 0. -1.
         -5    1    5    5    0  502  0.12714737666E+02  0.12091213111E+03  0.18230234067E+03  0.21917491056E+03  0.47000000000E+01 0.  1.
         11    1    6    6    0    0 -0.80163585791E+02  0.66627100199E+02  0.28985851766E+03  0.30803138027E+03  0.00000000000E+00 0. -1.
        -12    1    6    6    0    0  0.13390930274E+02 -0.63228381569E+00  0.10002790128E+03  0.10092223656E+03  0.00000000000E+00 0.  1.
</event>
<event>
12    1  0.8453150E-002  0.2244537E+03  0.7818608E-02  0.1130885E+00
         21   -1    0    0  503  502  0.00000000000E+00  0.00000000000E+00  0.56446274547E+03  0.56446274547E+03  0.00000000000E+00 0.  1.
         21   -1    0    0  501  503 -0.00000000000E+00 -0.00000000000E+00 -0.88731987346E+02  0.88731987346E+02  0.00000000000E+00 0. -1.
          6    2    1    2  501    0 -0.10374498023E+03  0.98482925084E+02  0.22841795513E+03  0.32024085449E+03  0.17296686156E+03 0.  0.
         24    2    3    3    0    0 -0.13250265064E+03  0.38278708555E+02  0.16673385235E+03  0.22925420804E+03  0.75730459074E+02 0.  0.
         -6    2    1    2    0  502  0.10374498023E+03 -0.98482925084E+02  0.24731280299E+03  0.33295387833E+03  0.17097589045E+03 0.  0.
        -24    2    5    5    0    0  0.14680981344E+02 -0.13784914991E+02  0.38170469407E+02  0.90325037281E+02  0.79347794742E+02 0.  0.
          5    1    3    3  501    0  0.28757670404E+02  0.60204216529E+02  0.61684102786E+02  0.90986646446E+02  0.47000000000E+01 0. -1.
        -13    1    4    4    0    0 -0.94820553830E+01  0.32397993822E+02  0.43065617835E+02  0.54719163165E+02  0.00000000000E+00 0.  1.
         14    1    4    4    0    0 -0.12302059526E+03  0.58807147329E+01  0.12366823451E+03  0.17453504488E+03  0.00000000000E+00 0. -1.
         -5    1    5    5    0  502  0.89063998890E+02 -0.84698010093E+02  0.20914233359E+03  0.24262884105E+03  0.47000000000E+01 0.  1.
         13    1    6    6    0    0  0.22149042577E+02 -0.38521799955E+02  0.24811067513E+00  0.44436142022E+02  0.00000000000E+00 0. -1.
        -14    1    6    6    0    0 -0.74680612322E+01  0.24736884964E+02  0.37922358732E+02  0.45888895259E+02  0.00000000000E+00 0.  1.
</event>
<event>
12    1  0.8453150E-002  0.1989862E+03  0.7818608E-02  0.1150741E+00
         21   -1    0    0  501  502  0.00000000000E+00  0.00000000000E+00  0.23896084639E+03  0.23896084639E+03  0.00000000000E+00 0.  1.
         21   -1    0    0  502  503 -0.00000000000E+00 -0.00000000000E+00 -0.28394169348E+03  0.28394169348E+03  0.00000000000E+00 0. -1.
         -6    2    1    2    0  503 -0.91663012079E+02  0.34109025904E+02 -0.19158882428E+03  0.27573985044E+03  0.17251276503E+03 0.  0.
        -24    2    3    3    0    0  0.85596227529E+01 -0.12473710811E+02 -0.43169217179E+02  0.90631780206E+02  0.78241150736E+02 0.  0.
          6    2    1    2  501    0  0.91663012079E+02 -0.34109025904E+02  0.14660797719E+03  0.24716268944E+03  0.17329155387E+03 0.  0.
         24    2    5    5    0    0  0.12708697766E+03 -0.20795884598E+02  0.98720370751E+02  0.18594659744E+03  0.90812206188E+02 0.  0.
          5    1    5    5  501    0 -0.35423965578E+02 -0.13313141306E+02  0.47887606441E+02  0.61216091997E+02  0.47000000000E+01 0. -1.
        -13    1    6    6    0    0  0.64819124108E+02 -0.21533962249E+02  0.10293179936E+03  0.12353212416E+03  0.00000000000E+00 0.  1.
         14    1    6    6    0    0  0.62267853550E+02  0.73807765069E+00 -0.42114286062E+01  0.62414473283E+02  0.00000000000E+00 0. -1.
         -5    1    3    3    0  503 -0.10022263483E+03  0.46582736716E+02 -0.14841960710E+03  0.18510807023E+03  0.47000000000E+01 0.  1.
         13    1    4    4    0    0  0.13497322520E+02 -0.17528264494E+02 -0.64485553920E+02  0.68174807926E+02  0.00000000000E+00 0. -1.
        -14    1    4    4    0    0 -0.49376997674E+01  0.50545536824E+01  0.21316336741E+02  0.22456972280E+02  0.00000000000E+00 0.  1.
</event>
<event>
12    1  0.8453150E-002  0.4680440E+03  0.7818608E-02  0.1022509E+00
         21   -1    0    0  501  502  0.00000000000E+00  0.00000000000E+00  0.28172509356E+03  0.28172509356E+03  0.00000000000E+00 0. -1.
         21   -1    0    0  502  503 -0.00000000000E+00 -0.00000000000E+00 -0.88928056011E+03  0.88928056011E+03  0.00000000000E+00 0.  1.
         -6    2    1    2    0  503 -0.40908355354E+03  0.14864470145E+03 -0.51191455177E+03  0.69328987401E+03  0.17073294951E+03 0.  0.
        -24    2    3    3    0    0 -0.23677683518E+03  0.14366935835E+03 -0.26383152561E+03  0.39116136311E+03  0.81828991683E+02 0.  0.
          6    2    1    2  501    0  0.40908355354E+03 -0.14864470145E+03 -0.95640914773E+02  0.47771577966E+03  0.17210630583E+03 0.  0.
         24    2    5    5    0    0  0.25902099259E+03 -0.73853147919E+02 -0.12459442061E+03  0.30750137316E+03  0.80542925126E+02 0.  0.
          5    1    5    5  501    0  0.15006256095E+03 -0.74791553530E+02  0.28953505838E+02  0.17021440650E+03  0.47000000000E+01 0. -1.
        -13    1    6    6    0    0  0.20569510013E+02 -0.37031368941E+01 -0.39667573930E+02  0.44836752632E+02  0.00000000000E+00 0.  1.
         14    1    6    6    0    0  0.23845148258E+03 -0.70150011025E+02 -0.84926846680E+02  0.26266462053E+03  0.00000000000E+00 0. -1.
         -5    1    3    3    0  503 -0.17230671836E+03  0.49753431011E+01 -0.24808302616E+03  0.30212851090E+03  0.47000000000E+01 0.  1.
         13    1    4    4    0    0 -0.15496806637E+02 -0.79801701901E+01 -0.44030541950E+01  0.17978348602E+02  0.00000000000E+00 0. -1.
        -14    1    4    4    0    0 -0.22128002854E+03  0.15164952854E+03 -0.25942847142E+03  0.37318301451E+03  0.00000000000E+00 0.  1.
</event>
<event>
12    1  0.8453150E-002  0.2011882E+03  0.7818608E-02  0.1148768E+00
         21   -1    0    0  501  502  0.00000000000E+00  0.00000000000E+00  0.21769319452E+03  0.21769319452E+03  0.00000000000E+00 0. -1.
         21   -1    0    0  502  503 -0.00000000000E+00 -0.00000000000E+00 -0.61831431165E+03  0.61831431165E+03  0.00000000000E+00 0. -1.
         -6    2    1    2    0  503 -0.74029712205E+02 -0.73421618929E+02 -0.54988867358E+03  0.58549307177E+03  0.17191117284E+03 0.  0.
        -24    2    3    3    0    0 -0.47463500735E+02  0.89509386525E+01 -0.41450100359E+03  0.42473576083E+03  0.79097922551E+02 0.  0.
          6    2    1    2  501    0  0.74029712205E+02  0.73421618929E+02  0.14926755645E+03  0.25051443441E+03  0.17206262239E+03 0.  0.
         24    2    5    5    0    0 -0.73578651321E+01  0.40467094814E+01  0.18824190286E+02  0.81770908366E+02  0.79130381512E+02 0.  0.
          5    1    5    5  501    0  0.81387577337E+02  0.69374909447E+02  0.13044336616E+03  0.16874352604E+03  0.47000000000E+01 0. -1.
        -13    1    6    6    0    0  0.22131424651E+02 -0.26757177253E+02  0.18016145433E+02  0.39119406794E+02  0.00000000000E+00 0.  1.
         14    1    6    6    0    0 -0.29489289783E+02  0.30803886735E+02  0.80804485209E+00  0.42651501572E+02  0.00000000000E+00 0. -1.
         -5    1    3    3    0  503 -0.26566211469E+02 -0.82372557581E+02 -0.13538766999E+03  0.16075731094E+03  0.47000000000E+01 0.  1.
         11    1    4    4    0    0 -0.60640608240E+02  0.27374961794E+02 -0.25080042859E+03  0.25947548417E+03  0.00000000000E+00 0. -1.
        -12    1    4    4    0    0  0.13177107505E+02 -0.18424023142E+02 -0.16370057499E+03  0.16526027667E+03  0.00000000000E+00 0.  1.
</event>
<event>
12    1  0.8453150E-002  0.1753543E+03  0.7818608E-02  0.1172401E+00
         21   -1    0    0  501  502  0.00000000000E+00  0.00000000000E+00  0.10460703588E+03  0.10460703588E+03  0.00000000000E+00 0.  1.
         21   -1    0    0  502  503 -0.00000000000E+00 -0.00000000000E+00 -0.45607028208E+03  0.45607028208E+03  0.00000000000E+00 0.  1.
         -6    2    1    2    0  503 -0.14054125669E+02 -0.27835547431E+02 -0.34292660642E+03  0.38511533900E+03  0.17246109938E+03 0.  0.
        -24    2    3    3    0    0 -0.57966029249E+02 -0.65184863697E+02 -0.24933706273E+03  0.27509570717E+03  0.76808529801E+02 0.  0.
          6    2    1    2  501    0  0.14054125669E+02  0.27835547431E+02 -0.85366397804E+01  0.17556197896E+03  0.17255954940E+03 0.  0.
         24    2    5    5    0    0  0.57762492421E+02  0.45869059309E+02  0.31961259477E+02  0.11312962582E+03  0.79600967313E+02 0.  0.
          5    1    5    5  501    0 -0.43708366753E+02 -0.18033511878E+02 -0.40497899258E+02  0.62432353145E+02  0.47000000000E+01 0. -1.
        -13    1    6    6    0    0  0.41445548848E+02  0.28272410357E+02  0.58688321948E+02  0.77209985363E+02  0.00000000000E+00 0.  1.
         14    1    6    6    0    0  0.16316943573E+02  0.17596648952E+02 -0.26727062471E+02  0.35919640452E+02  0.00000000000E+00 0. -1.
         -5    1    3    3    0  503  0.43911903581E+02  0.37349316266E+02 -0.93589543686E+02  0.11001963183E+03  0.47000000000E+01 0.  1.
         13    1    4    4    0    0 -0.38520219961E+02  0.29719937368E+01 -0.47813924093E+02  0.61472037787E+02  0.00000000000E+00 0. -1.
        -14    1    4    4    0    0 -0.19445809289E+02 -0.68156857434E+02 -0.20152313864E+03  0.21362366938E+03  0.00000000000E+00 0.  1.
</event>
<event>
12    1  0.8453150E-002  0.1756710E+03  0.7818608E-02  0.1172552E+00
         21   -1    0    0  503  502  0.00000000000E+00  0.00000000000E+00  0.76438609025E+02  0.76438609025E+02  0.00000000000E+00 0. -1.
         21   -1    0    0  501  503 -0.00000000000E+00 -0.00000000000E+00 -0.39972927829E+03  0.39972927829E+03  0.00000000000E+00 0. -1.
          6    2    1    2  501    0 -0.66084561175E+01  0.20780508946E+02 -0.15234379302E+03  0.23104925441E+03  0.17233579271E+03 0.  0.
         24    2    3    3    0    0 -0.30220607963E+02  0.26900808801E+02 -0.17579434719E+03  0.19688772230E+03  0.78893498011E+02 0.  0.
         -6    2    1    2    0  502  0.66084561175E+01 -0.20780508946E+02 -0.17094687624E+03  0.24511863290E+03  0.17431238754E+03 0.  0.
        -24    2    5    5    0    0  0.52475383532E+02  0.15125867014E+02 -0.64255890022E+02  0.12347119393E+03  0.90187907165E+02 0.  0.
          5    1    3    3  501    0  0.23612151846E+02 -0.61202998549E+01  0.23450554177E+02  0.34161532113E+02  0.47000000000E+01 0. -1.
        -13    1    4    4    0    0 -0.48233440823E+02  0.10022662341E+01 -0.14495024832E+03  0.15276794114E+03  0.00000000000E+00 0.  1.
         14    1    4    4    0    0  0.18012832860E+02  0.25898542567E+02 -0.30844098872E+02  0.44119781164E+02  0.00000000000E+00 0. -1.
         -5    1    5    5    0  502 -0.45866927414E+02 -0.35906375961E+02 -0.10669098622E+03  0.12164743896E+03  0.47000000000E+01 0.  1.
         13    1    6    6    0    0 -0.17173009250E+02 -0.19121147204E+02 -0.59053343117E+01  0.26370504174E+02  0.00000000000E+00 0. -1.
        -14    1    6    6    0    0  0.69648392781E+02  0.34247014218E+02 -0.58350555710E+02  0.97100689758E+02  0.00000000000E+00 0.  1.
</event>
<event>
12    1  0.8453150E-002  0.2718562E+03  0.7818608E-02  0.1100227E+00
         21   -1    0    0  503  502  0.00000000000E+00  0.00000000000E+00  0.25018564896E+03  0.25018564896E+03  0.00000000000E+00 0.  1.
         21   -1    0    0  501  503 -0.00000000000E+00 -0.00000000000E+00 -0.39174436796E+03  0.39174436796E+03  0.00000000000E+00 0. -1.
          6    2    1    2  501    0 -0.13784707309E+03  0.15885437151E+03 -0.22998748771E+03  0.35608990894E+03  0.17224764682E+03 0.  0.
         24    2    3    3    0    0 -0.61226726596E+02  0.54401608513E+02 -0.18537021956E+03  0.21899925349E+03  0.83007877152E+02 0.  0.
         -6    2    1    2    0  502  0.13784707309E+03 -0.15885437151E+03  0.88428768720E+02  0.28584010798E+03  0.17218708803E+03 0.  0.
        -24    2    5    5    0    0  0.11507455996E+03 -0.33071206195E+02  0.28789580869E+02  0.14470572252E+03  0.75993730891E+02 0.  0.
          5    1    3    3  501    0 -0.76620346492E+02  0.10445276300E+03 -0.44617268153E+02  0.13709065545E+03  0.47000000000E+01 0. -1.
        -11    1    4    4    0    0  0.13111095019E+01  0.18180936392E+02  0.18430488129E+01  0.18321088536E+02  0.00000000000E+00 0.  1.
         12    1    4    4    0    0 -0.62537836098E+02  0.36220672121E+02 -0.18721326837E+03  0.20067816495E+03  0.00000000000E+00 0. -1.
         -5    1    5    5    0  502  0.22772513125E+02 -0.12578316531E+03  0.59639187851E+02  0.14113438546E+03  0.47000000000E+01 0.  1.
         11    1    6    6    0    0  0.47216290651E+02  0.19051808651E+02 -0.80474038228E+01  0.51547165044E+02  0.00000000000E+00 0. -1.
        -12    1    6    6    0    0  0.67858269311E+02 -0.52123014846E+02  0.36836984691E+02  0.93158557480E+02  0.00000000000E+00 0.  1.
</event>
<event>
12    1  0.8453150E-002  0.2511668E+03  0.7818608E-02  0.1113873E+00
         21   -1    0    0  501  502  0.00000000000E+00  0.00000000000E+00  0.42470513034E+03  0.42470513034E+03  0.00000000000E+00 0.  1.
         21   -1    0    0  502  503 -0.00000000000E+00 -0.00000000000E+00 -0.15524467084E+03  0.15524467084E+03  0.00000000000E+00 0.  1.
         -6    2    1    2    0  503  0.29801332332E+01  0.17391661059E+03  0.53795630465E+02  0.24889678997E+03  0.16970496035E+03 0.  0.
        -24    2    3    3    0    0 -0.10243656884E+02  0.67838811608E+02  0.87500959507E+02  0.13671164270E+03  0.79540043183E+02 0.  0.
          6    2    1    2  501    0 -0.29801332332E+01 -0.17391661059E+03  0.21566482903E+03  0.33105301122E+03  0.18118749714E+03 0.  0.
         24    2    5    5    0    0  0.55472709135E+01 -0.19545116368E+03  0.22218789543E+03  0.30653579290E+03  0.79779708279E+02 0.  0.
          5    1    5    5  501    0 -0.85274041467E+01  0.21534553097E+02 -0.65230664008E+01  0.24517218313E+02  0.47000000000E+01 0. -1.
        -11    1    6    6    0    0  0.20471712297E+00 -0.60628534531E+02  0.12905304973E+03  0.14258524030E+03  0.00000000000E+00 0.  1.
         12    1    6    6    0    0  0.53425537905E+01 -0.13482262915E+03  0.93134845706E+02  0.16395055260E+03  0.00000000000E+00 0. -1.
         -5    1    3    3    0  503  0.13223790117E+02  0.10607779898E+03 -0.33705329042E+02  0.11218514727E+03  0.47000000000E+01 0.  1.
         13    1    4    4    0    0  0.26651838934E+02 -0.10188764532E+01  0.18260610242E+02  0.32323497864E+02  0.00000000000E+00 0. -1.
        -14    1    4    4    0    0 -0.36895495818E+02  0.68857688061E+02  0.69240349265E+02  0.10438814484E+03  0.00000000000E+00 0.  1.
</event>
<event>
12    1  0.8453150E-002  0.1902875E+03  0.7818608E-02  0.1159254E+00
         21   -1    0    0  501  502  0.00000000000E+00  0.00000000000E+00  0.89108466376E+03  0.89108466376E+03  0.00000000000E+00 0. -1.
         21   -1    0    0  502  503 -0.00000000000E+00 -0.00000000000E+00 -0.46586129068E+02  0.46586129068E+02  0.00000000000E+00 0. -1.
         -6    2    1    2    0  503 -0.28077322876E+02 -0.76972986240E+02  0.23703134509E+03  0.30109738281E+03  0.16662112323E+03 0.  0.
        -24    2    3    3    0    0 -0.79016297631E+02 -0.28755299372E+02  0.15465202857E+03  0.19280072420E+03  0.78641126497E+02 0.  0.
          6    2    1    2  501    0  0.28077322876E+02  0.76972986240E+02  0.60746718960E+03  0.63657341002E+03  0.17174441252E+03 0.  0.
         24    2    5    5    0    0  0.44589443090E+02 -0.17293821693E+02  0.26242560021E+03  0.27847472306E+03  0.79960496711E+02 0.  0.
          5    1    5    5  501    0 -0.16512120214E+02  0.94266807933E+02  0.34504158939E+03  0.35809868696E+03  0.47000000000E+01 0. -1.
        -11    1    6    6    0    0  0.16612650216E+02  0.31492231559E+02  0.79727841636E+02  0.87317063210E+02  0.00000000000E+00 0.  1.
         12    1    6    6    0    0  0.27976792875E+02 -0.48786053252E+02  0.18269775857E+03  0.19115765985E+03  0.00000000000E+00 0. -1.
         -5    1    3    3    0  503  0.50938974755E+02 -0.48217686868E+02  0.82379316518E+02  0.10829665861E+03  0.47000000000E+01 0.  1.
         13    1    4    4    0    0 -0.39421530918E+02  0.18111525731E+02  0.26809962824E+02  0.50998613420E+02  0.00000000000E+00 0. -1.
        -14    1    4    4    0    0 -0.39594766713E+02 -0.46866825103E+02  0.12784206575E+03  0.14180211078E+03  0.00000000000E+00 0.  1.
</event>
<event>
12    1  0.8453150E-002  0.1878285E+03  0.7818608E-02  0.1160649E+00
         21   -1    0    0  503  502  0.00000000000E+00  0.00000000000E+00  0.84112930521E+02  0.84112930521E+02  0.00000000000E+00 0.  1.
         21   -1    0    0  501  503 -0.00000000000E+00 -0.00000000000E+00 -0.59900189171E+03  0.59900189171E+03  0.00000000000E+00 0.  1.
          6    2    1    2  501    0 -0.64927677420E+02 -0.39795422403E+02 -0.44598696554E+03  0.48392552949E+03  0.17169818206E+03 0.  0.
         24    2    3    3    0    0 -0.10437853286E+03 -0.58839652137E+02 -0.34692003640E+03  0.37550321108E+03  0.79323181268E+02 0.  0.
         -6    2    1    2    0  502  0.64927677420E+02  0.39795422403E+02 -0.68901995649E+02  0.19918929274E+03  0.17067398864E+03 0.  0.
        -24    2    5    5    0    0 -0.71486883313E+01  0.46406900114E+02 -0.84355778863E+02  0.12502984592E+03  0.79447220337E+02 0.  0.
          5    1    3    3  501    0  0.39450855445E+02  0.19044229734E+02 -0.99066929136E+02  0.10842231841E+03  0.47000000000E+01 0. -1.
        -13    1    4    4    0    0 -0.85628582172E+02 -0.17676093089E+02 -0.15152994625E+03  0.17494577149E+03  0.00000000000E+00 0.  1.
         14    1    4    4    0    0 -0.18749950692E+02 -0.41163559048E+02 -0.19539009015E+03  0.20055743959E+03  0.00000000000E+00 0. -1.
         -5    1    5    5    0  502  0.72076365751E+02 -0.66114777109E+01  0.15453783214E+02  0.74159446823E+02  0.47000000000E+01 0.  1.
         13    1    6    6    0    0  0.35902798107E+02  0.26336682440E+02 -0.45496648249E+02  0.63659851993E+02  0.00000000000E+00 0. -1.
        -14    1    6    6    0    0 -0.43051486439E+02  0.20070217673E+02 -0.38859130614E+02  0.61369993923E+02  0.00000000000E+00 0.  1.
</event>
<event>
12    1  0.8453150E-002  0.2496001E+03  0.7818608E-02  0.1113973E+00
         21   -1    0    0  503  502  0.00000000000E+00  0.00000000000E+00  0.49193177346E+03  0.49193177346E+03  0.00000000000E+00 0.  1.
         21   -1    0    0  501  503 -0.00000000000E+00 -0.00000000000E+00 -0.27932103557E+03  0.27932103557E+03  0.00000000000E+00 0. -1.
          6    2    1    2  501    0 -0.13796390786E+03  0.10875372584E+03 -0.17977453130E+03  0.30760217012E+03  0.17730989877E+03 0.  0.
         24    2    3    3    0    0 -0.12688944884E+02  0.43962580370E+02 -0.11762206323E+03  0.15340512681E+03  0.87203585807E+02 0.  0.
         -6    2    1    2    0  502  0.13796390786E+03 -0.10875372584E+03  0.39238526919E+03  0.46365063890E+03  0.17362114711E+03 0.  0.
        -24    2    5    5    0    0  0.56906028025E+02 -0.11036227874E+03  0.16115342592E+03  0.21857264587E+03  0.79908987256E+02 0.  0.
          5    1    3    3  501    0 -0.12527496298E+03  0.64791145470E+02 -0.62152468077E+02  0.15419704332E+03  0.47000000000E+01 0. -1.
        -11    1    4    4    0    0  0.28346773627E+01 -0.24899219934E+02 -0.48588228009E+02  0.54670123927E+02  0.00000000000E+00 0.  1.
         12    1    4    4    0    0 -0.15523622246E+02  0.68861800304E+02 -0.69033835216E+02  0.98735002878E+02  0.00000000000E+00 0. -1.
         -5    1    5    5    0  502  0.81057879834E+02  0.16085529016E+01  0.23123184327E+03  0.24507799303E+03  0.47000000000E+01 0.  1.
         13    1    6    6    0    0  0.73835233798E+02 -0.78150397876E+02  0.13986844521E+03  0.17641515922E+03  0.00000000000E+00 0. -1.
        -14    1    6    6    0    0 -0.16929205773E+02 -0.32211880865E+02  0.21284980713E+02  0.42157486654E+02  0.00000000000E+00 0.  1.
</event>
<event>
12    1  0.8453150E-002  0.2673787E+03  0.7818608E-02  0.1102941E+00
         21   -1    0    0  503  502  0.00000000000E+00  0.00000000000E+00  0.10434780332E+03  0.10434780332E+03  0.00000000000E+00 0.  1.
         21   -1    0    0  501  503 -0.00000000000E+00 -0.00000000000E+00 -0.95237473271E+03  0.95237473271E+03  0.00000000000E+00 0. -1.
          6    2    1    2  501    0  0.14963726439E+03  0.13868997219E+03 -0.14332087732E+03  0.30336813808E+03  0.17281531774E+03 0.  0.
         24    2    3    3    0    0  0.47869664263E+02  0.13243380197E+03 -0.58832262769E+02  0.17086832642E+03  0.76840960246E+02 0.  0.
         -6    2    1    2    0  502 -0.14963726439E+03 -0.13868997219E+03 -0.70470605207E+03  0.75335439795E+03  0.17118998161E+03 0.  0.
        -24    2    5    5    0    0 -0.85579838909E+01 -0.74498284804E+02 -0.23535238727E+03  0.25904792543E+03  0.78050291144E+02 0.  0.
          5    1    3    3  501    0  0.10176760013E+03  0.62561702284E+01 -0.84488614547E+02  0.13249981166E+03  0.47000000000E+01 0. -1.
        -13    1    4    4    0    0  0.60039682211E+02  0.95373731320E+02 -0.17522580432E+02  0.11405241291E+03  0.00000000000E+00 0.  1.
         14    1    4    4    0    0 -0.12170017948E+02  0.37060070645E+02 -0.41309682337E+02  0.56815913509E+02  0.00000000000E+00 0. -1.
         -5    1    5    5    0  502 -0.14107928050E+03 -0.64191687390E+02 -0.46935366480E+03  0.49430647252E+03  0.47000000000E+01 0.  1.
         13    1    6    6    0    0  0.13640132395E+02 -0.83260873882E+02 -0.18376487062E+03  0.20220770016E+03  0.00000000000E+00 0. -1.
        -14    1    6    6    0    0 -0.22198116286E+02  0.87625890782E+01 -0.51587516657E+02  0.56840225271E+02  0.00000000000E+00 0.  1.
</event>
<event>
12    1  0.8453150E-002  0.2023690E+03  0.7818608E-02  0.1148744E+00
         21   -1    0    0  501  502  0.00000000000E+00  0.00000000000E+00  0.58033203933E+02  0.58033203933E+02  0.00000000000E+00 0. -1.
         21   -1    0    0  502  503 -0.00000000000E+00 -0.00000000000E+00 -0.71856951287E+03  0.71856951287E+03  0.00000000000E+00 0.  1.
         -6    2    1    2    0  503  0.61156485661E+02 -0.76090907606E+02 -0.40479061631E+03  0.45047534338E+03  0.17187975443E+03 0.  0.
        -24    2    3    3    0    0  0.36359542437E+02 -0.11117826913E+03 -0.36598391451E+03  0.39238867162E+03  0.79636801045E+02 0.  0.
          6    2    1    2  501    0 -0.61156485661E+02  0.76090907606E+02 -0.25574569263E+03  0.32612737343E+03  0.17726607809E+03 0.  0.
         24    2    5    5    0    0 -0.10802582692E+03  0.78153913347E+02 -0.20212020670E+03  0.25472167418E+03  0.79075532817E+02 0.  0.
          5    1    5    5  501    0  0.46869341260E+02 -0.20630057411E+01 -0.53625485932E+02  0.71405699242E+02  0.47000000000E+01 0. -1.
        -11    1    6    6    0    0  0.43175894372E+01  0.32917162981E+02 -0.54038334680E+02  0.63421784997E+02  0.00000000000E+00 0.  1.
         12    1    6    6    0    0 -0.11234341636E+03  0.45236750366E+02 -0.14808187202E+03  0.19129988919E+03  0.00000000000E+00 0. -1.
         -5    1    3    3    0  503  0.24796943224E+02  0.35087361523E+02 -0.38806701799E+02  0.58086671762E+02  0.47000000000E+01 0.  1.
         13    1    4    4    0    0  0.62612200417E+01 -0.10118427854E+02 -0.40467776134E+00  0.11905848258E+02  0.00000000000E+00 0. -1.
        -14    1    4    4    0    0  0.30098322395E+02 -0.10105984127E+03 -0.36557923675E+03  0.38048282336E+03  0.00000000000E+00 0.  1.
</event>
<event>
12    1  0.8453150E-002  0.7130660E+03  0.7818608E-02  0.9695253E-01
         21   -1    0    0  501  502  0.00000000000E+00  0.00000000000E+00  0.44896525481E+03  0.44896525481E+03  0.00000000000E+00 0. -1.
         21   -1    0    0  502  503 -0.00000000000E+00 -0.00000000000E+00 -0.11701432775E+04  0.11701432775E+04  0.00000000000E+00 0.  1.
         -6    2    1    2    0  503  0.67348154097E+03 -0.15741501262E+03 -0.50660199568E+03  0.87470491734E+03  0.17351149289E+03 0.  0.
        -24    2    3    3    0    0  0.21424528873E+03 -0.98503742114E+02 -0.19291851425E+03  0.31543048588E+03  0.81699494051E+02 0.  0.
          6    2    1    2  501    0 -0.67348154097E+03  0.15741501262E+03 -0.21457602706E+03  0.74440361502E+03  0.17244418935E+03 0.  0.
         24    2    5    5    0    0 -0.61545437198E+03  0.12246895569E+03 -0.14881241236E+03  0.64987678150E+03  0.80074764865E+02 0.  0.
          5    1    5    5  501    0 -0.58027168991E+02  0.34946056931E+02 -0.65763614702E+02  0.94526833517E+02  0.47000000000E+01 0. -1.
        -13    1    6    6    0    0 -0.16862460011E+03 -0.21019844538E+01 -0.44857747731E+02  0.17450183848E+03  0.00000000000E+00 0.  1.
         14    1    6    6    0    0 -0.44682977186E+03  0.12457094015E+03 -0.10395466463E+03  0.47537494302E+03  0.00000000000E+00 0. -1.
         -5    1    3    3    0  503  0.45923625224E+03 -0.58911270509E+02 -0.31368348142E+03  0.55927443145E+03  0.47000000000E+01 0.  1.
         11    1    4    4    0    0  0.11207567253E+02  0.10742001134E+01  0.72777176257E+01  0.13406291189E+02  0.00000000000E+00 0. -1.
        -12    1    4    4    0    0  0.20303772148E+03 -0.99577942228E+02 -0.20019623188E+03  0.30202419469E+03  0.00000000000E+00 0.  1.
</event>
<event>
12    1  0.8453150E-002  0.1990779E+03  0.7818608E-02  0.1150652E+00
         21   -1    0    0  501  502  0.00000000000E+00  0.00000000000E+00  0.26102535437E+02  0.26102535437E+02  0.00000000000E+00 0. -1.
         21   -1    0    0  502  503 -0.00000000000E+00 -0.00000000000E+00 -0.18769330494E+04  0.18769330494E+04  0.00000000000E+00 0. -1.
         -6    2    1    2    0  503  0.88692108352E+02  0.41137687384E+02 -0.13429035946E+04  0.13574883734E+04  0.17270211324E+03 0.  0.
        -24    2    3    3    0    0  0.63545930814E+02  0.78310881040E+02 -0.61376034635E+03  0.62695011763E+03  0.78702019212E+02 0.  0.
          6    2    1    2  501    0 -0.88692108352E+02 -0.41137687384E+02 -0.50792691936E+03  0.54554721151E+03  0.17341685376E+03 0.  0.
         24    2    5    5    0    0 -0.70143392473E+02  0.22135025988E+02 -0.42354091932E+03  0.43835309730E+03  0.85769882189E+02 0.  0.
          5    1    5    5  501    0 -0.18548715879E+02 -0.63272713372E+02 -0.84386000039E+02  0.10719411421E+03  0.47000000000E+01 0. -1.
        -11    1    6    6    0    0 -0.28907019709E+01  0.32273419676E+02 -0.57093249336E+02  0.65647306839E+02  0.00000000000E+00 0.  1.
         12    1    6    6    0    0 -0.67252690502E+02 -0.10138393688E+02 -0.36644766999E+03  0.37270579046E+03  0.00000000000E+00 0. -1.
         -5    1    3    3    0  503  0.25146177538E+02 -0.37173193656E+02 -0.72914324829E+03  0.73053825574E+03  0.47000000000E+01 0.  1.
         11    1    4    4    0    0  0.76981828285E+02  0.48097632709E+02 -0.51103712711E+03  0.51903615427E+03  0.00000000000E+00 0. -1.
        -12    1    4    4    0    0 -0.13435897471E+02  0.30213248331E+02 -0.10272321924E+03  0.10791396336E+03  0.00000000000E+00 0.  1.
</event>
<event>
12    1  0.8453150E-002  0.1934732E+03  0.7818608E-02  0.1155854E+00
         21   -1    0    0  501  502  0.00000000000E+00  0.00000000000E+00  0.77018803623E+02  0.77018803623E+02  0.00000000000E+00 0.  1.
         21   -1    0    0  502  503 -0.00000000000E+00 -0.00000000000E+00 -0.51676664923E+03  0.51676664923E+03  0.00000000000E+00 0.  1.
         -6    2    1    2    0  503 -0.43034836056E+02 -0.74196398610E+02 -0.29736387129E+03  0.35356666891E+03  0.17095910254E+03 0.  0.
        -24    2    3    3    0    0  0.19268484945E+02  0.11626232216E+02 -0.15426561650E+03  0.17539139484E+03  0.80360544806E+02 0.  0.
          6    2    1    2  501    0  0.43034836056E+02  0.74196398610E+02 -0.14238397432E+03  0.24021878394E+03  0.17342077537E+03 0.  0.
         24    2    5    5    0    0  0.59459147812E+02  0.26747855272E+01 -0.27527636796E+02  0.10384001937E+03  0.80513564692E+02 0.  0.
          5    1    5    5  501    0 -0.16424311756E+02  0.71521613083E+02 -0.11485633752E+03  0.13637876456E+03  0.47000000000E+01 0. -1.
        -11    1    6    6    0    0  0.19048640339E+02 -0.36882156229E+02 -0.13671894273E+01  0.41533280075E+02  0.00000000000E+00 0.  1.
         12    1    6    6    0    0  0.40410507473E+02  0.39556941756E+02 -0.26160447368E+02  0.62306739297E+02  0.00000000000E+00 0. -1.
         -5    1    3    3    0  503 -0.62303321001E+02 -0.85822630826E+02 -0.14309825479E+03  0.17817527408E+03  0.47000000000E+01 0.  1.
         11    1    4    4    0    0 -0.27970975131E+02  0.11043367534E+02 -0.30127645569E+02  0.42567668996E+02  0.00000000000E+00 0. -1.
        -12    1    4    4    0    0  0.47239460076E+02  0.58286468197E+00 -0.12413797093E+03  0.13282372584E+03  0.00000000000E+00 0.  1.
</event>
<event>
12    1  0.8453150E-002  0.1764796E+03  0.7818608E-02  0.1171655E+00
         21   -1    0    0  503  502  0.00000000000E+00  0.00000000000E+00  0.72569284915E+02  0.72569284915E+02  0.00000000000E+00 0.  1.
         21   -1    0    0  501  503 -0.00000000000E+00 -0.00000000000E+00 -0.42727146456E+03  0.42727146456E+03  0.00000000000E+00 0.  1.
          6    2    1    2  501    0 -0.17664275982E+02  0.39734510141E+02 -0.15947438778E+03  0.23666982712E+03  0.16938024905E+03 0.  0.
         24    2    3    3    0    0 -0.30506818116E+02  0.48925120720E+02 -0.26462713388E+02  0.10264149528E+03  0.80688710265E+02 0.  0.
         -6    2    1    2    0  502  0.17664275982E+02 -0.39734510141E+02 -0.19522779187E+03  0.26317092236E+03  0.17103855038E+03 0.  0.
        -24    2    5    5    0    0  0.46238684637E+01  0.29646465545E+02 -0.16038748857E+03  0.18430579224E+03  0.85698223333E+02 0.  0.
          5    1    3    3  501    0  0.12842542133E+02 -0.91906105797E+01 -0.13301167439E+03  0.13402833184E+03  0.47000000000E+01 0. -1.
        -13    1    4    4    0    0 -0.30733600299E+02  0.68941937094E+02 -0.31826160075E+02  0.81917332370E+02  0.00000000000E+00 0.  1.
         14    1    4    4    0    0  0.22678218303E+00 -0.20016816373E+02  0.53634466876E+01  0.20724162908E+02  0.00000000000E+00 0. -1.
         -5    1    5    5    0  502  0.13040407519E+02 -0.69380975685E+02 -0.34840303292E+02  0.78865130120E+02  0.47000000000E+01 0.  1.
         13    1    6    6    0    0 -0.26378604228E+02  0.32374241534E+02 -0.33152821778E+02  0.53320088783E+02  0.00000000000E+00 0. -1.
        -14    1    6    6    0    0  0.31002472692E+02 -0.27277759895E+01 -0.12723466680E+03  0.13098570345E+03  0.00000000000E+00 0.  1.
</event>
<event>
12    1  0.8453150E-002  0.1863502E+03  0.7818608E-02  0.1161828E+00
         21   -1    0    0  501  502  0.00000000000E+00  0.00000000000E+00  0.40492823476E+03  0.40492823476E+03  0.00000000000E+00 0. -1.
         21   -1    0    0  502  503 -0.00000000000E+00 -0.00000000000E+00 -0.22418158781E+03  0.22418158781E+03  0.00000000000E+00 0. -1.
         -6    2    1    2    0  503 -0.70764899199E+02  0.69382492600E+01 -0.15686943159E+03  0.24347917369E+03  0.17209961997E+03 0.  0.
        -24    2    3    3    0    0 -0.23330521113E+02  0.35977717498E+02 -0.16399464547E+03  0.18721044692E+03  0.79465705320E+02 0.  0.
          6    2    1    2  501    0  0.70764899199E+02 -0.69382492600E+01  0.33761607854E+03  0.38563064888E+03  0.17225147491E+03 0.  0.
         24    2    5    5    0    0  0.57481151689E+02 -0.56594293585E+02  0.30302515885E+03  0.32349529332E+03  0.79485602726E+02 0.  0.
          5    1    5    5  501    0  0.13283747510E+02  0.49656044325E+02  0.34590919693E+02  0.62135355565E+02  0.47000000000E+01 0. -1.
        -13    1    6    6    0    0 -0.15495571406E+02  0.53527285058E+01  0.62699377621E+02  0.64807224826E+02  0.00000000000E+00 0.  1.
         14    1    6    6    0    0  0.72976723094E+02 -0.61947022091E+02  0.24032578122E+03  0.25868806849E+03  0.00000000000E+00 0. -1.
         -5    1    3    3    0  503 -0.47434378086E+02 -0.29039468238E+02  0.71252138753E+01  0.56268726774E+02  0.47000000000E+01 0.  1.
         11    1    4    4    0    0  0.20124599940E+02  0.37461688339E+02 -0.10968289204E+03  0.11763806536E+03  0.00000000000E+00 0. -1.
        -12    1    4    4    0    0 -0.43455121053E+02 -0.14839708411E+01 -0.54311753429E+02  0.69572381559E+02  0.00000000000E+00 0.  1.
</event>
<event>
12    1  0.8453150E-002  0.2040365E+03  0.7818608E-02  0.1146735E+00
         21   -1    0    0  501  502  0.00000000000E+00  0.00000000000E+00  0.86066663797E+03  0.86066663797E+03  0.00000000000E+00 0. -1.
         21   -1    0    0  502  503 -0.00000000000E+00 -0.00000000000E+00 -0.54446797687E+02  0.54446797687E+02  0.00000000000E+00 0. -1.
         -6    2    1    2    0  503  0.55799444621E+02  0.91680109995E+02  0.55952263849E+03  0.59497218319E+03  0.17148613705E+03 0.  0.
        -24    2    3    3    0    0  0.35506178419E+02 -0.98234702844E+01  0.16742580893E+03  0.18941478009E+03  0.80556614534E+02 0.  0.
          6    2    1    2  501    0 -0.55799444621E+02 -0.91680109995E+02  0.24669720180E+03  0.32014125247E+03  0.17352835955E+03 0.  0.
         24    2    5    5    0    0 -0.63756619850E+02 -0.77281384726E+02  0.26564746195E+03  0.29461005024E+03  0.78671396724E+02 0.  0.
          5    1    5    5  501    0  0.79571752290E+01 -0.14398725269E+02 -0.18950260157E+02  0.25531202224E+02  0.47000000000E+01 0. -1.
        -13    1    6    6    0    0 -0.21400777456E+02  0.21610132034E+01  0.10284284913E+02  0.23841765244E+02  0.00000000000E+00 0.  1.
         14    1    6    6    0    0 -0.42355842394E+02 -0.79442397929E+02  0.25536317704E+03  0.27076828500E+03  0.00000000000E+00 0. -1.
         -5    1    3    3    0  503  0.20293266202E+02  0.10150358028E+03  0.39209682956E+03  0.40555740310E+03  0.47000000000E+01 0.  1.
         13    1    4    4    0    0  0.65204835949E+01  0.34579270155E+02  0.75349128306E+02  0.83160890851E+02  0.00000000000E+00 0. -1.
        -14    1    4    4    0    0  0.28985694824E+02 -0.44402740439E+02  0.92076680624E+02  0.10625388924E+03  0.00000000000E+00 0.  1.
</event>
<event>
12    1  0.8453150E-002  0.1783800E+03  0.7818608E-02  0.1169439E+00
         21   -1    0    0  503  502  0.00000000000E+00  0.00000000000E+00  0.97205534531E+02  0.97205534531E+02  0.00000000000E+00 0. -1.
         21   -1    0    0  501  503 -0.00000000000E+00 -0.00000000000E+00 -0.80260926437E+03  0.80260926437E+03  0.00000000000E+00 0. -1.
          6    2    1    2  501    0 -0.42303818528E+02  0.18364167891E+02 -0.69897617747E+03  0.72131905720E+03  0.17206577197E+03 0.  0.
         24    2    3    3    0    0  0.33518483447E+02  0.36093226684E+02 -0.41405757209E+03  0.42591417793E+03  0.86792881122E+02 0.  0.
         -6    2    1    2    0  502  0.42303818528E+02 -0.18364167891E+02 -0.64275523643E+01  0.17849574170E+03  0.17231529430E+03 0.  0.
        -24    2    5    5    0    0  0.26255429816E+02 -0.49071051714E+02  0.53204769969E+02  0.10936855919E+03  0.77675082754E+02 0.  0.
          5    1    3    3  501    0 -0.75822301975E+02 -0.17729058793E+02 -0.28491860538E+03  0.29540487927E+03  0.47000000000E+01 0. -1.
        -13    1    4    4    0    0 -0.28886020650E+01  0.24658277966E+02 -0.25870997079E+02  0.35856424585E+02  0.00000000000E+00 0.  1.
         14    1    4    4    0    0  0.36407085512E+02  0.11434948718E+02 -0.38818657501E+03  0.39005775335E+03  0.00000000000E+00 0. -1.
         -5    1    5    5    0  502  0.16048388712E+02  0.30706883824E+02 -0.59632322334E+02  0.69127182506E+02  0.47000000000E+01 0.  1.
         13    1    6    6    0    0  0.94794353057E+01  0.10776648728E+02  0.44315333835E+02  0.46581591476E+02  0.00000000000E+00 0. -1.
        -14    1    6    6    0    0  0.16775994510E+02 -0.59847700442E+02  0.88894361346E+01  0.62786967715E+02  0.00000000000E+00 0.  1.
</event>
<event>
12    1  0.8453150E-002  0.1806734E+03  0.7818608E-02  0.1168756E+00
         21   -1    0    0  503  502  0.00000000000E+00  0.00000000000E+00  0.11601472672E+03  0.11601472672E+03  0.00000000000E+00 0. -1.
         21   -1    0    0  501  503 -0.00000000000E+00 -0.00000000000E+00 -0.41567599107E+03  0.41567599107E+03  0.00000000000E+00 0. -1.
          6    2    1    2  501    0 -0.15219363718E+02 -0.12307931695E+01 -0.30469274614E+03  0.35094730847E+03  0.17347391703E+03 0.  0.
         24    2    3    3    0    0  0.44593514876E+01 -0.26139355595E+02 -0.55835382041E+02  0.10002946140E+03  0.78645734360E+02 0.  0.
         -6    2    1    2    0  502  0.15219363718E+02  0.12307931695E+01  0.50314817898E+01  0.18074340932E+03  0.18002699887E+03 0.  0.
        -24    2    5    5    0    0 -0.55502193447E+02  0.12600158693E+02  0.35958811819E+02  0.10258081684E+03  0.77398516526E+02 0.  0.
          5    1    3    3  501    0 -0.19678715206E+02  0.24908562425E+02 -0.24885736410E+03  0.25091784708E+03  0.47000000000E+01 0. -1.
        -11    1    4    4    0    0  0.37145176891E+02  0.12449175837E+01 -0.39847144095E+02  0.54489529990E+02  0.00000000000E+00 0.  1.
         12    1    4    4    0    0 -0.32685825404E+02 -0.27384273179E+02 -0.15988237946E+02  0.45539931406E+02  0.00000000000E+00 0. -1.
         -5    1    5    5    0  502  0.70721557165E+02 -0.11369365524E+02 -0.30927330029E+02  0.78162592479E+02  0.47000000000E+01 0.  1.
         11    1    6    6    0    0 -0.45713626396E+01  0.37282534395E+02  0.24471905602E+02  0.44830334496E+02  0.00000000000E+00 0. -1.
        -12    1    6    6    0    0 -0.50930830807E+02 -0.24682375702E+02  0.11486906218E+02  0.57750482348E+02  0.00000000000E+00 0.  1.
</event>
<event>
12    1  0.8453150E-002  0.1821161E+03  0.7818608E-02  0.1165786E+00
         21   -1    0    0  501  502  0.00000000000E+00  0.00000000000E+00  0.23506377323E+03  0.23506377323E+03  0.00000000000E+00 0.  1.
         21   -1    0    0  502  503 -0.00000000000E+00 -0.00000000000E+00 -0.15499305576E+03  0.15499305576E+03  0.00000000000E+00 0. -1.
         -6    2    1    2    0  503 -0.14157896897E+02 -0.59067326398E+02  0.98535879789E+02  0.20700704702E+03  0.17161935444E+03 0.  0.
        -24    2    3    3    0    0  0.50105774761E+02 -0.54756116327E+02  0.90338679601E+02  0.14190950391E+03  0.80426421838E+02 0.  0.
          6    2    1    2  501    0  0.14157896897E+02  0.59067326398E+02 -0.18465162316E+02  0.18304978196E+03  0.17168827964E+03 0.  0.
         24    2    5    5    0    0  0.63814452888E+02  0.77857450199E+02 -0.13606229258E+02  0.12952837003E+03  0.80364184924E+02 0.  0.
          5    1    5    5  501    0 -0.49656555991E+02 -0.18790123801E+02 -0.48589330581E+01  0.53521411937E+02  0.47000000000E+01 0. -1.
        -13    1    6    6    0    0  0.40601357116E+02  0.74654965588E+01  0.22571659348E+02  0.47049799619E+02  0.00000000000E+00 0.  1.
         14    1    6    6    0    0  0.23213095772E+02  0.70391953640E+02 -0.36177888606E+02  0.82478570408E+02  0.00000000000E+00 0. -1.
         -5    1    3    3    0  503 -0.64263671658E+02 -0.43112100714E+01  0.81972001885E+01  0.65097543104E+02  0.47000000000E+01 0.  1.
         13    1    4    4    0    0  0.85986298660E+01 -0.15972342346E+02 -0.14130690879E+02  0.22994098815E+02  0.00000000000E+00 0. -1.
        -14    1    4    4    0    0  0.41507144895E+02 -0.38783773981E+02  0.10446937048E+03  0.11891540510E+03  0.00000000000E+00 0.  1.
</event>
<event>
12    1  0.8453150E-002  0.2314579E+03  0.7818608E-02  0.1125844E+00
         21   -1    0    0  501  502  0.00000000000E+00  0.00000000000E+00  0.41686031545E+03  0.41686031545E+03  0.00000000000E+00 0. -1.
         21   -1    0    0  502  503 -0.00000000000E+00 -0.00000000000E+00 -0.17336988182E+03  0.17336988182E+03  0.00000000000E+00 0.  1.
         -6    2    1    2    0  503 -0.10540689101E+03 -0.11353985537E+03 -0.29306523639E+02  0.23330591409E+03  0.17196181492E+03 0.  0.
        -24    2    3    3    0    0 -0.22491666424E+02 -0.50223313093E+02 -0.70438552733E+02  0.12106575723E+03  0.81652137921E+02 0.  0.
          6    2    1    2  501    0  0.10540689101E+03  0.11353985537E+03  0.27279695728E+03  0.35692428318E+03  0.17022001233E+03 0.  0.
         24    2    5    5    0    0  0.21404124249E+02  0.86659578281E+02  0.76942924887E+02  0.14207571762E+03  0.79355382963E+02 0.  0.
          5    1    5    5  501    0  0.84002766757E+02  0.26880277085E+02  0.19585403239E+03  0.21484856556E+03  0.47000000000E+01 0. -1.
        -13    1    6    6    0    0 -0.23969768457E+02  0.61736425608E+02  0.32145064447E+02  0.73615495754E+02  0.00000000000E+00 0.  1.
         14    1    6    6    0    0  0.45373892706E+02  0.24923152673E+02  0.44797860439E+02  0.68460221869E+02  0.00000000000E+00 0. -1.
         -5    1    3    3    0  503 -0.82915224582E+02 -0.63316542273E+02  0.41132029094E+02  0.11224015685E+03  0.47000000000E+01 0.  1.
         13    1    4    4    0    0 -0.53077197934E+01 -0.42621903897E+02  0.50746509281E+01  0.43249863159E+02  0.00000000000E+00 0. -1.
        -14    1    4    4    0    0 -0.17183946631E+02 -0.76014091962E+01 -0.75513203661E+02  0.77815894076E+02  0.00000000000E+00 0.  1.
</event>
<event>
12    1  0.8453150E-002  0.1869616E+03  0.7818608E-02  0.1162194E+00
         21   -1    0    0  503  502  0.00000000000E+00  0.00000000000E+00  0.10109140363E+03  0.10109140363E+03  0.00000000000E+00 0. -1.
         21   -1    0    0  501  503 -0.00000000000E+00 -0.00000000000E+00 -0.36338564713E+03  0.36338564713E+03  0.00000000000E+00 0. -1.
          6    2    1    2  501    0 -0.43243397067E+01 -0.64754216201E+02 -0.19095787556E+03  0.26436824252E+03  0.17092059263E+03 0.  0.
         24    2    3    3    0    0 -0.40467178268E+02 -0.96999100580E+02 -0.12730356742E+03  0.18424335068E+03  0.81810732560E+02 0.  0.
         -6    2    1    2    0  502  0.43243397067E+01  0.64754216201E+02 -0.71336367945E+02  0.20010880823E+03  0.17533638901E+03 0.  0.
        -24    2    5    5    0    0  0.28206633997E+02 -0.29514639680E+02 -0.34773508525E+02  0.96109222376E+02  0.79756238463E+02 0.  0.
          5    1    3    3  501    0  0.36142838561E+02  0.32244884380E+02 -0.63654308136E+02  0.80124891838E+02  0.47000000000E+01 0. -1.
        -13    1    4    4    0    0  0.21168028412E+02 -0.30143210856E+02 -0.15072106615E+02  0.39797826390E+02  0.00000000000E+00 0.  1.
         14    1    4    4    0    0 -0.61635206680E+02 -0.66855889724E+02 -0.11223146081E+03  0.14444552429E+03  0.00000000000E+00 0. -1.
         -5    1    5    5    0  502 -0.23882294290E+02  0.94268855881E+02 -0.36562859420E+02  0.10399958586E+03  0.47000000000E+01 0.  1.
         13    1    6    6    0    0 -0.54654348806E+01 -0.35269801945E+02  0.12472476070E+02  0.37807308381E+02  0.00000000000E+00 0. -1.
        -14    1    6    6    0    0  0.33672068878E+02  0.57551622652E+01 -0.47245984595E+02  0.58301913995E+02  0.00000000000E+00 0.  1.
</event>
<event>
12    1  0.8453150E-002  0.2001021E+03  0.7818608E-02  0.1149700E+00
         21   -1    0    0  501  502  0.00000000000E+00  0.00000000000E+00  0.14806534181E+03  0.14806534181E+03  0.00000000000E+00 0.  1.
         21   -1    0    0  502  503 -0.00000000000E+00 -0.00000000000E+00 -0.46624289386E+03  0.46624289386E+03  0.00000000000E+00 0.  1.
         -6    2    1    2    0  503  0.10029519853E+03  0.13091039630E+02 -0.35824601522E+03  0.41023387547E+03  0.17239815252E+03 0.  0.
        -24    2    3    3    0    0  0.13221611103E+03 -0.17253190476E+02 -0.27044258186E+03  0.31189136245E+03  0.79738693817E+02 0.  0.
          6    2    1    2  501    0 -0.10029519853E+03 -0.13091039630E+02  0.40068463176E+02  0.20407436020E+03  0.17265677103E+03 0.  0.
         24    2    5    5    0    0 -0.45686122896E+02 -0.39645355353E+02 -0.34229672931E+02  0.10800362660E+03  0.82668838289E+02 0.  0.
          5    1    5    5  501    0 -0.54609075636E+02  0.26554315723E+02  0.74298136107E+02  0.96070733599E+02  0.47000000000E+01 0. -1.
        -13    1    6    6    0    0 -0.15465173661E+02  0.66017599695E+01  0.22978877564E+02  0.28474262855E+02  0.00000000000E+00 0.  1.
         14    1    6    6    0    0 -0.30220949235E+02 -0.46247115323E+02 -0.57208550495E+02  0.79529363748E+02  0.00000000000E+00 0. -1.
         -5    1    3    3    0  503 -0.31920912503E+02  0.30344230106E+02 -0.87803433359E+02  0.98342513011E+02  0.47000000000E+01 0.  1.
         13    1    4    4    0    0  0.14251735916E+02 -0.25699451199E+02 -0.21913385203E+02  0.36657471539E+02  0.00000000000E+00 0. -1.
        -14    1    4    4    0    0  0.11796437512E+03  0.84462607234E+01 -0.24852919666E+03  0.27523389092E+03  0.00000000000E+00 0.  1.
</event>
<event>
12    1  0.8453150E-002  0.2628869E+03  0.7818608E-02  0.1105453E+00
         21   -1    0    0  503  502  0.00000000000E+00  0.00000000000E+00  0.39375385184E+02  0.39375385184E+02  0.00000000000E+00 0. -1.
         21   -1    0    0  501  503 -0.00000000000E+00 -0.00000000000E+00 -0.19785783559E+04  0.19785783559E+04  0.00000000000E+00 0.  1.
          6    2    1    2  501    0 -0.55113520879E+02  0.19107300765E+03 -0.13094037419E+04  0.13354901071E+04  0.17160790290E+03 0.  0.
         24    2    3    3    0    0 -0.29763579436E+01  0.60851083988E+02 -0.30468586026E+03  0.32101677334E+03  0.80663388180E+02 0.  0.
         -6    2    1    2    0  502  0.55113520879E+02 -0.19107300765E+03 -0.62979922882E+03  0.68246363403E+03  0.17193937509E+03 0.  0.
        -24    2    5    5    0    0  0.11523772502E+02 -0.16838955598E+03 -0.33454842393E+03  0.38311478580E+03  0.79790044809E+02 0.  0.
          5    1    3    3  501    0 -0.52137162935E+02  0.13022192366E+03 -0.10047178816E+04  0.10144733337E+04  0.47000000000E+01 0. -1.
        -13    1    4    4    0    0  0.12766421631E+02 -0.80806272751E+01 -0.15205531175E+03  0.15280410953E+03  0.00000000000E+00 0.  1.
         14    1    4    4    0    0 -0.15742779574E+02  0.68931711263E+02 -0.15263054851E+03  0.16821266381E+03  0.00000000000E+00 0. -1.
         -5    1    5    5    0  502  0.43589748377E+02 -0.22683451670E+02 -0.29525080489E+03  0.29934884822E+03  0.47000000000E+01 0.  1.
         11    1    6    6    0    0 -0.74267578878E+01 -0.97039224003E+02 -0.11065566063E+03  0.14736499909E+03  0.00000000000E+00 0. -1.
        -12    1    6    6    0    0  0.18950530390E+02 -0.71350331974E+02 -0.22389276331E+03  0.23574978672E+03  0.00000000000E+00 0.  1.
</event>
<event>
12    1  0.8453150E-002  0.2118783E+03  0.7818608E-02  0.1140876E+00
         21   -1    0    0  501  502  0.00000000000E+00  0.00000000000E+00  0.54616262681E+03  0.54616262681E+03  0.00000000000E+00 0. -1.
         21   -1    0    0  502  503 -0.00000000000E+00 -0.00000000000E+00 -0.92994986744E+02  0.92994986744E+02  0.00000000000E+00 0. -1.
         -6    2    1    2    0  503 -0.26990624354E+02  0.11402995257E+03  0.11204771888E+03  0.23968122609E+03  0.17652499808E+03 0.  0.
        -24    2    3    3    0    0 -0.68173991194E+02  0.99097603296E+02  0.12402452734E+03  0.19402403936E+03  0.88290522782E+02 0.  0.
          6    2    1    2  501    0  0.26990624354E+02 -0.11402995257E+03  0.34111992118E+03  0.39947638746E+03  0.17171854772E+03 0.  0.
         24    2    5    5    0    0  0.92696238446E+01 -0.31594766250E+02  0.61076688984E+02  0.10697699310E+03  0.81422109624E+02 0.  0.
          5    1    5    5  501    0  0.17721000509E+02 -0.82435186318E+02  0.28004323220E+03  0.29249939436E+03  0.47000000000E+01 0. -1.
        -11    1    6    6    0    0  0.20851096340E+02  0.63237038376E+01  0.63620028466E+02  0.67247791568E+02  0.00000000000E+00 0.  1.
         12    1    6    6    0    0 -0.11581472496E+02 -0.37918470087E+02 -0.25433394817E+01  0.39729201536E+02  0.00000000000E+00 0. -1.
         -5    1    3    3    0  503  0.41183366840E+02  0.14932349272E+02 -0.11976808456E+02  0.45657186727E+02  0.47000000000E+01 0.  1.
         13    1    4    4    0    0 -0.34475308937E+02  0.10813050969E+03  0.85830370218E+02  0.14229408457E+03  0.00000000000E+00 0. -1.
        -14    1    4    4    0    0 -0.33698682257E+02 -0.90329063979E+01  0.38194157121E+02  0.51729954785E+02  0.00000000000E+00 0.  1.
</event>
<event>
12    1  0.8453150E-002  0.1749502E+03  0.7818608E-02  0.1172977E+00
         21   -1    0    0  501  502  0.00000000000E+00  0.00000000000E+00  0.10507936262E+03  0.10507936262E+03  0.00000000000E+00 0.  1.
         21   -1    0    0  502  503 -0.00000000000E+00 -0.00000000000E+00 -0.30274303723E+03  0.30274303723E+03  0.00000000000E+00 0.  1.
         -6    2    1    2    0  503 -0.13960529106E+02 -0.26276699784E+02 -0.14047514884E+03  0.22376235136E+03  0.17161282330E+03 0.  0.
        -24    2    3    3    0    0 -0.18403547164E+02 -0.83213941667E+02 -0.98535499474E+02  0.15275098529E+03  0.79751916677E+02 0.  0.
          6    2    1    2  501    0  0.13960529106E+02  0.26276699784E+02 -0.57188525775E+02  0.18406004849E+03  0.17240131277E+03 0.  0.
         24    2    5    5    0    0  0.16600860484E+02  0.83761517304E+02 -0.39394014545E+02  0.12364307881E+03  0.80275414701E+02 0.  0.
          5    1    5    5  501    0 -0.26403313780E+01 -0.57484817520E+02 -0.17794511230E+02  0.60416969678E+02  0.47000000000E+01 0. -1.
        -13    1    6    6    0    0  0.35703475590E+02  0.19545043379E+02  0.81230257205E+01  0.41505787991E+02  0.00000000000E+00 0.  1.
         14    1    6    6    0    0 -0.19102615106E+02  0.64216473926E+02 -0.47517040265E+02  0.82137290818E+02  0.00000000000E+00 0. -1.
         -5    1    3    3    0  503  0.44430180574E+01  0.56937241883E+02 -0.41939649370E+02  0.71011366076E+02  0.47000000000E+01 0.  1.
         11    1    4    4    0    0 -0.27173850281E+02 -0.85584357368E+02 -0.10744463726E+03  0.14002660619E+03  0.00000000000E+00 0. -1.
        -12    1    4    4    0    0  0.87703031178E+01  0.23704157014E+01  0.89091377842E+01  0.12724379098E+02  0.00000000000E+00 0.  1.
</event>
<event>
12    1  0.8453150E-002  0.1806203E+03  0.7818608E-02  0.1167249E+00
         21   -1    0    0  503  502  0.00000000000E+00  0.00000000000E+00  0.97781899102E+02  0.97781899102E+02  0.00000000000E+00 0. -1.
         21   -1    0    0  501  503 -0.00000000000E+00 -0.00000000000E+00 -0.35108388070E+03  0.35108388070E+03  0.00000000000E+00 0. -1.
          6    2    1    2  501    0  0.53086728964E+02  0.19778995845E+02 -0.76188995913E+02  0.19603175654E+03  0.17150590953E+03 0.  0.
         24    2    3    3    0    0 -0.23116443367E+02 -0.25336035432E+02 -0.15266778063E+02  0.88440417907E+02  0.80077140069E+02 0.  0.
         -6    2    1    2    0  502 -0.53086728964E+02 -0.19778995845E+02 -0.17711298568E+03  0.25283402326E+03  0.17130856416E+03 0.  0.
        -24    2    5    5    0    0  0.61133177490E+01 -0.64787304639E+02 -0.12738397929E+03  0.16324910562E+03  0.78669084216E+02 0.  0.
          5    1    3    3  501    0  0.76203172331E+02  0.45115031278E+02 -0.60922217850E+02  0.10759133863E+03  0.47000000000E+01 0. -1.
        -11    1    4    4    0    0  0.17557339439E+02 -0.13887250385E+02 -0.35204073537E+02  0.41718613172E+02  0.00000000000E+00 0.  1.
         12    1    4    4    0    0 -0.40673782806E+02 -0.11448785048E+02  0.19937295474E+02  0.46721804734E+02  0.00000000000E+00 0. -1.
         -5    1    5    5    0  502 -0.59200046713E+02  0.45008308794E+02 -0.49729006392E+02  0.89584917637E+02  0.47000000000E+01 0.  1.
         13    1    6    6    0    0  0.32837497008E+02 -0.12179791192E+02 -0.80821946541E+02  0.88084252655E+02  0.00000000000E+00 0. -1.
        -14    1    6    6    0    0 -0.26724179259E+02 -0.52607513448E+02 -0.46562032749E+02  0.75164852969E+02  0.00000000000E+00 0.  1.
</event>
<event>
12    1  0.8453150E-002  0.2010683E+03  0.7818608E-02  0.1149021E+00
         21   -1    0    0  501  502  0.00000000000E+00  0.00000000000E+00  0.91349245087E+02  0.91349245087E+02  0.00000000000E+00 0. -1.
         21   -1    0    0  502  503 -0.00000000000E+00 -0.00000000000E+00 -0.44101900134E+03  0.44101900134E+03  0.00000000000E+00 0. -1.
         -6    2    1    2    0  503 -0.16476133673E+02 -0.10219904010E+03 -0.18259646085E+03  0.27160621467E+03  0.17237274017E+03 0.  0.
        -24    2    3    3    0    0 -0.33498856907E+02 -0.10319224954E+03 -0.59240730464E+02  0.14698885717E+03  0.79532673833E+02 0.  0.
          6    2    1    2  501    0  0.16476133673E+02  0.10219904010E+03 -0.16707329540E+03  0.26076203175E+03  0.17136873807E+03 0.  0.
         24    2    5    5    0    0 -0.33403564471E+02  0.67993793137E+02 -0.18797330775E+02  0.10055642981E+03  0.63397964542E+02 0.  0.
          5    1    5    5  501    0  0.49879698144E+02  0.34205246967E+02 -0.14827596463E+03  0.16020560194E+03  0.47000000000E+01 0. -1.
        -11    1    6    6    0    0  0.12359964953E+02  0.26818047535E+02 -0.24990718549E+02  0.38684782807E+02  0.00000000000E+00 0.  1.
         12    1    6    6    0    0 -0.45763529424E+02  0.41175745602E+02  0.61933877741E+01  0.61871647007E+02  0.00000000000E+00 0. -1.
         -5    1    3    3    0  503  0.17022723233E+02  0.99320943944E+00 -0.12335573039E+03  0.12461735750E+03  0.47000000000E+01 0.  1.
         13    1    4    4    0    0  0.15136074596E+02 -0.78558303927E+02 -0.35560031175E+02  0.87550121000E+02  0.00000000000E+00 0. -1.
        -14    1    4    4    0    0 -0.48634931502E+02 -0.24633945616E+02 -0.23680699289E+02  0.59438736172E+02  0.00000000000E+00 0.  1.
</event>
<event>
12    1  0.8453150E-002  0.2118993E+03  0.7818608E-02  0.1140160E+00
         21   -1    0    0  503  502  0.00000000000E+00  0.00000000000E+00  0.13135742707E+03  0.13135742707E+03  0.00000000000E+00 0. -1.
         21   -1    0    0  501  503 -0.00000000000E+00 -0.00000000000E+00 -0.43527493751E+03  0.43527493751E+03  0.00000000000E+00 0. -1.
          6    2    1    2  501    0 -0.57465393409E+02 -0.10910199246E+03 -0.28362135879E+03  0.35376324701E+03  0.17176100715E+03 0.  0.
         24    2    3    3    0    0  0.29387466504E+02 -0.11074018732E+02 -0.13012580364E+03  0.15193193538E+03  0.71863280852E+02 0.  0.
         -6    2    1    2    0  502  0.57465393409E+02  0.10910199246E+03 -0.20296151658E+02  0.21286911757E+03  0.17232472616E+03 0.  0.
        -24    2    5    5    0    0  0.10364219858E+03  0.89587469241E+02 -0.32336568640E+02  0.16109870524E+03  0.78355083985E+02 0.  0.
          5    1    3    3  501    0 -0.86852859912E+02 -0.98027973723E+02 -0.15349555514E+03  0.20183131163E+03  0.47000000000E+01 0. -1.
        -13    1    4    4    0    0  0.30323881409E+02 -0.22396293773E+02 -0.13455653493E+03  0.13973758567E+03  0.00000000000E+00 0.  1.
         14    1    4    4    0    0 -0.93641490527E+00  0.11322275041E+02  0.44307312824E+01  0.12194349703E+02  0.00000000000E+00 0. -1.
         -5    1    5    5    0  502 -0.46176805172E+02  0.19514523215E+02  0.12040416982E+02  0.51770412335E+02  0.47000000000E+01 0.  1.
         11    1    6    6    0    0  0.43406570018E+02  0.65641988604E+02  0.15917435964E+02  0.80289263020E+02  0.00000000000E+00 0. -1.
        -12    1    6    6    0    0  0.60235628563E+02  0.23945480637E+02 -0.48254004604E+02  0.80809442218E+02  0.00000000000E+00 0.  1.
</event>
<event>
12    1  0.8453150E-002  0.1905004E+03  0.7818608E-02  0.1158608E+00
         21   -1    0    0  501  502  0.00000000000E+00  0.00000000000E+00  0.15311567996E+04  0.15311567996E+04  0.00000000000E+00 0. -1.
         21   -1    0    0  502  503 -0.00000000000E+00 -0.00000000000E+00 -0.23431184386E+02  0.23431184386E+02  0.00000000000E+00 0. -1.
         -6    2    1    2    0  503 -0.23210652579E+02  0.69880737144E+02  0.79751227543E+03  0.81994892441E+03  0.17569393090E+03 0.  0.
        -24    2    3    3    0    0  0.17195883388E+02  0.96249417836E+02  0.69538569600E+03  0.70690059980E+03  0.81163680038E+02 0.  0.
          6    2    1    2  501    0  0.23210652579E+02 -0.69880737144E+02  0.71021333974E+03  0.73463905953E+03  0.17282797237E+03 0.  0.
         24    2    5    5    0    0  0.84511565285E+02 -0.50277467250E+02  0.44081161189E+03  0.45761654952E+03  0.73674967488E+02 0.  0.
          5    1    5    5  501    0 -0.61300912706E+02 -0.19603269894E+02  0.26940172785E+03  0.27702251002E+03  0.47000000000E+01 0. -1.
        -13    1    6    6    0    0  0.18214833155E+02  0.63153863104E+01  0.21018158649E+03  0.21106388499E+03  0.00000000000E+00 0.  1.
         14    1    6    6    0    0  0.66296732130E+02 -0.56592853560E+02  0.23063002540E+03  0.24655266452E+03  0.00000000000E+00 0. -1.
         -5    1    3    3    0  503 -0.40406535967E+02 -0.26368680692E+02  0.10212657944E+03  0.11304832461E+03  0.47000000000E+01 0.  1.
         11    1    4    4    0    0  0.40458902291E+02  0.23634294141E+02  0.18454563329E+03  0.19040113813E+03  0.00000000000E+00 0. -1.
        -12    1    4    4    0    0 -0.23263018903E+02  0.72615123695E+02  0.51084006271E+03  0.51649946167E+03  0.00000000000E+00 0.  1.
</event>
<event>
12    1  0.8453150E-002  0.2043076E+03  0.7818608E-02  0.1147121E+00
         21   -1    0    0  503  502  0.00000000000E+00  0.00000000000E+00  0.55485308497E+03  0.55485308497E+03  0.00000000000E+00 0.  1.
         21   -1    0    0  501  503 -0.00000000000E+00 -0.00000000000E+00 -0.74606337677E+02  0.74606337677E+02  0.00000000000E+00 0. -1.
          6    2    1    2  501    0 -0.10568367299E+03  0.33991881233E+02  0.28069503403E+03  0.34717618256E+03  0.17151417691E+03 0.  0.
         24    2    3    3    0    0 -0.60496841222E+02 -0.38953506133E+02  0.20944017545E+03  0.23554185014E+03  0.80234236071E+02 0.  0.
         -6    2    1    2    0  502  0.10568367299E+03 -0.33991881233E+02  0.19955171326E+03  0.28228324009E+03  0.16594714412E+03 0.  0.
        -24    2    5    5    0    0  0.98357147684E+02 -0.62114135218E+02  0.87125478935E+02  0.16606668658E+03  0.80343020974E+02 0.  0.
          5    1    3    3  501    0 -0.45186831769E+02  0.72945387366E+02  0.71254858577E+02  0.11163433242E+03  0.47000000000E+01 0. -1.
        -11    1    4    4    0    0 -0.85995518892E+01  0.14551351250E+02  0.10986772602E+03  0.11116029568E+03  0.00000000000E+00 0.  1.
         12    1    4    4    0    0 -0.51897289333E+02 -0.53504857383E+02  0.99572449430E+02  0.12438155446E+03  0.00000000000E+00 0. -1.
         -5    1    5    5    0  502  0.73265253068E+01  0.28122253985E+02  0.11242623433E+03  0.11621655350E+03  0.47000000000E+01 0.  1.
         11    1    6    6    0    0  0.95138490303E+02 -0.56897577659E+02  0.10158589496E+03  0.15036076860E+03  0.00000000000E+00 0. -1.
        -12    1    6    6    0    0  0.32186573805E+01 -0.52165575585E+01 -0.14460416023E+02  0.15705917982E+02  0.00000000000E+00 0.  1.
</event>
<event>
12    1  0.8453150E-002  0.1798441E+03  0.7818608E-02  0.1168387E+00
         21   -1    0    0  501  502  0.00000000000E+00  0.00000000000E+00  0.15748906610E+04  0.15748906610E+04  0.00000000000E+00 0.  1.
         21   -1    0    0  502  503 -0.00000000000E+00 -0.00000000000E+00 -0.43306834641E+02  0.43306834641E+02  0.00000000000E+00 0.  1.
         -6    2    1    2    0  503  0.32356035890E+02  0.30880510782E+02  0.17472762638E+03  0.24947449449E+03  0.17235794435E+03 0.  0.
        -24    2    3    3    0    0  0.74554530002E+02  0.55229705452E+02  0.15393527495E+03  0.19629547547E+03  0.78912270966E+02 0.  0.
          6    2    1    2  501    0 -0.32356035890E+02 -0.30880510782E+02  0.13568562000E+04  0.13687230011E+04  0.17419353442E+03 0.  0.
         24    2    5    5    0    0  0.70547917007E+01  0.48831514975E+02  0.68042640335E+03  0.68645723170E+03  0.76217803967E+02 0.  0.
          5    1    5    5  501    0 -0.39410827591E+02 -0.79712025757E+02  0.67642979660E+03  0.68226576941E+03  0.47000000000E+01 0. -1.
        -11    1    6    6    0    0 -0.36668053201E+01 -0.11036604374E+02  0.36700006477E+03  0.36718428566E+03  0.00000000000E+00 0.  1.
         12    1    6    6    0    0  0.10721597021E+02  0.59868119349E+02  0.31342633858E+03  0.31927294604E+03  0.00000000000E+00 0. -1.
         -5    1    3    3    0  503 -0.42198494112E+02 -0.24349194671E+02  0.20792351430E+02  0.53179019024E+02  0.47000000000E+01 0.  1.
         11    1    4    4    0    0 -0.25036297968E+01  0.31320655171E+02  0.83420650617E+02  0.89141777814E+02  0.00000000000E+00 0. -1.
        -12    1    4    4    0    0  0.77058159799E+02  0.23909050281E+02  0.70514624329E+02  0.10715369766E+03  0.00000000000E+00 0.  1.
</event>
<event>
12    1  0.8453150E-002  0.1955221E+03  0.7818608E-02  0.1153762E+00
         21   -1    0    0  501  502  0.00000000000E+00  0.00000000000E+00  0.36845841711E+03  0.36845841711E+03  0.00000000000E+00 0. -1.
         21   -1    0    0  502  503 -0.00000000000E+00 -0.00000000000E+00 -0.11008909672E+03  0.11008909672E+03  0.00000000000E+00 0. -1.
         -6    2    1    2    0  503  0.52142668831E+02  0.77877133766E+02  0.70007295182E+02  0.20767744771E+03  0.17159602278E+03 0.  0.
        -24    2    3    3    0    0  0.15699270993E+02 -0.24906280637E+02  0.38542954699E+02  0.94078828688E+02  0.80613129982E+02 0.  0.
          6    2    1    2  501    0 -0.52142668831E+02 -0.77877133766E+02  0.18836202521E+03  0.27087006611E+03  0.17060666546E+03 0.  0.
         24    2    5    5    0    0  0.72989415915E+00 -0.90848372470E+02  0.17787164897E+03  0.21522926324E+03  0.80195715120E+02 0.  0.
          5    1    5    5  501    0 -0.52872562990E+02  0.12971238703E+02  0.10490376241E+02  0.55640802873E+02  0.47000000000E+01 0. -1.
        -11    1    6    6    0    0  0.31334855461E+02 -0.36630920523E+02  0.35581393034E+02  0.59914380873E+02  0.00000000000E+00 0.  1.
         12    1    6    6    0    0 -0.30604961302E+02 -0.54217451946E+02  0.14229025593E+03  0.15531488237E+03  0.00000000000E+00 0. -1.
         -5    1    3    3    0  503  0.36443397838E+02  0.10278341440E+03  0.31464340483E+02  0.11359861902E+03  0.47000000000E+01 0.  1.
         11    1    4    4    0    0  0.12710886302E+02 -0.37540026987E+02 -0.12383908522E+02  0.41523263926E+02  0.00000000000E+00 0. -1.
        -12    1    4    4    0    0  0.29883846913E+01  0.12633746350E+02  0.50926863221E+02  0.52555564762E+02  0.00000000000E+00 0.  1.
</event>
<event>
12    1  0.8453150E-002  0.1950843E+03  0.7818608E-02  0.1154070E+00
         21   -1    0    0  503  502  0.00000000000E+00  0.00000000000E+00  0.68196241159E+03  0.68196241159E+03  0.00000000000E+00 0.  1.
         21   -1    0    0  501  503 -0.00000000000E+00 -0.00000000000E+00 -0.58440126957E+02  0.58440126957E+02  0.00000000000E+00 0.  1.
          6    2    1    2  501    0  0.31634286747E+02 -0.85186720065E+02  0.23053737387E+03  0.30165999082E+03  0.17202838120E+03 0.  0.
         24    2    3    3    0    0 -0.44346619979E+02 -0.53530157889E+02  0.90412092905E+02  0.13907948621E+03  0.79603118235E+02 0.  0.
         -6    2    1    2    0  502 -0.31634286747E+02  0.85186720065E+02  0.39298491076E+03  0.43874254773E+03  0.17262785906E+03 0.  0.
        -24    2    5    5    0    0 -0.33241774681E+02  0.45497269984E+02  0.88841320581E+02  0.13198001756E+03  0.79692707522E+02 0.  0.
          5    1    3    3  501    0  0.75980906726E+02 -0.31656562176E+02  0.14012528097E+03  0.16258050462E+03  0.47000000000E+01 0. -1.
        -11    1    4    4    0    0  0.58703928607E+01 -0.47957282685E+02  0.68930776590E+02  0.84177279809E+02  0.00000000000E+00 0.  1.
         12    1    4    4    0    0 -0.50217012840E+02 -0.55728752042E+01  0.21481316315E+02  0.54902206396E+02  0.00000000000E+00 0. -1.
         -5    1    5    5    0  502  0.16074879335E+01  0.39689450081E+02  0.30414359018E+03  0.30676253017E+03  0.47000000000E+01 0.  1.
         13    1    6    6    0    0 -0.15055370022E+01 -0.21264401641E+02  0.33214609591E+02  0.39467096537E+02  0.00000000000E+00 0. -1.
        -14    1    6    6    0    0 -0.31736237679E+02  0.66761671625E+02  0.55626710991E+02  0.92512921021E+02  0.00000000000E+00 0.  1.
</event>
<event>
12    1  0.8453150E-002  0.1968031E+03  0.7818608E-02  0.1152623E+00
         21   -1    0    0  503  502  0.00000000000E+00  0.00000000000E+00  0.95045542725E+03  0.95045542725E+03  0.00000000000E+00 0.  1.
         21   -1    0    0  501  503 -0.00000000000E+00 -0.00000000000E+00 -0.41674199892E+02  0.41674199892E+02  0.00000000000E+00 0.  1.
          6    2    1    2  501    0 -0.47456398162E+02  0.77838851918E+02  0.37386125424E+03  0.42215521198E+03  0.17358510588E+03 0.  0.
         24    2    3    3    0    0 -0.72740292817E+02  0.10904363509E+03  0.26962443681E+03  0.31034994408E+03  0.80237686370E+02 0.  0.
         -6    2    1    2    0  502  0.47456398162E+02 -0.77838851918E+02  0.53491997312E+03  0.56997441516E+03  0.17441462010E+03 0.  0.
        -24    2    5    5    0    0  0.36046756326E+02 -0.23928869080E+02  0.49108372648E+03  0.49940407652E+03  0.79807554892E+02 0.  0.
          5    1    3    3  501    0  0.25283894655E+02 -0.31204783170E+02  0.10423681743E+03  0.11180526790E+03  0.47000000000E+01 0. -1.
        -11    1    4    4    0    0 -0.13995617807E+02  0.40953222847E+02  0.17308594102E+03  0.17841464838E+03  0.00000000000E+00 0.  1.
         12    1    4    4    0    0 -0.58744675011E+02  0.68090412242E+02  0.96538495789E+02  0.13193529570E+03  0.00000000000E+00 0. -1.
         -5    1    5    5    0  502  0.11409641836E+02 -0.53909982839E+02  0.43836246640E+02  0.70570338641E+02  0.47000000000E+01 0.  1.
         13    1    6    6    0    0 -0.19898149244E+02  0.10730600671E+02  0.81948257216E+02  0.85009405332E+02  0.00000000000E+00 0. -1.
        -14    1    6    6    0    0  0.55944905569E+02 -0.34659469751E+02  0.40913546926E+03  0.41439467119E+03  0.00000000000E+00 0.  1.
</event>
<event>
12    1  0.8453150E-002  0.1788515E+03  0.7818608E-02  0.1169044E+00
         21   -1    0    0  501  502  0.00000000000E+00  0.00000000000E+00  0.53530856102E+02  0.53530856102E+02  0.00000000000E+00 0. -1.
         21   -1    0    0  502  503 -0.00000000000E+00 -0.00000000000E+00 -0.74989353579E+03  0.74989353579E+03  0.00000000000E+00 0. -1.
         -6    2    1    2    0  503  0.44490551701E+02  0.10729778154E+01 -0.52985155840E+03  0.55906027731E+03  0.17269962146E+03 0.  0.
        -24    2    3    3    0    0 -0.21562918431E+02 -0.19663277829E+02 -0.17665068263E+03  0.19910750005E+03  0.87101830949E+02 0.  0.
          6    2    1    2  501    0 -0.44490551701E+02 -0.10729778154E+01 -0.16651112129E+03  0.24436411458E+03  0.17322617155E+03 0.  0.
         24    2    5    5    0    0 -0.17504169771E+02 -0.65636557398E+01 -0.19085651835E+03  0.20730739169E+03  0.78744311013E+02 0.  0.
          5    1    5    5  501    0 -0.26986381930E+02  0.54906779244E+01  0.24345397059E+02  0.37056722895E+02  0.47000000000E+01 0. -1.
        -13    1    6    6    0    0 -0.43319993717E+01 -0.33164889922E+02 -0.16367881530E+03  0.16706115862E+03  0.00000000000E+00 0.  1.
         14    1    6    6    0    0 -0.13172170400E+02  0.26601234182E+02 -0.27177703043E+02  0.40246233063E+02  0.00000000000E+00 0. -1.
         -5    1    3    3    0  503  0.66053470132E+02  0.20736255645E+02 -0.35320087577E+03  0.35995277726E+03  0.47000000000E+01 0.  1.
         13    1    4    4    0    0 -0.32218712056E+02 -0.10497185072E+02 -0.18119434197E+03  0.18433563373E+03  0.00000000000E+00 0. -1.
        -14    1    4    4    0    0  0.10655793626E+02 -0.91660927573E+01  0.45436593402E+01  0.14771866315E+02  0.00000000000E+00 0.  1.
</event>
<event>
12    1  0.8453150E-002  0.1980079E+03  0.7818608E-02  0.1151654E+00
         21   -1    0    0  501  502  0.00000000000E+00  0.00000000000E+00  0.35031459237E+03  0.35031459237E+03  0.00000000000E+00 0.  1.
         21   -1    0    0  502  503 -0.00000000000E+00 -0.00000000000E+00 -0.15122176972E+03  0.15122176972E+03  0.00000000000E+00 0. -1.
         -6    2    1    2    0  503  0.80091691703E+02  0.47009050337E+02  0.22814814146E+03  0.30140801820E+03  0.17369711883E+03 0.  0.
        -24    2    3    3    0    0  0.27699804864E+02  0.31944330518E+02  0.27364922048E+02  0.93302643961E+02  0.78541867623E+02 0.  0.
          6    2    1    2  501    0 -0.80091691703E+02 -0.47009050337E+02 -0.29055318809E+02  0.20012834390E+03  0.17487885117E+03 0.  0.
         24    2    5    5    0    0 -0.10657908941E+03 -0.37968916531E+02  0.21148733989E+02  0.14245822014E+03  0.83942448221E+02 0.  0.
          5    1    5    5  501    0  0.26487397711E+02 -0.90401338064E+01 -0.50204052798E+02  0.57670123756E+02  0.47000000000E+01 0. -1.
        -13    1    6    6    0    0 -0.10581664504E+03 -0.20997392290E+02  0.41819624993E+02  0.11570191824E+03  0.00000000000E+00 0.  1.
         14    1    6    6    0    0 -0.76244437720E+00 -0.16971524240E+02 -0.20670891004E+02  0.26756301900E+02  0.00000000000E+00 0. -1.
         -5    1    3    3    0  503  0.52391886839E+02  0.15064719820E+02  0.20078321941E+03  0.20810537424E+03  0.47000000000E+01 0.  1.
         11    1    4    4    0    0  0.52398985403E+01 -0.16028231168E+02 -0.17194199581E+02  0.24083214701E+02  0.00000000000E+00 0. -1.
        -12    1    4    4    0    0  0.22459906324E+02  0.47972561685E+02  0.44559121629E+02  0.69219429260E+02  0.00000000000E+00 0.  1.
</event>
<event>
12    1  0.8453150E-002  0.1720834E+03  0.7818608E-02  0.1176330E+00
         21   -1    0    0  503  502  0.00000000000E+00  0.00000000000E+00  0.39440219958E+03  0.39440219958E+03  0.00000000000E+00 0.  1.
         21   -1    0    0  501  503 -0.00000000000E+00 -0.00000000000E+00 -0.87311761277E+02  0.87311761277E+02  0.00000000000E+00 0.  1.
          6    2    1    2  501    0  0.56244141062E+01  0.10824028158E+02  0.58599014243E+02  0.17945464533E+03  0.16917840182E+03 0.  0.
         24    2    3    3    0    0 -0.18364301502E+02  0.65528817617E+02  0.16269191938E+02  0.10609269114E+03  0.79747720966E+02 0.  0.
         -6    2    1    2    0  502 -0.56244141062E+01 -0.10824028158E+02  0.24849142406E+03  0.30225931552E+03  0.17165055308E+03 0.  0.
        -24    2    5    5    0    0 -0.48195473227E+02 -0.44014877173E+02  0.97675732383E+02  0.14200517240E+03  0.79779742039E+02 0.  0.
          5    1    3    3  501    0  0.23988715608E+02 -0.54704789459E+02  0.42329822305E+02  0.73361954191E+02  0.47000000000E+01 0. -1.
        -13    1    4    4    0    0 -0.41631354090E+02  0.50432003330E+02  0.33463232290E+02  0.73459815672E+02  0.00000000000E+00 0.  1.
         14    1    4    4    0    0  0.23267052588E+02  0.15096814287E+02 -0.17194040352E+02  0.32632875469E+02  0.00000000000E+00 0. -1.
         -5    1    5    5    0  502  0.42571059121E+02  0.33190849015E+02  0.15081569167E+03  0.16025414312E+03  0.47000000000E+01 0.  1.
         11    1    6    6    0    0 -0.16010519397E+02 -0.47147251831E+02  0.13140820907E+02  0.51496419882E+02  0.00000000000E+00 0. -1.
        -12    1    6    6    0    0 -0.32184953831E+02  0.31323746586E+01  0.84534911476E+02  0.90508752518E+02  0.00000000000E+00 0.  1.
</event>
<event>
12    1  0.8453150E-002  0.1796272E+03  0.7818608E-02  0.1168567E+00
         21   -1    0    0  503  502  0.00000000000E+00  0.00000000000E+00  0.77633325078E+03  0.77633325078E+03  0.00000000000E+00 0.  1.
         21   -1    0    0  501  503 -0.00000000000E+00 -0.00000000000E+00 -0.42993842089E+02  0.42993842089E+02  0.00000000000E+00 0. -1.
          6    2    1    2  501    0 -0.43325122911E+02 -0.18350259182E+02  0.28091553804E+03  0.33254860750E+03  0.17164276435E+03 0.  0.
         24    2    3    3    0    0 -0.25612137294E+02  0.30456800664E+02  0.65987077208E+02  0.11138755255E+03  0.80431922904E+02 0.  0.
         -6    2    1    2    0  502  0.43325122911E+02  0.18350259182E+02  0.45242387065E+03  0.48677848537E+03  0.17335552138E+03 0.  0.
        -24    2    5    5    0    0 -0.11355024487E+02  0.57237469253E+02  0.35318767305E+03  0.36689501469E+03  0.80407430904E+02 0.  0.
          5    1    3    3  501    0 -0.17712985617E+02 -0.48807059846E+02  0.21492846083E+03  0.22116105495E+03  0.47000000000E+01 0. -1.
        -11    1    4    4    0    0 -0.34037076642E+02  0.48237367134E+02  0.69723385873E+02  0.91360367293E+02  0.00000000000E+00 0.  1.
         12    1    4    4    0    0  0.84249393487E+01 -0.17780566470E+02 -0.37363086647E+01  0.20027185261E+02  0.00000000000E+00 0. -1.
         -5    1    5    5    0  502  0.54680147398E+02 -0.38887210071E+02  0.99236197600E+02  0.11988347067E+03  0.47000000000E+01 0.  1.
         11    1    6    6    0    0  0.25951986645E+02  0.19796471739E+02  0.23716139886E+03  0.23939702382E+03  0.00000000000E+00 0. -1.
        -12    1    6    6    0    0 -0.37307011133E+02  0.37440997514E+02  0.11602627419E+03  0.12749799087E+03  0.00000000000E+00 0.  1.
</event>
<event>
12    1  0.8453150E-002  0.1983800E+03  0.7818608E-02  0.1151896E+00
         21   -1    0    0  501  502  0.00000000000E+00  0.00000000000E+00  0.10429405642E+03  0.10429405642E+03  0.00000000000E+00 0. -1.
         21   -1    0    0  502  503 -0.00000000000E+00 -0.00000000000E+00 -0.43266883170E+03  0.43266883170E+03  0.00000000000E+00 0. -1.
         -6    2    1    2    0  503 -0.88871085995E+02  0.37435558931E+01 -0.26468822638E+03  0.32861076583E+03  0.17324287604E+03 0.  0.
        -24    2    3    3    0    0 -0.39922972975E+01  0.44904952303E+02 -0.17909363315E+03  0.20114628562E+03  0.79705116549E+02 0.  0.
          6    2    1    2  501    0  0.88871085995E+02 -0.37435558931E+01 -0.63686548899E+02  0.20835212229E+03  0.17732046192E+03 0.  0.
         24    2    5    5    0    0 -0.14000310405E+02  0.95070734224E+01  0.75647354383E+01  0.82427784315E+02  0.80316382316E+02 0.  0.
          5    1    5    5  501    0  0.10287139640E+03 -0.13250629316E+02 -0.71251284338E+02  0.12592433797E+03  0.47000000000E+01 0. -1.
        -11    1    6    6    0    0  0.23563097718E+02  0.53134272288E+01 -0.23351928671E+02  0.33597092964E+02  0.00000000000E+00 0.  1.
         12    1    6    6    0    0 -0.37563408123E+02  0.41936461936E+01  0.30916664109E+02  0.48830691351E+02  0.00000000000E+00 0. -1.
         -5    1    3    3    0  503 -0.84878788697E+02 -0.41161396410E+02 -0.85594593229E+02  0.12746448021E+03  0.47000000000E+01 0.  1.
         11    1    4    4    0    0  0.31739235589E+02 -0.28186648316E+01 -0.66664752681E+02  0.73888518710E+02  0.00000000000E+00 0. -1.
        -12    1    4    4    0    0 -0.35731532886E+02  0.47723617134E+02 -0.11242888047E+03  0.12725776691E+03  0.00000000000E+00 0.  1.
</event>
<event>
12    1  0.8453150E-002  0.1914868E+03  0.7818608E-02  0.1158076E+00
         21   -1    0    0  503  502  0.00000000000E+00  0.00000000000E+00  0.71637316624E+02  0.71637316624E+02  0.00000000000E+00 0. -1.
         21   -1    0    0  501  503 -0.00000000000E+00 -0.00000000000E+00 -0.58286706088E+03  0.58286706088E+03  0.00000000000E+00 0. -1.
          6    2    1    2  501    0  0.72134061623E+02 -0.43716196525E+02 -0.38093249539E+03  0.42635286830E+03  0.17190920156E+03 0.  0.
         24    2    3    3    0    0  0.25483126738E+02 -0.23555138680E+02 -0.36130146512E+03  0.37166973262E+03  0.79971289472E+02 0.  0.
         -6    2    1    2    0  502 -0.72134061623E+02  0.43716196525E+02 -0.13029724887E+03  0.22815150920E+03  0.16721635507E+03 0.  0.
        -24    2    5    5    0    0 -0.62823295750E+02 -0.30399897975E+02 -0.97513709376E+02  0.14644021080E+03  0.84052909153E+02 0.  0.
          5    1    3    3  501    0  0.46650934885E+02 -0.20161057845E+02 -0.19631030272E+02  0.54683135687E+02  0.47000000000E+01 0. -1.
        -11    1    4    4    0    0  0.18186528679E+02  0.28297313388E+02 -0.11267052675E+03  0.11758458814E+03  0.00000000000E+00 0.  1.
         12    1    4    4    0    0  0.72965980582E+01 -0.51852452068E+02 -0.24863093837E+03  0.25408514447E+03  0.00000000000E+00 0. -1.
         -5    1    5    5    0  502 -0.93107658726E+01  0.74116094499E+02 -0.32783539492E+02  0.81711298402E+02  0.47000000000E+01 0.  1.
         13    1    6    6    0    0 -0.28555320030E+02  0.28833345176E+02 -0.31671629800E+02  0.51476793123E+02  0.00000000000E+00 0. -1.
        -14    1    6    6    0    0 -0.34267975721E+02 -0.59233243150E+02 -0.65842079577E+02  0.94963417678E+02  0.00000000000E+00 0.  1.
</event>
<event>
12    1  0.8453150E-002  0.1779815E+03  0.7818608E-02  0.1169817E+00
         21   -1    0    0  503  502  0.00000000000E+00  0.00000000000E+00  0.92631452145E+02  0.92631452145E+02  0.00000000000E+00 0. -1.
         21   -1    0    0  501  503 -0.00000000000E+00 -0.00000000000E+00 -0.35606773279E+03  0.35606773279E+03  0.00000000000E+00 0. -1.
          6    2    1    2  501    0 -0.26384279928E+02 -0.35225548713E+02 -0.86578000836E+02  0.19792214337E+03  0.17245421160E+03 0.  0.
         24    2    3    3    0    0  0.42807757755E+02  0.13979238564E+02 -0.56322199016E+02  0.10766610361E+03  0.79949212193E+02 0.  0.
         -6    2    1    2    0  502  0.26384279928E+02  0.35225548713E+02 -0.17685827981E+03  0.25077704156E+03  0.17225940882E+03 0.  0.
        -24    2    5    5    0    0 -0.30417069557E+01  0.36039028622E+02 -0.19655080075E+03  0.21504979937E+03  0.79411179102E+02 0.  0.
          5    1    3    3  501    0 -0.69192037683E+02 -0.49204787277E+02 -0.30255801820E+02  0.90256039762E+02  0.47000000000E+01 0. -1.
        -13    1    4    4    0    0  0.40842344598E+02 -0.25527199805E+02 -0.46415793647E+02  0.66889169093E+02  0.00000000000E+00 0.  1.
         14    1    4    4    0    0  0.19654131567E+01  0.39506438369E+02 -0.99064053691E+01  0.40776934519E+02  0.00000000000E+00 0. -1.
         -5    1    5    5    0  502  0.29425986884E+02 -0.81347990891E+00  0.19692520943E+02  0.35727242194E+02  0.47000000000E+01 0.  1.
         13    1    6    6    0    0  0.10753882986E+02  0.10062175520E+02  0.15213934758E+01  0.14805675046E+02  0.00000000000E+00 0. -1.
        -14    1    6    6    0    0 -0.13795589941E+02  0.25976853102E+02 -0.19807219423E+03  0.20024412432E+03  0.00000000000E+00 0.  1.
</event>
<event>
12    1  0.8453150E-002  0.2027120E+03  0.7818608E-02  0.1149082E+00
         21   -1    0    0  503  502  0.00000000000E+00  0.00000000000E+00  0.21885951670E+02  0.21885951670E+02  0.00000000000E+00 0. -1.
         21   -1    0    0  501  503 -0.00000000000E+00 -0.00000000000E+00 -0.18077383424E+04  0.18077383424E+04  0.00000000000E+00 0. -1.
          6    2    1    2  501    0  0.19779038219E+02  0.10419760931E+03 -0.88064588951E+03  0.90199777526E+03  0.16375118848E+03 0.  0.
         24    2    3    3    0    0 -0.24764932472E+01 -0.54587911196E+01 -0.44299056133E+03  0.45024108066E+03  0.80252488210E+02 0.  0.
         -6    2    1    2    0  502 -0.19779038219E+02 -0.10419760931E+03 -0.90520650127E+03  0.92762651886E+03  0.17275357133E+03 0.  0.
        -24    2    5    5    0    0 -0.74968534013E+02 -0.47659005781E+02 -0.44908505139E+03  0.46468876799E+03  0.79791013229E+02 0.  0.
          5    1    3    3  501    0  0.22255531466E+02  0.10965640043E+03 -0.43765532818E+03  0.45175669460E+03  0.47000000000E+01 0. -1.
        -11    1    4    4    0    0  0.31672312514E+02 -0.21413172751E+02 -0.29753787256E+03  0.29998407450E+03  0.00000000000E+00 0.  1.
         12    1    4    4    0    0 -0.34148805761E+02  0.15954381631E+02 -0.14545268877E+03  0.15025700616E+03  0.00000000000E+00 0. -1.
         -5    1    5    5    0  502  0.55189495794E+02 -0.56538603532E+02 -0.45612144988E+03  0.46293775087E+03  0.47000000000E+01 0.  1.
         13    1    6    6    0    0 -0.11724803313E+02 -0.14865466524E+02 -0.28717989234E+03  0.28780330727E+03  0.00000000000E+00 0. -1.
        -14    1    6    6    0    0 -0.63243730700E+02 -0.32793539257E+02 -0.16190515904E+03  0.17688546072E+03  0.00000000000E+00 0.  1.
</event>
<event>
12    1  0.8453150E-002  0.2925708E+03  0.7818608E-02  0.1089237E+00
         21   -1    0    0  503  502  0.00000000000E+00  0.00000000000E+00  0.24651940072E+04  0.24651940072E+04  0.00000000000E+00 0. -1.
         21   -1    0    0  501  503 -0.00000000000E+00 -0.00000000000E+00 -0.34738032035E+02  0.34738032035E+02  0.00000000000E+00 0.  1.
          6    2    1    2  501    0 -0.23072469016E+03 -0.39309025880E+02  0.13109646822E+04  0.13428415487E+04  0.17267294213E+03 0.  0.
         24    2    3    3    0    0 -0.13908863587E+03  0.38681367200E+02  0.60825005822E+03  0.62988320453E+03  0.77089695979E+02 0.  0.
         -6    2    1    2    0  502  0.23072469016E+03  0.39309025880E+02  0.11194912930E+04  0.11570904905E+04  0.17555217442E+03 0.  0.
        -24    2    5    5    0    0  0.19155669352E+03 -0.31980452626E+02  0.75610105642E+03  0.78467825151E+03  0.79463417367E+02 0.  0.
          5    1    3    3  501    0 -0.91636054292E+02 -0.77990393080E+02  0.70271462396E+03  0.71295834422E+03  0.47000000000E+01 0. -1.
        -11    1    4    4    0    0 -0.11672943279E+03 -0.81592670413E+00  0.39664855985E+03  0.41346886975E+03  0.00000000000E+00 0.  1.
         12    1    4    4    0    0 -0.22359203080E+02  0.39497293904E+02  0.21160149837E+03  0.21641433478E+03  0.00000000000E+00 0. -1.
         -5    1    5    5    0  502  0.39167996644E+02  0.71289478506E+02  0.36339023657E+03  0.37241223897E+03  0.47000000000E+01 0.  1.
         11    1    6    6    0    0  0.14119395537E+03 -0.41348558346E+02  0.65523772647E+03  0.67155187029E+03  0.00000000000E+00 0. -1.
        -12    1    6    6    0    0  0.50362738154E+02  0.93681057203E+01  0.10086332995E+03  0.11312638122E+03  0.00000000000E+00 0.  1.
</event>
<event>
12    1  0.8453150E-002  0.2099020E+03  0.7818608E-02  0.1142342E+00
         21   -1    0    0  501  502  0.00000000000E+00  0.00000000000E+00  0.29927043449E+03  0.29927043449E+03  0.00000000000E+00 0.  1.
         21   -1    0    0  502  503 -0.00000000000E+00 -0.00000000000E+00 -0.24234076718E+03  0.24234076718E+03  0.00000000000E+00 0.  1.
         -6    2    1    2    0  503  0.10474842440E+03 -0.41294516163E+02 -0.14321084423E+03  0.25410268736E+03  0.17714784881E+03 0.  0.
        -24    2    3    3    0    0  0.17115622492E+02 -0.62603196230E+02 -0.27338064139E+02  0.10719401171E+03  0.80815108012E+02 0.  0.
          6    2    1    2  501    0 -0.10474842440E+03  0.41294516163E+02  0.20014051154E+03  0.28750851431E+03  0.17299552586E+03 0.  0.
         24    2    5    5    0    0 -0.88169454336E+02 -0.15357617180E+02  0.19533007027E+03  0.22809844105E+03  0.76585595065E+02 0.  0.
          5    1    5    5  501    0 -0.16578970063E+02  0.56652133343E+02  0.48104412632E+01  0.59410073269E+02  0.47000000000E+01 0. -1.
        -13    1    6    6    0    0 -0.63434610649E+02  0.21199483535E+02  0.15283070970E+03  0.16682503936E+03  0.00000000000E+00 0.  1.
         14    1    6    6    0    0 -0.24734843688E+02 -0.36557100715E+02  0.42499360572E+02  0.61273401684E+02  0.00000000000E+00 0. -1.
         -5    1    3    3    0  503  0.87632801907E+02  0.21308680067E+02 -0.11587278009E+03  0.14690867565E+03  0.47000000000E+01 0.  1.
         13    1    4    4    0    0  0.20982085290E+02  0.89388269251E+01  0.11667524345E+02  0.25617994735E+02  0.00000000000E+00 0. -1.
        -14    1    4    4    0    0 -0.38664627981E+01 -0.71542023155E+02 -0.39005588484E+02  0.81576016970E+02  0.00000000000E+00 0.  1.
</event>
<event>
12    1  0.8453150E-002  0.1900601E+03  0.7818608E-02  0.1158422E+00
         21   -1    0    0  501  502  0.00000000000E+00  0.00000000000E+00  0.15652283141E+04  0.15652283141E+04  0.00000000000E+00 0. -1.
         21   -1    0    0  502  503 -0.00000000000E+00 -0.00000000000E+00 -0.25086408876E+02  0.25086408876E+02  0.00000000000E+00 0. -1.
         -6    2    1    2    0  503  0.53815206496E+02 -0.59900071907E+02  0.54453092556E+03  0.57672503722E+03  0.17208644514E+03 0.  0.
        -24    2    3    3    0    0 -0.10766444827E+02  0.32875139969E+02  0.18783840313E+03  0.20251964551E+03  0.67336839591E+02 0.  0.
          6    2    1    2  501    0 -0.53815206496E+02  0.59900071907E+02  0.99561097964E+03  0.10135896857E+04  0.17215903455E+03 0.  0.
         24    2    5    5    0    0  0.35058005009E+02  0.10893552865E+02  0.44181693281E+03  0.45055325446E+03  0.80301306214E+02 0.  0.
          5    1    5    5  501    0 -0.88873211505E+02  0.49006519042E+02  0.55379404682E+03  0.56303643126E+03  0.47000000000E+01 0. -1.
        -13    1    6    6    0    0  0.52641698368E+01  0.20388207884E+02  0.25529361971E+02  0.33092881825E+02  0.00000000000E+00 0.  1.
         14    1    6    6    0    0  0.29793835172E+02 -0.94946550191E+01  0.41628757084E+03  0.41746037264E+03  0.00000000000E+00 0. -1.
         -5    1    3    3    0  503  0.64581651323E+02 -0.92775211876E+02  0.35669252244E+03  0.37420539171E+03  0.47000000000E+01 0.  1.
         11    1    4    4    0    0 -0.69180158470E+01  0.21116377836E+02  0.10198388559E+02  0.24449283944E+02  0.00000000000E+00 0. -1.
        -12    1    4    4    0    0 -0.38484289801E+01  0.11758762132E+02  0.17764001457E+03  0.17807036157E+03  0.00000000000E+00 0.  1.
</event>
<event>
12    1  0.8453150E-002  0.1812133E+03  0.7818608E-02  0.1166711E+00
         21   -1    0    0  503  502  0.00000000000E+00  0.00000000000E+00  0.10288097307E+03  0.10288097307E+03  0.00000000000E+00 0.  1.
         21   -1    0    0  501  503 -0.00000000000E+00 -0.00000000000E+00 -0.47479530240E+03  0.47479530240E+03  0.00000000000E+00 0.  1.
          6    2    1    2  501    0  0.21985556560E+02 -0.14200201873E+01 -0.35150139881E+03  0.39531685469E+03  0.17954609738E+03 0.  0.
         24    2    3    3    0    0  0.47074813991E+02 -0.61797121083E+02 -0.18395825778E+03  0.21540671252E+03  0.80774308457E+02 0.  0.
         -6    2    1    2    0  502 -0.21985556560E+02  0.14200201873E+01 -0.20412930524E+02  0.18235942079E+03  0.17986908979E+03 0.  0.
        -24    2    5    5    0    0 -0.84184150699E+02 -0.85866061059E+01 -0.38623750760E+01  0.11705391897E+03  0.80783667722E+02 0.  0.
          5    1    3    3  501    0 -0.25089257431E+02  0.60377100896E+02 -0.16754314103E+03  0.17991014218E+03  0.47000000000E+01 0. -1.
        -11    1    4    4    0    0  0.37744687888E+02  0.41383010295E+01 -0.32594340799E+02  0.50041763072E+02  0.00000000000E+00 0.  1.
         12    1    4    4    0    0  0.93301261029E+01 -0.65935422113E+02 -0.15136391698E+03  0.16536494944E+03  0.00000000000E+00 0. -1.
         -5    1    5    5    0  502  0.62198594138E+02  0.10006626293E+02 -0.16550555448E+02  0.65305501822E+02  0.47000000000E+01 0.  1.
         13    1    6    6    0    0 -0.23657389104E+02  0.34047591108E+02 -0.10359769360E+02  0.42734474850E+02  0.00000000000E+00 0. -1.
        -14    1    6    6    0    0 -0.60526761594E+02 -0.42634197214E+02  0.64973942845E+01  0.74319444116E+02  0.00000000000E+00 0.  1.
</event>
<event>
12    1  0.8453150E-002  0.2531491E+03  0.7818608E-02  0.1111809E+00
         21   -1    0    0  503  502  0.00000000000E+00  0.00000000000E+00  0.23478099321E+03  0.23478099321E+03  0.00000000000E+00 0. -1.
         21   -1    0    0  501  503 -0.00000000000E+00 -0.00000000000E+00 -0.26986932814E+03  0.26986932814E+03  0.00000000000E+00 0.  1.
          6    2    1    2  501    0 -0.16915352536E+03  0.74908351182E+02 -0.10798910224E+02  0.25337936896E+03  0.17280136554E+03 0.  0.
         24    2    3    3    0    0 -0.14500312346E+03  0.94425409110E+02 -0.55701712342E+02  0.19858421315E+03  0.79943387813E+02 0.  0.
         -6    2    1    2    0  502  0.16915352536E+03 -0.74908351182E+02 -0.24289424709E+02  0.25127095239E+03  0.16829420413E+03 0.  0.
        -24    2    5    5    0    0  0.50978626052E+02 -0.95165226632E+01  0.37233803300E+02  0.10278325711E+03  0.80552202434E+02 0.  0.
          5    1    3    3  501    0 -0.24150401895E+02 -0.19517057927E+02  0.44902802118E+02  0.54795155806E+02  0.47000000000E+01 0. -1.
        -11    1    4    4    0    0 -0.90587364979E+02  0.49378694071E+02 -0.72344687505E+02  0.12600825343E+03  0.00000000000E+00 0.  1.
         12    1    4    4    0    0 -0.54415758485E+02  0.45046715038E+02  0.16642975163E+02  0.72575959721E+02  0.00000000000E+00 0. -1.
         -5    1    5    5    0  502  0.11817489931E+03 -0.65391828519E+02 -0.61523228010E+02  0.14848769527E+03  0.47000000000E+01 0.  1.
         13    1    6    6    0    0  0.68619378338E+02  0.68819359195E+01  0.37893956525E+02  0.78688830635E+02  0.00000000000E+00 0. -1.
        -14    1    6    6    0    0 -0.17640752286E+02 -0.16398458583E+02 -0.66015322418E+00  0.24094426480E+02  0.00000000000E+00 0.  1.
</event>
<event>
12    1  0.8453150E-002  0.2371897E+03  0.7818608E-02  0.1121748E+00
         21   -1    0    0  501  502  0.00000000000E+00  0.00000000000E+00  0.31611904844E+02  0.31611904844E+02  0.00000000000E+00 0. -1.
         21   -1    0    0  502  503 -0.00000000000E+00 -0.00000000000E+00 -0.17778540668E+04  0.17778540668E+04  0.00000000000E+00 0. -1.
         -6    2    1    2    0  503 -0.39211243032E+02  0.15825833693E+03 -0.89594150026E+03  0.92670316299E+03  0.17171009764E+03 0.  0.
        -24    2    3    3    0    0 -0.44316950831E+02  0.61269620821E+02 -0.69340686924E+03  0.70203619598E+03  0.79522170460E+02 0.  0.
          6    2    1    2  501    0  0.39211243032E+02 -0.15825833693E+03 -0.85030066167E+03  0.88276280863E+03  0.17226647458E+03 0.  0.
         24    2    5    5    0    0  0.66927699539E+02 -0.70700106933E+02 -0.65332343800E+03  0.66537660334E+03  0.80104229305E+02 0.  0.
          5    1    5    5  501    0 -0.27716456507E+02 -0.87558229993E+02 -0.19697722368E+03  0.21738620529E+03  0.47000000000E+01 0. -1.
        -13    1    6    6    0    0  0.55572761864E+02 -0.81850058821E+01 -0.20436002002E+03  0.21193948184E+03  0.00000000000E+00 0.  1.
         14    1    6    6    0    0  0.11354937675E+02 -0.62515101051E+02 -0.44896341798E+03  0.45343712150E+03  0.00000000000E+00 0. -1.
         -5    1    3    3    0  503  0.51057077989E+01  0.96988716105E+02 -0.20253463102E+03  0.22466696701E+03  0.47000000000E+01 0.  1.
         13    1    4    4    0    0 -0.30472895286E+02  0.58679792139E+02 -0.25594932974E+03  0.26435199025E+03  0.00000000000E+00 0. -1.
        -14    1    4    4    0    0 -0.13844055545E+02  0.25898286815E+01 -0.43745753950E+03  0.43768420574E+03  0.00000000000E+00 0.  1.
</event>
<event>
12    1  0.8453150E-002  0.1961972E+03  0.7818608E-02  0.1153460E+00
         21   -1    0    0  501  502  0.00000000000E+00  0.00000000000E+00  0.72549197035E+03  0.72549197035E+03  0.00000000000E+00 0. -1.
         21   -1    0    0  502  503 -0.00000000000E+00 -0.00000000000E+00 -0.75910990111E+02  0.75910990111E+02  0.00000000000E+00 0. -1.
         -6    2    1    2    0  503  0.92487036145E+02  0.62595933443E+01  0.10089088336E+03  0.21869019840E+03  0.17045057398E+03 0.  0.
        -24    2    3    3    0    0  0.11750924008E+03  0.40556291645E+02  0.95483737892E+02  0.17563556537E+03  0.79230507537E+02 0.  0.
          6    2    1    2  501    0 -0.92487036145E+02 -0.62595933443E+01  0.54869009689E+03  0.58271276206E+03  0.17291705029E+03 0.  0.
         24    2    5    5    0    0 -0.36179216459E+02 -0.19367046109E+02  0.14155638256E+03  0.17146791137E+03  0.87630000618E+02 0.  0.
          5    1    5    5  501    0 -0.56307819687E+02  0.13107452765E+02  0.40713371433E+03  0.41124485069E+03  0.47000000000E+01 0. -1.
        -11    1    6    6    0    0 -0.46922286426E+01  0.34114274729E+02  0.56707307168E+02  0.66343947999E+02  0.00000000000E+00 0.  1.
         12    1    6    6    0    0 -0.31486987816E+02 -0.53481320838E+02  0.84849075392E+02  0.10512396337E+03  0.00000000000E+00 0. -1.
         -5    1    3    3    0  503 -0.25022203931E+02 -0.34296698300E+02  0.54071454642E+01  0.43054633037E+02  0.47000000000E+01 0.  1.
         11    1    4    4    0    0  0.95915231897E+02  0.64130529938E+02  0.76882334183E+02  0.13864829566E+03  0.00000000000E+00 0. -1.
        -12    1    4    4    0    0  0.21594008179E+02 -0.23574238294E+02  0.18601403709E+02  0.36987269706E+02  0.00000000000E+00 0.  1.
</event>
<event>
12    1  0.8453150E-002  0.2232146E+03  0.7818608E-02  0.1131811E+00
         21   -1    0    0  501  502  0.00000000000E+00  0.00000000000E+00  0.27052662462E+02  0.27052662462E+02  0.00000000000E+00 0.  1.
         21   -1    0    0  502  503 -0.00000000000E+00 -0.00000000000E+00 -0.19638131855E+04  0.19638131855E+04  0.00000000000E+00 0. -1.
         -6    2    1    2    0  503 -0.85538931131E+02  0.11386957263E+03 -0.12266125876E+04  0.12464635067E+04  0.16973404260E+03 0.  0.
        -24    2    3    3    0    0 -0.11828670717E+03  0.53412118079E+02 -0.88182289292E+03  0.89485357483E+03  0.79414774809E+02 0.  0.
          6    2    1    2  501    0  0.85538931131E+02 -0.11386957263E+03 -0.71014793540E+03  0.74440234120E+03  0.17187660436E+03 0.  0.
         24    2    5    5    0    0 -0.34869319770E+01 -0.65355935649E+02 -0.20067894383E+03  0.22492190784E+03  0.77680558126E+02 0.  0.
          5    1    5    5  501    0  0.89025863108E+02 -0.48513636980E+02 -0.50946899157E+03  0.51948043336E+03  0.47000000000E+01 0. -1.
        -13    1    6    6    0    0  0.22242680611E+02 -0.70136239340E+02 -0.16511259167E+03  0.18076503212E+03  0.00000000000E+00 0.  1.
         14    1    6    6    0    0 -0.25729612588E+02  0.47803036917E+01 -0.35566352154E+02  0.44156875715E+02  0.00000000000E+00 0. -1.
         -5    1    3    3    0  503  0.32747776039E+02  0.60457454550E+02 -0.34478969467E+03  0.35160993188E+03  0.47000000000E+01 0.  1.
         11    1    4    4    0    0 -0.66543894716E+02  0.68156985398E+02 -0.64501578610E+03  0.65201137175E+03  0.00000000000E+00 0. -1.
        -12    1    4    4    0    0 -0.51742812454E+02 -0.14744867319E+02 -0.23680710682E+03  0.24284220308E+03  0.00000000000E+00 0.  1.
</event>
<event>
12    1  0.8453150E-002  0.2921584E+03  0.7818608E-02  0.1089265E+00
         21   -1    0    0  503  502  0.00000000000E+00  0.00000000000E+00  0.30000159673E+03  0.30000159673E+03  0.00000000000E+00 0.  1.
         21   -1    0    0  501  503 -0.00000000000E+00 -0.00000000000E+00 -0.33578638477E+03  0.33578638477E+03  0.00000000000E+00 0. -1.
          6    2    1    2  501    0 -0.33569515149E+02  0.23341717573E+03 -0.14243558142E+03  0.32477207603E+03  0.17198405810E+03 0.  0.
         24    2    3    3    0    0  0.40719065133E+02  0.12251008368E+03 -0.41086516421E+02  0.15710305920E+03  0.79539339387E+02 0.  0.
         -6    2    1    2    0  502  0.33569515149E+02 -0.23341717573E+03  0.10665079339E+03  0.31101590547E+03  0.17247032050E+03 0.  0.
        -24    2    5    5    0    0  0.77324088121E+02 -0.21042920267E+03  0.94243769296E+02  0.25984038585E+03  0.91518709173E+02 0.  0.
          5    1    3    3  501    0 -0.74288580282E+02  0.11090709205E+03 -0.10134906500E+03  0.16766901683E+03  0.47000000000E+01 0. -1.
        -13    1    4    4    0    0  0.52830850393E+02  0.10785036324E+03 -0.56408196742E+02  0.13268264493E+03  0.00000000000E+00 0.  1.
         14    1    4    4    0    0 -0.12111785260E+02  0.14659720436E+02  0.15321680321E+02  0.24420414274E+02  0.00000000000E+00 0. -1.
         -5    1    5    5    0  502 -0.43754572972E+02 -0.22987973062E+02  0.12407024089E+02  0.51175519618E+02  0.47000000000E+01 0.  1.
         13    1    6    6    0    0  0.26791281941E+02 -0.40199878155E+02 -0.15928723750E+02  0.50867742549E+02  0.00000000000E+00 0. -1.
        -14    1    6    6    0    0  0.50532806180E+02 -0.17022932451E+03  0.11017249305E+03  0.20897264330E+03  0.00000000000E+00 0.  1.
</event>
<event>
12    1  0.8453150E-002  0.2122865E+03  0.7818608E-02  0.1140018E+00
         21   -1    0    0  501  502  0.00000000000E+00  0.00000000000E+00  0.67448471645E+03  0.67448471645E+03  0.00000000000E+00 0.  1.
         21   -1    0    0  502  503 -0.00000000000E+00 -0.00000000000E+00 -0.68217565984E+02  0.68217565984E+02  0.00000000000E+00 0.  1.
         -6    2    1    2    0  503  0.10843893861E+03  0.64442767754E+02  0.36263700355E+03  0.41955957687E+03  0.16915309183E+03 0.  0.
        -24    2    3    3    0    0  0.19165902607E+01  0.49840374317E+02  0.22588596858E+03  0.24553895695E+03  0.82323583177E+02 0.  0.
          6    2    1    2  501    0 -0.10843893861E+03 -0.64442767754E+02  0.24363014692E+03  0.32314270557E+03  0.17074450489E+03 0.  0.
         24    2    5    5    0    0 -0.11531216570E+03 -0.20633582511E+02  0.23711094724E+03  0.27807524584E+03  0.85916242709E+02 0.  0.
          5    1    5    5  501    0  0.68732270839E+01 -0.43809185243E+02  0.65191996787E+01  0.45067459731E+02  0.47000000000E+01 0. -1.
        -11    1    6    6    0    0 -0.29129224881E+02  0.31745497308E+02  0.89111844659E+02  0.98980852694E+02  0.00000000000E+00 0.  1.
         12    1    6    6    0    0 -0.86182940816E+02 -0.52379079819E+02  0.14799910258E+03  0.17909439314E+03  0.00000000000E+00 0. -1.
         -5    1    3    3    0  503  0.10652234835E+03  0.14602393437E+02  0.13675103497E+03  0.17402061992E+03  0.47000000000E+01 0.  1.
         13    1    4    4    0    0  0.39080603595E+02  0.42294177246E+02  0.12089796757E+03  0.13391194707E+03  0.00000000000E+00 0. -1.
        -14    1    4    4    0    0 -0.37164013335E+02  0.75461970712E+01  0.10498800101E+03  0.11162700988E+03  0.00000000000E+00 0.  1.
</event>
<event>
12    1  0.8453150E-002  0.1992142E+03  0.7818608E-02  0.1150641E+00
         21   -1    0    0  503  502  0.00000000000E+00  0.00000000000E+00  0.10624786333E+03  0.10624786333E+03  0.00000000000E+00 0. -1.
         21   -1    0    0  501  503 -0.00000000000E+00 -0.00000000000E+00 -0.51343638407E+03  0.51343638407E+03  0.00000000000E+00 0.  1.
          6    2    1    2  501    0 -0.24208221514E+02  0.96784990267E+02 -0.36612375376E+03  0.41628169297E+03  0.17114459531E+03 0.  0.
         24    2    3    3    0    0 -0.23439865597E+02  0.16738590765E+02 -0.17298858770E+03  0.20716139550E+03  0.11027776109E+03 0.  0.
         -6    2    1    2    0  502  0.24208221514E+02 -0.96784990267E+02 -0.41064766972E+02  0.20340255443E+03  0.17243233958E+03 0.  0.
        -24    2    5    5    0    0  0.65623156732E+02 -0.39020238905E+02 -0.69736380948E+02  0.12661639157E+03  0.73072361689E+02 0.  0.
          5    1    3    3  501    0 -0.76835591731E+00  0.80046399502E+02 -0.19313516606E+03  0.20912029747E+03  0.47000000000E+01 0. -1.
        -13    1    4    4    0    0 -0.16609737762E+02  0.55974193299E+02 -0.15049142467E+03  0.16142076261E+03  0.00000000000E+00 0.  1.
         14    1    4    4    0    0 -0.68301278349E+01 -0.39235602534E+02 -0.22497163035E+02  0.45740632889E+02  0.00000000000E+00 0. -1.
         -5    1    5    5    0  502 -0.41414935218E+02 -0.57764751361E+02  0.28671613976E+02  0.76786162861E+02  0.47000000000E+01 0.  1.
         13    1    6    6    0    0  0.34553247154E+02 -0.20264731307E+02  0.79794016169E+01  0.40844302834E+02  0.00000000000E+00 0. -1.
        -14    1    6    6    0    0  0.31069909578E+02 -0.18755507598E+02 -0.77715782565E+02  0.85772088736E+02  0.00000000000E+00 0.  1.
</event>
<event>
12    1  0.8453150E-002  0.1723877E+03  0.7818608E-02  0.1175467E+00
         21   -1    0    0  503  502  0.00000000000E+00  0.00000000000E+00  0.48000003017E+02  0.48000003017E+02  0.00000000000E+00 0. -1.
         21   -1    0    0  501  503 -0.00000000000E+00 -0.00000000000E+00 -0.61812680656E+03  0.61812680656E+03  0.00000000000E+00 0. -1.
          6    2    1    2  501    0 -0.10802372313E+02  0.13880591786E+02 -0.29171940553E+03  0.33884763193E+03  0.17148802882E+03 0.  0.
         24    2    3    3    0    0  0.17808529757E+02 -0.42057575750E+02 -0.10912875538E+03  0.14569200083E+03  0.85035818597E+02 0.  0.
         -6    2    1    2    0  502  0.10802372313E+02 -0.13880591786E+02 -0.27840739801E+03  0.32727917764E+03  0.17114794412E+03 0.  0.
        -24    2    5    5    0    0  0.22791534297E+01 -0.62233856340E+02 -0.25400451312E+03  0.27224941984E+03  0.75651877049E+02 0.  0.
          5    1    3    3  501    0 -0.28610902070E+02  0.55938167536E+02 -0.18259065015E+03  0.19315563110E+03  0.47000000000E+01 0. -1.
        -11    1    4    4    0    0  0.37953141727E+00 -0.46989485708E+02 -0.11689305561E+03  0.12598469058E+03  0.00000000000E+00 0.  1.
         12    1    4    4    0    0  0.17428998340E+02  0.49319099575E+01  0.77643002334E+01  0.19707310244E+02  0.00000000000E+00 0. -1.
         -5    1    5    5    0  502  0.85232188834E+01  0.48353264554E+02 -0.24402884891E+02  0.55029757806E+02  0.47000000000E+01 0.  1.
         13    1    6    6    0    0  0.27533603794E+02 -0.40030445388E+02 -0.21646758389E+03  0.22185299360E+03  0.00000000000E+00 0. -1.
        -14    1    6    6    0    0 -0.25254450364E+02 -0.22203410952E+02 -0.37536929232E+02  0.50396426235E+02  0.00000000000E+00 0.  1.
</event>
<event>
12    1  0.8453150E-002  0.2628648E+03  0.7818608E-02  0.1105440E+00
         21   -1    0    0  501  502  0.00000000000E+00  0.00000000000E+00  0.18969473746E+02  0.18969473746E+02  0.00000000000E+00 0. -1.
         21   -1    0    0  502  503 -0.00000000000E+00 -0.00000000000E+00 -0.37625049729E+04  0.37625049729E+04  0.00000000000E+00 0. -1.
         -6    2    1    2    0  503 -0.10310109113E+03 -0.16978348453E+03 -0.15332938328E+04  0.15556563630E+04  0.17210600068E+03 0.  0.
        -24    2    3    3    0    0 -0.81150442093E+02 -0.12300400057E+03 -0.66545236835E+03  0.68626516883E+03  0.80110230263E+02 0.  0.
          6    2    1    2  501    0  0.10310109113E+03  0.16978348453E+03 -0.22102416664E+04  0.22258180837E+04  0.17216750892E+03 0.  0.
         24    2    5    5    0    0  0.22465388048E+02  0.14860056550E+03 -0.17233112589E+04  0.17317794775E+04  0.81680118926E+02 0.  0.
          5    1    5    5  501    0  0.80635703083E+02  0.21182919032E+02 -0.48693040746E+03  0.49403860616E+03  0.47000000000E+01 0. -1.
        -13    1    6    6    0    0 -0.11784535153E+02  0.31228289328E+01 -0.37717662516E+03  0.37737359990E+03  0.00000000000E+00 0.  1.
         14    1    6    6    0    0  0.34249923201E+02  0.14547773656E+03 -0.13461346338E+04  0.13544058776E+04  0.00000000000E+00 0. -1.
         -5    1    3    3    0  503 -0.21950649039E+02 -0.46779483957E+02 -0.86784146442E+03  0.86939119415E+03  0.47000000000E+01 0.  1.
         13    1    4    4    0    0 -0.47851439269E+02 -0.11508378216E+03 -0.59530973760E+03  0.60821683703E+03  0.00000000000E+00 0. -1.
        -14    1    4    4    0    0 -0.33299002824E+02 -0.79202184090E+01 -0.70142630749E+02  0.78048331802E+02  0.00000000000E+00 0.  1.
</event>
<event>
12    1  0.8453150E-002  0.3106350E+03  0.7818608E-02  0.1080088E+00
         21   -1    0    0  503  502  0.00000000000E+00  0.00000000000E+00  0.16712046230E+03  0.16712046230E+03  0.00000000000E+00 0. -1.
         21   -1    0    0  501  503 -0.00000000000E+00 -0.00000000000E+00 -0.85516852351E+03  0.85516852351E+03  0.00000000000E+00 0. -1.
          6    2    1    2  501    0 -0.24925922261E+03  0.67163555578E+02 -0.63586229007E+03  0.70768281786E+03  0.17278025208E+03 0.  0.
         24    2    3    3    0    0 -0.45816755923E+02 -0.22059883789E+01 -0.12636757445E+03  0.15468378882E+03  0.76513195868E+02 0.  0.
         -6    2    1    2    0  502  0.24925922261E+03 -0.67163555578E+02 -0.52185771149E+02  0.31460616795E+03  0.17208306990E+03 0.  0.
        -24    2    5    5    0    0  0.11595213479E+03  0.42341859366E+01  0.28104429072E+02  0.14332562788E+03  0.79306688111E+02 0.  0.
          5    1    3    3  501    0 -0.20344246669E+03  0.69369543957E+02 -0.50949471561E+03  0.55299902904E+03  0.47000000000E+01 0. -1.
        -11    1    4    4    0    0 -0.21077700281E+02  0.20425445998E+01  0.43156515239E+01  0.21611716398E+02  0.00000000000E+00 0.  1.
         12    1    4    4    0    0 -0.24739055642E+02 -0.42485329786E+01 -0.13068322598E+03  0.13307207242E+03  0.00000000000E+00 0. -1.
         -5    1    5    5    0  502  0.13330708782E+03 -0.71397741515E+02 -0.80290200222E+02  0.17128054007E+03  0.47000000000E+01 0.  1.
         13    1    6    6    0    0  0.35113980517E+02  0.22497648135E+02 -0.21314505032E+02  0.46834217449E+02  0.00000000000E+00 0. -1.
        -14    1    6    6    0    0  0.80838154278E+02 -0.18263462198E+02  0.49418934104E+02  0.96491410429E+02  0.00000000000E+00 0.  1.
</event>
<event>
12    1  0.8453150E-002  0.1778536E+03  0.7818608E-02  0.1169988E+00
         21   -1    0    0  501  502  0.00000000000E+00  0.00000000000E+00  0.12657308945E+04  0.12657308945E+04  0.00000000000E+00 0. -1.
         21   -1    0    0  502  503 -0.00000000000E+00 -0.00000000000E+00 -0.26267738592E+02  0.26267738592E+02  0.00000000000E+00 0. -1.
         -6    2    1    2    0  503 -0.32533432096E+01 -0.48018326801E+02  0.76442210633E+03  0.78475518210E+03  0.17083089661E+03 0.  0.
        -24    2    3    3    0    0  0.22997403180E+02 -0.13271011931E+02  0.70863558358E+03  0.71382772834E+03  0.81735152278E+02 0.  0.
          6    2    1    2  501    0  0.32533432096E+01  0.48018326801E+02  0.47504104958E+03  0.50724345099E+03  0.17121791915E+03 0.  0.
         24    2    5    5    0    0  0.31408195678E+02  0.87285728935E+02  0.38599069841E+03  0.40582018132E+03  0.84237325902E+02 0.  0.
          5    1    5    5  501    0 -0.28154852468E+02 -0.39267402134E+02  0.89050351167E+02  0.10142326967E+03  0.47000000000E+01 0. -1.
        -11    1    6    6    0    0  0.34582457467E+02 -0.25740218227E+01  0.89032089193E+02  0.95547291217E+02  0.00000000000E+00 0.  1.
         12    1    6    6    0    0 -0.31742617893E+01  0.89859750757E+02  0.29695860922E+03  0.31027289010E+03  0.00000000000E+00 0. -1.
         -5    1    3    3    0  503 -0.26250746390E+02 -0.34747314870E+02  0.55786522748E+02  0.70927453761E+02  0.47000000000E+01 0.  1.
         13    1    4    4    0    0  0.27730361539E+02  0.25292111853E+02  0.18593844104E+03  0.18968860727E+03  0.00000000000E+00 0. -1.
        -14    1    4    4    0    0 -0.47329583585E+01 -0.38563123783E+02  0.52269714254E+03  0.52413912106E+03  0.00000000000E+00 0.  1.
</event>
<event>
12    1  0.8453150E-002  0.2237433E+03  0.7818608E-02  0.1131415E+00
         21   -1    0    0  503  502  0.00000000000E+00  0.00000000000E+00  0.50203663430E+03  0.50203663430E+03  0.00000000000E+00 0.  1.
         21   -1    0    0  501  503 -0.00000000000E+00 -0.00000000000E+00 -0.10840217066E+03  0.10840217066E+03  0.00000000000E+00 0. -1.
          6    2    1    2  501    0  0.35621687117E+01 -0.14096993369E+03  0.10759917093E+03  0.24827134895E+03  0.17371203145E+03 0.  0.
         24    2    3    3    0    0  0.70172551062E+02 -0.96994473189E+02  0.76431789697E+02  0.16245596678E+03  0.78854346201E+02 0.  0.
         -6    2    1    2    0  502 -0.35621687117E+01  0.14096993369E+03  0.28603529271E+03  0.36216745602E+03  0.17165041879E+03 0.  0.
        -24    2    5    5    0    0 -0.76136655740E+01  0.17420296002E+03  0.20650120298E+03  0.27574633536E+03  0.54668596579E+02 0.  0.
          5    1    3    3  501    0 -0.66610382350E+02 -0.43975460506E+02  0.31167381230E+02  0.85815382166E+02  0.47000000000E+01 0. -1.
        -11    1    4    4    0    0  0.61378176249E+01  0.16092121671E+01  0.38348755744E+02  0.38870161256E+02  0.00000000000E+00 0.  1.
         12    1    4    4    0    0  0.64034733437E+02 -0.98603685356E+02  0.38083033954E+02  0.12358580552E+03  0.00000000000E+00 0. -1.
         -5    1    5    5    0  502  0.40514968624E+01 -0.33233026324E+02  0.79534089737E+02  0.86421120658E+02  0.47000000000E+01 0.  1.
         11    1    6    6    0    0 -0.18150752560E+02  0.85999410240E+02  0.67660285847E+02  0.11092007330E+03  0.00000000000E+00 0. -1.
        -12    1    6    6    0    0  0.10537086985E+02  0.88203549778E+02  0.13884091713E+03  0.16482626206E+03  0.00000000000E+00 0.  1.
</event>
<event>
12    1  0.8453150E-002  0.2227365E+03  0.7818608E-02  0.1132084E+00
         21   -1    0    0  503  502  0.00000000000E+00  0.00000000000E+00  0.27771785291E+03  0.27771785291E+03  0.00000000000E+00 0. -1.
         21   -1    0    0  501  503 -0.00000000000E+00 -0.00000000000E+00 -0.18067817137E+03  0.18067817137E+03  0.00000000000E+00 0.  1.
          6    2    1    2  501    0 -0.13652237566E+03  0.37577728238E+02  0.78257762769E+02  0.23608436130E+03  0.17193342752E+03 0.  0.
         24    2    3    3    0    0 -0.53112086053E+02  0.11371609521E+02  0.10664829661E+03  0.14404008129E+03  0.80146607291E+02 0.  0.
         -6    2    1    2    0  502  0.13652237566E+03 -0.37577728238E+02  0.18781918774E+02  0.22231166299E+03  0.17035043385E+03 0.  0.
        -24    2    5    5    0    0  0.20882233470E+02 -0.57096665182E+02  0.16618452818E+02  0.10492170613E+03  0.83882623910E+02 0.  0.
          5    1    3    3  501    0 -0.83410289610E+02  0.26206118718E+02 -0.28390533837E+02  0.92044280010E+02  0.47000000000E+01 0. -1.
        -13    1    4    4    0    0  0.85898992984E+01  0.14295969296E+01 -0.90384914968E+01  0.12550874307E+02  0.00000000000E+00 0.  1.
         14    1    4    4    0    0 -0.61701985352E+02  0.99420125909E+01  0.11568678810E+03  0.13148920698E+03  0.00000000000E+00 0. -1.
         -5    1    5    5    0  502  0.11564014219E+03  0.19518936943E+02  0.21634659555E+01  0.11738995686E+03  0.47000000000E+01 0.  1.
         13    1    6    6    0    0  0.88541800572E+01 -0.58759567853E+02  0.44679571530E+02  0.74346132588E+02  0.00000000000E+00 0. -1.
        -14    1    6    6    0    0  0.12028053413E+02  0.16629026710E+01 -0.28061118712E+02  0.30575573544E+02  0.00000000000E+00 0.  1.
</event>
<event>
12    1  0.8453150E-002  0.2145034E+03  0.7818608E-02  0.1138246E+00
         21   -1    0    0  503  502  0.00000000000E+00  0.00000000000E+00  0.91501787547E+02  0.91501787547E+02  0.00000000000E+00 0.  1.
         21   -1    0    0  501  503 -0.00000000000E+00 -0.00000000000E+00 -0.67044099059E+03  0.67044099059E+03  0.00000000000E+00 0.  1.
          6    2    1    2  501    0 -0.28692473150E+02 -0.12491992646E+03 -0.48078451218E+03  0.52604859579E+03  0.17071945391E+03 0.  0.
         24    2    3    3    0    0  0.91190432235E+01 -0.10903447330E+03 -0.46089973251E+03  0.48022771786E+03  0.78856986071E+02 0.  0.
         -6    2    1    2    0  502  0.28692473150E+02  0.12491992646E+03 -0.98154690860E+02  0.23589418234E+03  0.17199847640E+03 0.  0.
        -24    2    5    5    0    0  0.10392015201E+01  0.15055242246E+03 -0.10054145249E+03  0.19782168684E+03  0.79735338876E+02 0.  0.
          5    1    3    3  501    0 -0.37811516373E+02 -0.15885453158E+02 -0.19884779671E+02  0.45820877938E+02  0.47000000000E+01 0. -1.
        -11    1    4    4    0    0 -0.21215394567E+02 -0.99689083093E+02 -0.37667009018E+03  0.39021579042E+03  0.00000000000E+00 0.  1.
         12    1    4    4    0    0  0.30334437791E+02 -0.93453902070E+01 -0.84229642330E+02  0.90011927439E+02  0.00000000000E+00 0. -1.
         -5    1    5    5    0  502  0.27653271630E+02 -0.25632496000E+02  0.23867616286E+01  0.38072495506E+02  0.47000000000E+01 0.  1.
         11    1    6    6    0    0 -0.21089292047E+02  0.50503981984E+02 -0.73879403838E+02  0.91943334434E+02  0.00000000000E+00 0. -1.
        -12    1    6    6    0    0  0.22128493567E+02  0.10004844047E+03 -0.26662048650E+02  0.10587835240E+03  0.00000000000E+00 0.  1.
</event>
<event>
12    1  0.8453150E-002  0.2010533E+03  0.7818608E-02  0.1148946E+00
         21   -1    0    0  503  502  0.00000000000E+00  0.00000000000E+00  0.23153596717E+03  0.23153596717E+03  0.00000000000E+00 0.  1.
         21   -1    0    0  501  503 -0.00000000000E+00 -0.00000000000E+00 -0.17949998972E+03  0.17949998972E+03  0.00000000000E+00 0.  1.
          6    2    1    2  501    0 -0.94149076152E+02 -0.42081488070E+02  0.61308081174E+02  0.20976900572E+03  0.17207398050E+03 0.  0.
         24    2    3    3    0    0 -0.96889071597E+02 -0.87007837869E+02  0.30481823761E+02  0.15501288618E+03  0.78370895464E+02 0.  0.
         -6    2    1    2    0  502  0.94149076152E+02  0.42081488070E+02 -0.92721037246E+01  0.20126695116E+03  0.17259059518E+03 0.  0.
        -24    2    5    5    0    0  0.29085598960E+01  0.15570728345E+02 -0.52644622154E+02  0.96715922746E+02  0.79571390393E+02 0.  0.
          5    1    3    3  501    0  0.27399954454E+01  0.44926349799E+02  0.30826257412E+02  0.54756119543E+02  0.47000000000E+01 0. -1.
        -13    1    4    4    0    0 -0.53939690134E+02 -0.71833842334E+01 -0.10688864537E+02  0.55455775225E+02  0.00000000000E+00 0.  1.
         14    1    4    4    0    0 -0.42949381464E+02 -0.79824453636E+02  0.41170688298E+02  0.99557110953E+02  0.00000000000E+00 0. -1.
         -5    1    5    5    0  502  0.91240516256E+02  0.26510759725E+02  0.43372518430E+02  0.10455102842E+03  0.47000000000E+01 0.  1.
         11    1    6    6    0    0 -0.25290437790E+02 -0.21031720018E+02 -0.11495634703E+02  0.34843781479E+02  0.00000000000E+00 0. -1.
        -12    1    6    6    0    0  0.28198997686E+02  0.36602448363E+02 -0.41148987451E+02  0.61872141267E+02  0.00000000000E+00 0.  1.
</event>
<event>
12    1  0.8453150E-002  0.2019388E+03  0.7818608E-02  0.1148173E+00
         21   -1    0    0  503  502  0.00000000000E+00  0.00000000000E+00  0.11548546712E+04  0.11548546712E+04  0.00000000000E+00 0.  1.
         21   -1    0    0  501  503 -0.00000000000E+00 -0.00000000000E+00 -0.63301359538E+02  0.63301359538E+02  0.00000000000E+00 0. -1.
          6    2    1    2  501    0 -0.51522294938E+02  0.92959342019E+02  0.14018885084E+03  0.24559567986E+03  0.17137192863E+03 0.  0.
         24    2    3    3    0    0 -0.19350945518E+02  0.12711283371E+03  0.12584009993E+03  0.19630639735E+03  0.78538775801E+02 0.  0.
         -6    2    1    2    0  502  0.51522294938E+02 -0.92959342019E+02  0.95136446083E+03  0.97256035089E+03  0.17170705470E+03 0.  0.
        -24    2    5    5    0    0  0.16691021455E+02  0.47582660071E+01  0.23553190688E+03  0.24923450188E+03  0.79632446149E+02 0.  0.
          5    1    3    3  501    0 -0.32171349420E+02 -0.34153491689E+02  0.14348750910E+02  0.49289282513E+02  0.47000000000E+01 0. -1.
        -13    1    4    4    0    0 -0.29435307417E+02  0.45919167634E+02  0.93666769275E+02  0.10839036371E+03  0.00000000000E+00 0.  1.
         14    1    4    4    0    0  0.10084361899E+02  0.81193666074E+02  0.32173330657E+02  0.87916033640E+02  0.00000000000E+00 0. -1.
         -5    1    5    5    0  502  0.34831273483E+02 -0.97717608026E+02  0.71583255396E+03  0.72332584900E+03  0.47000000000E+01 0.  1.
         11    1    6    6    0    0  0.38625646818E+02  0.72852560997E+01  0.56392871359E+02  0.68739882809E+02  0.00000000000E+00 0. -1.
        -12    1    6    6    0    0 -0.21934625362E+02 -0.25269900926E+01  0.17913903552E+03  0.18049461907E+03  0.00000000000E+00 0.  1.
</event>
<event>
12    1  0.8453150E-002  0.1879608E+03  0.7818608E-02  0.1160473E+00
         21   -1    0    0  501  502  0.00000000000E+00  0.00000000000E+00  0.75867451986E+03  0.75867451986E+03  0.00000000000E+00 0. -1.
         21   -1    0    0  502  503 -0.00000000000E+00 -0.00000000000E+00 -0.57661108093E+02  0.57661108093E+02  0.00000000000E+00 0. -1.
         -6    2    1    2    0  503 -0.64416375009E+02 -0.38734651571E+02  0.16956045365E+03  0.25262338121E+03  0.17151671257E+03 0.  0.
        -24    2    3    3    0    0 -0.63696788322E+02 -0.17495892895E+02  0.19268506525E+03  0.22086743158E+03  0.85390285471E+02 0.  0.
          6    2    1    2  501    0  0.64416375009E+02  0.38734651571E+02  0.53145295812E+03  0.56371224675E+03  0.17227712510E+03 0.  0.
         24    2    5    5    0    0 -0.90747620118E+00  0.49985497697E+02  0.14955985540E+03  0.17608069619E+03  0.78338290330E+02 0.  0.
          5    1    5    5  501    0  0.65323851210E+02 -0.11250846126E+02  0.38189310273E+03  0.38763155055E+03  0.47000000000E+01 0. -1.
        -11    1    6    6    0    0  0.22323109717E+02  0.48164187771E+02  0.46984287910E+02  0.70891702769E+02  0.00000000000E+00 0.  1.
         12    1    6    6    0    0 -0.23230585918E+02  0.18213099262E+01  0.10257556749E+03  0.10518899342E+03  0.00000000000E+00 0. -1.
         -5    1    3    3    0  503 -0.71958668650E+00 -0.21238758676E+02 -0.23124611602E+02  0.31755949629E+02  0.47000000000E+01 0.  1.
         11    1    4    4    0    0 -0.86595073920E+01  0.17767179343E+02  0.26955955953E+01  0.19948081754E+02  0.00000000000E+00 0. -1.
        -12    1    4    4    0    0 -0.55037280930E+02 -0.35263072238E+02  0.18998946965E+03  0.20091934983E+03  0.00000000000E+00 0.  1.
</event>
<event>
12    1  0.8453150E-002  0.1756025E+03  0.7818608E-02  0.1172241E+00
         21   -1    0    0  501  502  0.00000000000E+00  0.00000000000E+00  0.72280413608E+02  0.72280413608E+02  0.00000000000E+00 0. -1.
         21   -1    0    0  502  503 -0.00000000000E+00 -0.00000000000E+00 -0.45627609806E+03  0.45627609806E+03  0.00000000000E+00 0. -1.
         -6    2    1    2    0  503  0.47112320420E+01  0.36753470575E+02 -0.12316242475E+03  0.21412013742E+03  0.17118830881E+03 0.  0.
        -24    2    3    3    0    0 -0.58937921744E+02 -0.51501287273E+01 -0.75231942583E+02  0.12397277177E+03  0.78798480386E+02 0.  0.
          6    2    1    2  501    0 -0.47112320420E+01 -0.36753470575E+02 -0.26083325970E+03  0.31443637425E+03  0.17164856765E+03 0.  0.
         24    2    5    5    0    0 -0.33050606341E+02 -0.33375444222E+02 -0.26874784015E+03  0.28444868042E+03  0.80494641764E+02 0.  0.
          5    1    5    5  501    0  0.28339374299E+02 -0.33780263533E+01  0.79145804430E+01  0.29987693831E+02  0.47000000000E+01 0. -1.
        -11    1    6    6    0    0 -0.34845400832E+01  0.24511516135E+02 -0.11301581228E+03  0.11569585242E+03  0.00000000000E+00 0.  1.
         12    1    6    6    0    0 -0.29566066258E+02 -0.57886960356E+02 -0.15573202787E+03  0.16875282800E+03  0.00000000000E+00 0. -1.
         -5    1    3    3    0  503  0.63649153786E+02  0.41903599302E+02 -0.47930482168E+02  0.90147365647E+02  0.47000000000E+01 0.  1.
         13    1    4    4    0    0  0.88035164263E+01  0.20854541384E+02 -0.54101998451E+01  0.23274107076E+02  0.00000000000E+00 0. -1.
        -14    1    4    4    0    0 -0.67741438170E+02 -0.26004670112E+02 -0.69821742737E+02  0.10069866470E+03  0.00000000000E+00 0.  1.
</event>
<event>
12    1  0.8453150E-002  0.2170171E+03  0.7818608E-02  0.1136157E+00
         21   -1    0    0  503  502  0.00000000000E+00  0.00000000000E+00  0.32441901300E+02  0.32441901300E+02  0.00000000000E+00 0. -1.
         21   -1    0    0  501  503 -0.00000000000E+00 -0.00000000000E+00 -0.14721837226E+04  0.14721837226E+04  0.00000000000E+00 0. -1.
          6    2    1    2  501    0  0.10585734819E+03  0.77181365406E+02 -0.81116068764E+03  0.83968927612E+03  0.17301351949E+03 0.  0.
         24    2    3    3    0    0  0.13523543988E+03  0.68480014846E+02 -0.53084093945E+03  0.55766084316E+03  0.78837658270E+02 0.  0.
         -6    2    1    2    0  502 -0.10585734819E+03 -0.77181365406E+02 -0.62858113369E+03  0.66493634781E+03  0.17281019553E+03 0.  0.
        -24    2    5    5    0    0 -0.10761159404E+03 -0.72552835065E+02 -0.63527232976E+03  0.65537796005E+03  0.95421006639E+02 0.  0.
          5    1    3    3  501    0 -0.29378091694E+02  0.87013505599E+01 -0.28031974819E+03  0.28202843296E+03  0.47000000000E+01 0. -1.
        -13    1    4    4    0    0  0.15186165654E+02 -0.17507912621E+02 -0.69360509746E+02  0.73130205414E+02  0.00000000000E+00 0.  1.
         14    1    4    4    0    0  0.12004927423E+03  0.85987927467E+02 -0.46148042970E+03  0.48453063775E+03  0.00000000000E+00 0. -1.
         -5    1    5    5    0  502  0.17542458540E+01 -0.46285303414E+01  0.66911960752E+01  0.95583877592E+01  0.47000000000E+01 0.  1.
         13    1    6    6    0    0 -0.61861854564E+01 -0.57785152035E+02 -0.25463075828E+03  0.26117851318E+03  0.00000000000E+00 0. -1.
        -14    1    6    6    0    0 -0.10142540859E+03 -0.14767683030E+02 -0.38064157149E+03  0.39419944687E+03  0.00000000000E+00 0.  1.
</event>
<event>
12    1  0.8453150E-002  0.1916215E+03  0.7818608E-02  0.1157542E+00
         21   -1    0    0  501  502  0.00000000000E+00  0.00000000000E+00  0.75170944639E+03  0.75170944639E+03  0.00000000000E+00 0.  1.
         21   -1    0    0  502  503 -0.00000000000E+00 -0.00000000000E+00 -0.73163475119E+02  0.73163475119E+02  0.00000000000E+00 0.  1.
         -6    2    1    2    0  503  0.62300791384E+02  0.52382133871E+02  0.99960276380E+02  0.21612691749E+03  0.17347481389E+03 0.  0.
        -24    2    3    3    0    0  0.52644964573E+02 -0.81083868701E+01  0.11663160371E+03  0.15246875819E+03  0.82501836392E+02 0.  0.
          6    2    1    2  501    0 -0.62300791384E+02 -0.52382133871E+02  0.57858569489E+03  0.60874600402E+03  0.17083622133E+03 0.  0.
         24    2    5    5    0    0  0.16393474825E+02 -0.38320476091E+02  0.16594754851E+03  0.18840941555E+03  0.78881646201E+02 0.  0.
          5    1    5    5  501    0 -0.78694266209E+02 -0.14061657780E+02  0.41263814638E+03  0.42033658846E+03  0.47000000000E+01 0. -1.
        -13    1    6    6    0    0 -0.18478371938E+02 -0.39274483685E+02  0.13489464523E+03  0.14170568305E+03  0.00000000000E+00 0.  1.
         14    1    6    6    0    0  0.34871846763E+02  0.95400759431E+00  0.31052903284E+02  0.46703732501E+02  0.00000000000E+00 0. -1.
         -5    1    3    3    0  503  0.96558268110E+01  0.60490520741E+02 -0.16671327327E+02  0.63658159302E+02  0.47000000000E+01 0.  1.
         13    1    4    4    0    0  0.15479531675E+02 -0.34054594609E+02  0.13418399750E+02  0.39741474138E+02  0.00000000000E+00 0. -1.
        -14    1    4    4    0    0  0.37165432898E+02  0.25946207739E+02  0.10321320396E+03  0.11272728405E+03  0.00000000000E+00 0.  1.
</event>
<event>
12    1  0.8453150E-002  0.1812301E+03  0.7818608E-02  0.1166627E+00
         21   -1    0    0  503  502  0.00000000000E+00  0.00000000000E+00  0.46446318593E+03  0.46446318593E+03  0.00000000000E+00 0.  1.
         21   -1    0    0  501  503 -0.00000000000E+00 -0.00000000000E+00 -0.32978393718E+03  0.32978393718E+03  0.00000000000E+00 0.  1.
          6    2    1    2  501    0 -0.24291145471E+02 -0.49666966523E+02 -0.28465258964E+03  0.33742819676E+03  0.17255093122E+03 0.  0.
         24    2    3    3    0    0  0.51598726904E+02 -0.36142788362E+02 -0.14252164691E+03  0.17567075178E+03  0.81111425973E+02 0.  0.
         -6    2    1    2    0  502  0.24291145471E+02  0.49666966523E+02  0.41933183840E+03  0.45681892635E+03  0.17259047907E+03 0.  0.
        -24    2    5    5    0    0 -0.31837788436E+02  0.48936945426E+02  0.13794592021E+03  0.16985008640E+03  0.80071877364E+02 0.  0.
          5    1    3    3  501    0 -0.75889872375E+02 -0.13524178161E+02 -0.14213094274E+03  0.16175744498E+03  0.47000000000E+01 0. -1.
        -13    1    4    4    0    0 -0.16331781127E+02  0.53610555972E+01 -0.71280834080E+01  0.18608534734E+02  0.00000000000E+00 0.  1.
         14    1    4    4    0    0  0.67930508030E+02 -0.41503843959E+02 -0.13539356350E+03  0.15706221704E+03  0.00000000000E+00 0. -1.
         -5    1    5    5    0  502  0.56128933907E+02  0.73002109671E+00  0.28138591818E+03  0.28696883995E+03  0.47000000000E+01 0.  1.
         11    1    6    6    0    0 -0.12310807548E+02  0.47455484209E+02  0.14167250201E+03  0.14991556554E+03  0.00000000000E+00 0. -1.
        -12    1    6    6    0    0 -0.19526980888E+02  0.14814612172E+01 -0.37265817980E+01  0.19934520858E+02  0.00000000000E+00 0.  1.
</event>
<event>
12    1  0.8453150E-002  0.2019226E+03  0.7818608E-02  0.1148151E+00
         21   -1    0    0  503  502  0.00000000000E+00  0.00000000000E+00  0.15700912852E+03  0.15700912852E+03  0.00000000000E+00 0.  1.
         21   -1    0    0  501  503 -0.00000000000E+00 -0.00000000000E+00 -0.33187745708E+03  0.33187745708E+03  0.00000000000E+00 0.  1.
          6    2    1    2  501    0 -0.93240715345E+02  0.49880430424E+02 -0.20153913685E+03  0.28521022542E+03  0.17188647609E+03 0.  0.
         24    2    3    3    0    0 -0.76218637131E+01  0.68047531079E+02 -0.15027427684E+03  0.18366808060E+03  0.80393073463E+02 0.  0.
         -6    2    1    2    0  502  0.93240715345E+02 -0.49880430424E+02  0.26670808283E+02  0.20367636018E+03  0.17201988067E+03 0.  0.
        -24    2    5    5    0    0  0.46368606726E+02  0.34324099873E+02  0.43843420760E+02  0.10567439026E+03  0.76919696383E+02 0.  0.
          5    1    3    3  501    0 -0.85618851632E+02 -0.18167100655E+02 -0.51264860010E+02  0.10154214481E+03  0.47000000000E+01 0. -1.
        -13    1    4    4    0    0 -0.24227971288E+02  0.80086862667E+02 -0.10745008826E+03  0.13618524748E+03  0.00000000000E+00 0.  1.
         14    1    4    4    0    0  0.16606107575E+02 -0.12039331588E+02 -0.42824188578E+02  0.47482833122E+02  0.00000000000E+00 0. -1.
         -5    1    5    5    0  502  0.46872108618E+02 -0.84204530297E+02 -0.17172612478E+02  0.98001969920E+02  0.47000000000E+01 0.  1.
         11    1    6    6    0    0 -0.15691100967E+02  0.64611552719E+01  0.32561066630E+02  0.36717573954E+02  0.00000000000E+00 0. -1.
        -12    1    6    6    0    0  0.62059707693E+02  0.27862944601E+02  0.11282354130E+02  0.68956816309E+02  0.00000000000E+00 0.  1.
</event>
<event>
12    1  0.8453150E-002  0.1783533E+03  0.7818608E-02  0.1169730E+00
         21   -1    0    0  503  502  0.00000000000E+00  0.00000000000E+00  0.53539578496E+02  0.53539578496E+02  0.00000000000E+00 0. -1.
         21   -1    0    0  501  503 -0.00000000000E+00 -0.00000000000E+00 -0.86231038009E+03  0.86231038009E+03  0.00000000000E+00 0. -1.
          6    2    1    2  501    0  0.19648575646E+02 -0.42622037425E+02 -0.66285236839E+03  0.68642781758E+03  0.17206737595E+03 0.  0.
         24    2    3    3    0    0  0.69427175200E+01 -0.88193989614E+01 -0.63602549750E+03  0.64119698518E+03  0.80493212194E+02 0.  0.
         -6    2    1    2    0  502 -0.19648575646E+02  0.42622037425E+02 -0.14591843320E+03  0.22942214100E+03  0.17070332462E+03 0.  0.
        -24    2    5    5    0    0 -0.92033207759E+01  0.86643463030E+02 -0.60862806170E+02  0.13296728653E+03  0.79901359900E+02 0.  0.
          5    1    3    3  501    0  0.12705858126E+02 -0.33802638464E+02 -0.26826870894E+02  0.45230832403E+02  0.47000000000E+01 0. -1.
        -13    1    4    4    0    0 -0.11607905082E+02 -0.39830135973E+02 -0.24323010541E+03  0.24674291757E+03  0.00000000000E+00 0.  1.
         14    1    4    4    0    0  0.18550622602E+02  0.31010737012E+02 -0.39279539208E+03  0.39445406761E+03  0.00000000000E+00 0. -1.
         -5    1    5    5    0  502 -0.10445254870E+02 -0.44021425605E+02 -0.85055627029E+02  0.96454854470E+02  0.47000000000E+01 0.  1.
         13    1    6    6    0    0 -0.26665548216E+02  0.18690836576E+01  0.72021447554E+00  0.26740673968E+02  0.00000000000E+00 0. -1.
        -14    1    6    6    0    0  0.17462227440E+02  0.84774379373E+02 -0.61583020645E+02  0.10622661256E+03  0.00000000000E+00 0.  1.
</event>
<event>
12    1  0.8453150E-002  0.1935789E+03  0.7818608E-02  0.1155314E+00
         21   -1    0    0  503  502  0.00000000000E+00  0.00000000000E+00  0.67505705038E+02  0.67505705038E+02  0.00000000000E+00 0. -1.
         21   -1    0    0  501  503 -0.00000000000E+00 -0.00000000000E+00 -0.57677586586E+03  0.57677586586E+03  0.00000000000E+00 0. -1.
          6    2    1    2  501    0  0.84204223867E+02 -0.26763384426E+02 -0.31772802633E+03  0.37195604154E+03  0.17202781187E+03 0.  0.
         24    2    3    3    0    0  0.11505919945E+03  0.29730557271E+01 -0.18633942577E+03  0.23367610898E+03  0.81453568804E+02 0.  0.
         -6    2    1    2    0  502 -0.84204223867E+02  0.26763384426E+02 -0.19154213449E+03  0.27232552936E+03  0.17223871398E+03 0.  0.
        -24    2    5    5    0    0 -0.11031923680E+03  0.64596714373E+00 -0.19200270745E+03  0.23509092834E+03  0.78942723770E+02 0.  0.
          5    1    3    3  501    0 -0.30854975586E+02 -0.29736440153E+02 -0.13138860056E+03  0.13827993256E+03  0.47000000000E+01 0. -1.
        -11    1    4    4    0    0  0.52933534226E+02  0.41593246266E+02 -0.99470773865E+02  0.12010991647E+03  0.00000000000E+00 0.  1.
         12    1    4    4    0    0  0.62125665226E+02 -0.38620190539E+02 -0.86868651909E+02  0.11356619251E+03  0.00000000000E+00 0. -1.
         -5    1    5    5    0  502  0.26115012932E+02  0.26117417282E+02  0.46057296411E+00  0.37234601023E+02  0.47000000000E+01 0.  1.
         13    1    6    6    0    0 -0.50575921385E+02 -0.45431896821E+01 -0.22964947294E+02  0.55731079307E+02  0.00000000000E+00 0. -1.
        -14    1    6    6    0    0 -0.59743315413E+02  0.51891568259E+01 -0.16903776016E+03  0.17935984903E+03  0.00000000000E+00 0.  1.
</event>
<event>
12    1  0.8453150E-002  0.2197594E+03  0.7818608E-02  0.1135618E+00
         21   -1    0    0  501  502  0.00000000000E+00  0.00000000000E+00  0.10092382402E+04  0.10092382402E+04  0.00000000000E+00 0.  1.
         21   -1    0    0  502  503 -0.00000000000E+00 -0.00000000000E+00 -0.62784700602E+02  0.62784700602E+02  0.00000000000E+00 0. -1.
         -6    2    1    2    0  503  0.21251505237E+02  0.12116971543E+03  0.19028972095E+03  0.28457268549E+03  0.17215606006E+03 0.  0.
        -24    2    3    3    0    0  0.15018482270E+02  0.13432094970E+03  0.20846337918E+03  0.26082026683E+03  0.79388656567E+02 0.  0.
          6    2    1    2  501    0 -0.21251505237E+02 -0.12116971543E+03  0.75616381865E+03  0.78745025532E+03  0.18210013055E+03 0.  0.
         24    2    5    5    0    0  0.20724010492E+02 -0.14824430922E+03  0.57727868790E+03  0.60166285651E+03  0.79634474811E+02 0.  0.
          5    1    5    5  501    0 -0.41975515729E+02  0.27074593787E+02  0.17888513076E+03  0.18578739881E+03  0.47000000000E+01 0. -1.
        -11    1    6    6    0    0  0.32882353701E+02 -0.78948044579E+02  0.19449420456E+03  0.21246655863E+03  0.00000000000E+00 0.  1.
         12    1    6    6    0    0 -0.12158343210E+02 -0.69296264640E+02  0.38278448333E+03  0.38919629788E+03  0.00000000000E+00 0. -1.
         -5    1    3    3    0  503  0.62330229667E+01 -0.13151234268E+02 -0.18173658240E+02  0.23752418653E+02  0.47000000000E+01 0.  1.
         13    1    4    4    0    0  0.54604753095E+01  0.50113173379E+02  0.20098953474E+02  0.54268912532E+02  0.00000000000E+00 0. -1.
        -14    1    4    4    0    0  0.95580069607E+01  0.84207776321E+02  0.18836442571E+03  0.20655135430E+03  0.00000000000E+00 0.  1.
</event>
<event>
12    1  0.8453150E-002  0.1748017E+03  0.7818608E-02  0.1173170E+00
         21   -1    0    0  501  502  0.00000000000E+00  0.00000000000E+00  0.37844657300E+03  0.37844657300E+03  0.00000000000E+00 0. -1.
         21   -1    0    0  502  503 -0.00000000000E+00 -0.00000000000E+00 -0.86345737392E+02  0.86345737392E+02  0.00000000000E+00 0. -1.
         -6    2    1    2    0  503 -0.24370160092E+02 -0.18918318299E+01  0.84935681484E+02  0.19434427365E+03  0.17308420777E+03 0.  0.
        -24    2    3    3    0    0  0.18783962291E+02  0.16971939437E+02  0.11188987638E+03  0.13987649631E+03  0.80032529737E+02 0.  0.
          6    2    1    2  501    0  0.24370160092E+02  0.18918318299E+01  0.20716515412E+03  0.27044803675E+03  0.17212569757E+03 0.  0.
         24    2    5    5    0    0 -0.41188069339E+02 -0.26548305849E+02  0.15615015438E+03  0.18251998050E+03  0.80804721190E+02 0.  0.
          5    1    5    5  501    0  0.65558229431E+02  0.28440137679E+02  0.51014999741E+02  0.87928056250E+02  0.47000000000E+01 0. -1.
        -13    1    6    6    0    0  0.11349112556E+02 -0.47849156833E+01 -0.36964739567E+01  0.12859303776E+02  0.00000000000E+00 0.  1.
         14    1    6    6    0    0 -0.52537181895E+02 -0.21763390166E+02  0.15984662834E+03  0.16966067672E+03  0.00000000000E+00 0. -1.
         -5    1    3    3    0  503 -0.43154122383E+02 -0.18863771267E+02 -0.26954194900E+02  0.54467777334E+02  0.47000000000E+01 0.  1.
         13    1    4    4    0    0  0.27345306204E+02  0.12481841731E+02  0.26128167021E+01  0.30172652444E+02  0.00000000000E+00 0. -1.
        -14    1    4    4    0    0 -0.85613439134E+01  0.44900977066E+01  0.10927705968E+03  0.10970384387E+03  0.00000000000E+00 0.  1.
</event>
<event>
12    1  0.8453150E-002  0.2071887E+03  0.7818608E-02  0.1144264E+00
         21   -1    0    0  501  502  0.00000000000E+00  0.00000000000E+00  0.21303604498E+02  0.21303604498E+02  0.00000000000E+00 0. -1.
         21   -1    0    0  502  503 -0.00000000000E+00 -0.00000000000E+00 -0.22343238979E+04  0.22343238979E+04  0.00000000000E+00 0. -1.
         -6    2    1    2    0  503  0.43122202189E+02  0.10127410960E+03 -0.14715323736E+04  0.14857369338E+04  0.17288938762E+03 0.  0.
        -24    2    3    3    0    0 -0.25251321962E+02  0.10831107501E+03 -0.90354092644E+03  0.91358238150E+03  0.76665792933E+02 0.  0.
          6    2    1    2  501    0 -0.43122202189E+02 -0.10127410960E+03 -0.74148791987E+03  0.76989056865E+03  0.17553114478E+03 0.  0.
         24    2    5    5    0    0  0.41625987721E+02 -0.75518678214E+02 -0.38406528776E+03  0.40162622625E+03  0.79760182661E+02 0.  0.
          5    1    5    5  501    0 -0.84748189910E+02 -0.25755431387E+02 -0.35742263210E+03  0.36826434239E+03  0.47000000000E+01 0. -1.
        -11    1    6    6    0    0 -0.63777966983E+01 -0.52071063254E+02 -0.10367814670E+03  0.11619479344E+03  0.00000000000E+00 0.  1.
         12    1    6    6    0    0  0.48003784419E+02 -0.23447614960E+02 -0.28038714106E+03  0.28543143281E+03  0.00000000000E+00 0. -1.
         -5    1    3    3    0  503  0.68373524152E+02 -0.70369654062E+01 -0.56799144713E+03  0.57215455229E+03  0.47000000000E+01 0.  1.
         11    1    4    4    0    0  0.16365515745E+02  0.24944627927E+02 -0.42554652148E+03  0.42659102958E+03  0.00000000000E+00 0. -1.
        -12    1    4    4    0    0 -0.41616837707E+02  0.83366447081E+02 -0.47799440496E+03  0.48699135193E+03  0.00000000000E+00 0.  1.
</event>
<event>
12    1  0.8453150E-002  0.2229852E+03  0.7818608E-02  0.1131895E+00
         21   -1    0    0  503  502  0.00000000000E+00  0.00000000000E+00  0.25689665441E+02  0.25689665441E+02  0.00000000000E+00 0.  1.
         21   -1    0    0  501  503 -0.00000000000E+00 -0.00000000000E+00 -0.20545726298E+04  0.20545726298E+04  0.00000000000E+00 0.  1.
          6    2    1    2  501    0  0.12366825878E+03  0.68434363466E+02 -0.12729053050E+04  0.12920842578E+04  0.17092897224E+03 0.  0.
         24    2    3    3    0    0  0.12373601485E+03  0.20081417679E+02 -0.11593096389E+04  0.11685363833E+04  0.75924801308E+02 0.  0.
         -6    2    1    2    0  502 -0.12366825878E+03 -0.68434363466E+02 -0.75597765941E+03  0.78817803745E+03  0.17246824881E+03 0.  0.
        -24    2    5    5    0    0 -0.10245276540E+03 -0.81135598253E+02 -0.74527887421E+03  0.76082895100E+03  0.79627494551E+02 0.  0.
          5    1    3    3  501    0 -0.67756066765E-01  0.48352945787E+02 -0.11359566604E+03  0.12354787453E+03  0.47000000000E+01 0. -1.
        -13    1    4    4    0    0  0.86916432292E+02 -0.21538227959E+02 -0.79222965573E+03  0.79727422440E+03  0.00000000000E+00 0.  1.
         14    1    4    4    0    0  0.36819582556E+02  0.41619645638E+02 -0.36707998318E+03  0.37126215888E+03  0.00000000000E+00 0. -1.
         -5    1    5    5    0  502 -0.21215493385E+02  0.12701234786E+02 -0.10698785198E+02  0.27349086445E+02  0.47000000000E+01 0.  1.
         13    1    6    6    0    0  0.97797115500E+01 -0.26417603736E+02 -0.13462756155E+03  0.13754313096E+03  0.00000000000E+00 0. -1.
        -14    1    6    6    0    0 -0.11223247695E+03 -0.54717994517E+02 -0.61065131267E+03  0.62328582004E+03  0.00000000000E+00 0.  1.
</event>
<event>
12    1  0.8453150E-002  0.1760606E+03  0.7818608E-02  0.1171841E+00
         21   -1    0    0  503  502  0.00000000000E+00  0.00000000000E+00  0.14424291111E+03  0.14424291111E+03  0.00000000000E+00 0.  1.
         21   -1    0    0  501  503 -0.00000000000E+00 -0.00000000000E+00 -0.35191820349E+03  0.35191820349E+03  0.00000000000E+00 0.  1.
          6    2    1    2  501    0 -0.32945461788E+02 -0.11672990305E+02 -0.25922776206E+03  0.31336298609E+03  0.17255626987E+03 0.  0.
         24    2    3    3    0    0 -0.55658714651E+02 -0.47271185827E+02 -0.24815335869E+03  0.26945563146E+03  0.75457208880E+02 0.  0.
         -6    2    1    2    0  502  0.32945461788E+02  0.11672990305E+02  0.51552469685E+02  0.18279812851E+03  0.17185993280E+03 0.  0.
        -24    2    5    5    0    0 -0.17404505492E+02 -0.49761588395E+02  0.26773802189E+02  0.99459067877E+02  0.79975853908E+02 0.  0.
          5    1    3    3  501    0  0.22713252863E+02  0.35598195522E+02 -0.11074403371E+02  0.43907354623E+02  0.47000000000E+01 0. -1.
        -11    1    4    4    0    0 -0.10024186701E+01  0.18873508000E+02 -0.37388365178E+02  0.41893961356E+02  0.00000000000E+00 0.  1.
         12    1    4    4    0    0 -0.54656295981E+02 -0.66144693827E+02 -0.21076499351E+03  0.22756167011E+03  0.00000000000E+00 0. -1.
         -5    1    5    5    0  502  0.50349967280E+02  0.61434578700E+02  0.24778667496E+02  0.83339060638E+02  0.47000000000E+01 0.  1.
         11    1    6    6    0    0  0.46917637842E+01  0.15209242355E+02 -0.12636095638E+02  0.20322514938E+02  0.00000000000E+00 0. -1.
        -12    1    6    6    0    0 -0.22096269276E+02 -0.64970830750E+02  0.39409897828E+02  0.79136552939E+02  0.00000000000E+00 0.  1.
</event>
<event>
12    1  0.8453150E-002  0.1992229E+03  0.7818608E-02  0.1151221E+00
         21   -1    0    0  503  502  0.00000000000E+00  0.00000000000E+00  0.10192686812E+03  0.10192686812E+03  0.00000000000E+00 0. -1.
         21   -1    0    0  501  503 -0.00000000000E+00 -0.00000000000E+00 -0.61704385897E+03  0.61704385897E+03  0.00000000000E+00 0. -1.
          6    2    1    2  501    0 -0.29609908982E+02  0.95006718754E+02 -0.48101937634E+03  0.52064324428E+03  0.17258830807E+03 0.  0.
         24    2    3    3    0    0 -0.92588782241E+01 -0.16533531900E+02 -0.15262325392E+03  0.17319325481E+03  0.79642710705E+02 0.  0.
         -6    2    1    2    0  502  0.29609908982E+02 -0.95006718754E+02 -0.34097614510E+02  0.19832748282E+03  0.16813125767E+03 0.  0.
        -24    2    5    5    0    0 -0.32012078215E+02 -0.75022542109E+02  0.17230184654E+02  0.11554300608E+03  0.80000950082E+02 0.  0.
          5    1    3    3  501    0 -0.20351030758E+02  0.11154025065E+03 -0.32839612241E+03  0.34744998947E+03  0.47000000000E+01 0. -1.
        -11    1    4    4    0    0 -0.23715657234E+02  0.26154054319E+02 -0.83713462115E+02  0.90853787454E+02  0.00000000000E+00 0.  1.
         12    1    4    4    0    0  0.14456779010E+02 -0.42687586219E+02 -0.68909791809E+02  0.82339467352E+02  0.00000000000E+00 0. -1.
         -5    1    5    5    0  502  0.61621987197E+02 -0.19984176645E+02 -0.51327799163E+02  0.82784476741E+02  0.47000000000E+01 0.  1.
         13    1    6    6    0    0 -0.39058386875E+01 -0.77404473572E+01  0.38598141754E+02  0.39559912133E+02  0.00000000000E+00 0. -1.
        -14    1    6    6    0    0 -0.28106239527E+02 -0.67282094752E+02 -0.21367957101E+02  0.75983093943E+02  0.00000000000E+00 0.  1.
</event>
<event>
12    1  0.8453150E-002  0.2154352E+03  0.7818608E-02  0.1138528E+00
         21   -1    0    0  503  502  0.00000000000E+00  0.00000000000E+00  0.20429038964E+03  0.20429038964E+03  0.00000000000E+00 0.  1.
         21   -1    0    0  501  503 -0.00000000000E+00 -0.00000000000E+00 -0.23245212530E+03  0.23245212530E+03  0.00000000000E+00 0. -1.
          6    2    1    2  501    0  0.11388730502E+03 -0.36597502648E+02  0.35095342266E+02  0.21221236933E+03  0.17173442056E+03 0.  0.
         24    2    3    3    0    0  0.90058849870E+02 -0.48447071202E+02  0.84588662972E+02  0.15582188836E+03  0.81654784553E+02 0.  0.
         -6    2    1    2    0  502 -0.11388730502E+03  0.36597502648E+02 -0.63257077917E+02  0.22453014561E+03  0.17917207633E+03 0.  0.
        -24    2    5    5    0    0 -0.14999822697E+02 -0.26227699140E+02  0.11131923864E+02  0.85672111181E+02  0.79390830844E+02 0.  0.
          5    1    3    3  501    0  0.23828455146E+02  0.11849568554E+02 -0.49493320707E+02  0.56390480971E+02  0.47000000000E+01 0. -1.
        -11    1    4    4    0    0  0.19945339712E+01 -0.12222406692E+02 -0.14043496393E+02  0.18723920050E+02  0.00000000000E+00 0.  1.
         12    1    4    4    0    0  0.88064315899E+02 -0.36224664511E+02  0.98632159365E+02  0.13709796831E+03  0.00000000000E+00 0. -1.
         -5    1    5    5    0  502 -0.98887482320E+02  0.62825201788E+02 -0.74389001781E+02  0.13885803443E+03  0.47000000000E+01 0.  1.
         11    1    6    6    0    0  0.14855042631E+02 -0.68762147185E+01 -0.28218469502E+02  0.32622640014E+02  0.00000000000E+00 0. -1.
        -12    1    6    6    0    0 -0.29854865328E+02 -0.19351484421E+02  0.39350393366E+02  0.53049471167E+02  0.00000000000E+00 0.  1.
</event>
<event>
12    1  0.8453150E-002  0.1946556E+03  0.7818608E-02  0.1154393E+00
         21   -1    0    0  501  502  0.00000000000E+00  0.00000000000E+00  0.71763954204E+03  0.71763954204E+03  0.00000000000E+00 0.  1.
         21   -1    0    0  502  503 -0.00000000000E+00 -0.00000000000E+00 -0.52918556350E+02  0.52918556350E+02  0.00000000000E+00 0.  1.
         -6    2    1    2    0  503  0.45614358127E+01  0.90968797612E+02  0.35575906597E+03  0.40538924995E+03  0.17169683201E+03 0.  0.
        -24    2    3    3    0    0 -0.44863576115E+02  0.55011487631E+01  0.19622577805E+03  0.21771796617E+03  0.82786192819E+02 0.  0.
          6    2    1    2  501    0 -0.45614358127E+01 -0.90968797612E+02  0.30896191972E+03  0.36516884843E+03  0.17203107624E+03 0.  0.
         24    2    5    5    0    0  0.22501972110E+02 -0.94505590958E+02  0.11633563124E+03  0.17056177259E+03  0.78228471166E+02 0.  0.
          5    1    5    5  501    0 -0.27063407923E+02  0.35367933453E+01  0.19262628848E+03  0.19460707585E+03  0.47000000000E+01 0. -1.
        -11    1    6    6    0    0  0.39967256020E+02 -0.35390593527E+02  0.21710098989E+02  0.57629888617E+02  0.00000000000E+00 0.  1.
         12    1    6    6    0    0 -0.17465283909E+02 -0.59114997430E+02  0.94625532249E+02  0.11293188397E+03  0.00000000000E+00 0. -1.
         -5    1    3    3    0  503  0.49425011928E+02  0.85467648849E+02  0.15953328792E+03  0.18767128378E+03  0.47000000000E+01 0.  1.
         13    1    4    4    0    0  0.97567835549E+01 -0.21394937533E+02  0.18704789777E+02  0.30046752536E+02  0.00000000000E+00 0. -1.
        -14    1    4    4    0    0 -0.54620359670E+02  0.26896086296E+02  0.17752098827E+03  0.18767121363E+03  0.00000000000E+00 0.  1.
</event>
<event>
12    1  0.8453150E-002  0.1758775E+03  0.7818608E-02  0.1174115E+00
         21   -1    0    0  501  502  0.00000000000E+00  0.00000000000E+00  0.16427400049E+03  0.16427400049E+03  0.00000000000E+00 0.  1.
         21   -1    0    0  502  503 -0.00000000000E+00 -0.00000000000E+00 -0.18934469061E+03  0.18934469061E+03  0.00000000000E+00 0.  1.
         -6    2    1    2    0  503  0.34309597417E+02  0.38567898740E+01 -0.54204230707E+02  0.18404074673E+03  0.17245542766E+03 0.  0.
        -24    2    3    3    0    0  0.59754799912E+02  0.20420056246E+02  0.21683163198E+02  0.10217019844E+03  0.77336764054E+02 0.  0.
          6    2    1    2  501    0 -0.34309597417E+02 -0.38567898740E+01  0.29133540582E+02  0.16957794437E+03  0.16344997011E+03 0.  0.
         24    2    5    5    0    0 -0.78802400108E+02 -0.22980520150E+02  0.38916487719E+02  0.11994808838E+03  0.78327059953E+02 0.  0.
          5    1    5    5  501    0  0.44492802692E+02  0.19123730276E+02 -0.97829471371E+01  0.49629855991E+02  0.47000000000E+01 0. -1.
        -11    1    6    6    0    0 -0.15503190501E+02  0.83357801588E+01  0.45727327053E+02  0.48998189620E+02  0.00000000000E+00 0.  1.
         12    1    6    6    0    0 -0.63299209607E+02 -0.31316300308E+02 -0.68108393343E+01  0.70949898762E+02  0.00000000000E+00 0. -1.
         -5    1    3    3    0  503 -0.25445202496E+02 -0.16563266371E+02 -0.75887393905E+02  0.81870548286E+02  0.47000000000E+01 0.  1.
         11    1    4    4    0    0  0.43177593151E+02  0.48611053529E+02  0.43657396104E+01  0.65164397932E+02  0.00000000000E+00 0. -1.
        -12    1    4    4    0    0  0.16577206762E+02 -0.28190997283E+02  0.17317423588E+02  0.37005800513E+02  0.00000000000E+00 0.  1.
</event>
<event>
12    1  0.8453150E-002  0.2226968E+03  0.7818608E-02  0.1131932E+00
         21   -1    0    0  501  502  0.00000000000E+00  0.00000000000E+00  0.19779240686E+03  0.19779240686E+03  0.00000000000E+00 0.  1.
         21   -1    0    0  502  503 -0.00000000000E+00 -0.00000000000E+00 -0.34329357747E+03  0.34329357747E+03  0.00000000000E+00 0.  1.
         -6    2    1    2    0  503  0.31363952533E+02 -0.13683471366E+03 -0.21345942733E+03  0.30847819782E+03  0.17287693609E+03 0.  0.
        -24    2    3    3    0    0  0.81509496996E+01 -0.11189238271E+03 -0.23155761280E+03  0.26961178956E+03  0.80531023443E+02 0.  0.
          6    2    1    2  501    0 -0.31363952533E+02  0.13683471366E+03  0.67958256724E+02  0.23260778652E+03  0.17257062702E+03 0.  0.
         24    2    5    5    0    0  0.30876870178E+02  0.32901466019E+02  0.63546706726E+02  0.11129170452E+03  0.79446661235E+02 0.  0.
          5    1    5    5  501    0 -0.62240822711E+02  0.10393324764E+03  0.44115499978E+01  0.12131608200E+03  0.47000000000E+01 0. -1.
        -11    1    6    6    0    0  0.22045817297E+02  0.57972339484E+02  0.56241834199E+02  0.83725468763E+02  0.00000000000E+00 0.  1.
         12    1    6    6    0    0  0.88310528801E+01 -0.25070873465E+02  0.73048725269E+01  0.27566235758E+02  0.00000000000E+00 0. -1.
         -5    1    3    3    0  503  0.23213002834E+02 -0.24942330950E+02  0.18098185464E+02  0.38866408258E+02  0.47000000000E+01 0.  1.
         11    1    4    4    0    0 -0.28219079860E+02 -0.92645407227E+02 -0.16721162867E+03  0.19323358070E+03  0.00000000000E+00 0. -1.
        -12    1    4    4    0    0  0.36370029559E+02 -0.19246975486E+02 -0.64345984123E+02  0.76378208858E+02  0.00000000000E+00 0.  1.
</event>
<event>
12    1  0.8453150E-002  0.1980769E+03  0.7818608E-02  0.1151579E+00
         21   -1    0    0  501  502  0.00000000000E+00  0.00000000000E+00  0.74352229662E+03  0.74352229662E+03  0.00000000000E+00 0. -1.
         21   -1    0    0  502  503 -0.00000000000E+00 -0.00000000000E+00 -0.55860191927E+02  0.55860191927E+02  0.00000000000E+00 0. -1.
         -6    2    1    2    0  503 -0.93715623138E+02  0.22419524360E+02  0.24517703409E+03  0.31458612595E+03  0.17195173597E+03 0.  0.
        -24    2    3    3    0    0 -0.10659745015E+02 -0.32526113471E+02  0.62235041111E+02  0.10624226402E+03  0.79010379708E+02 0.  0.
          6    2    1    2  501    0  0.93715623138E+02 -0.22419524360E+02  0.44248507061E+03  0.48479636260E+03  0.17305843634E+03 0.  0.
         24    2    5    5    0    0  0.12923845425E+03 -0.52208891740E+01  0.29750748319E+03  0.33446920126E+03  0.81419336152E+02 0.  0.
          5    1    5    5  501    0 -0.35522831110E+02 -0.17198635186E+02  0.14497758742E+03  0.15032716134E+03  0.47000000000E+01 0. -1.
        -11    1    6    6    0    0  0.39267923209E+02  0.10502192475E+02  0.26595712859E+02  0.48575691270E+02  0.00000000000E+00 0.  1.
         12    1    6    6    0    0  0.89970531039E+02 -0.15723081649E+02  0.27091177033E+03  0.28589350999E+03  0.00000000000E+00 0. -1.
         -5    1    3    3    0  503 -0.83055878123E+02  0.54945637831E+02  0.18294199297E+03  0.20834386192E+03  0.47000000000E+01 0.  1.
         11    1    4    4    0    0 -0.14882316804E+02  0.10563197473E+02 -0.10896505235E+02  0.21255547997E+02  0.00000000000E+00 0. -1.
        -12    1    4    4    0    0  0.42225717893E+01 -0.43089310944E+02  0.73131546346E+02  0.84986716027E+02  0.00000000000E+00 0.  1.
</event>
<event>
12    1  0.8453150E-002  0.1864041E+03  0.7818608E-02  0.1163137E+00
         21   -1    0    0  501  502  0.00000000000E+00  0.00000000000E+00  0.22935994572E+03  0.22935994572E+03  0.00000000000E+00 0.  1.
         21   -1    0    0  502  503 -0.00000000000E+00 -0.00000000000E+00 -0.16166024731E+03  0.16166024731E+03  0.00000000000E+00 0.  1.
         -6    2    1    2    0  503 -0.64226134616E+02 -0.10892054528E+02 -0.25080893498E+02  0.18808383189E+03  0.17465063235E+03 0.  0.
        -24    2    3    3    0    0 -0.12903926644E+02 -0.53139174936E+02 -0.53967563221E+02  0.11545244817E+03  0.86177065817E+02 0.  0.
          6    2    1    2  501    0  0.64226134616E+02  0.10892054528E+02  0.92780591906E+02  0.20293636114E+03  0.16831902810E+03 0.  0.
         24    2    5    5    0    0 -0.23148683034E+02  0.24444796722E+02  0.69750017211E+02  0.11144574440E+03  0.80135381896E+02 0.  0.
          5    1    5    5  501    0  0.87374817651E+02 -0.13552742194E+02  0.23030574695E+02  0.91490616739E+02  0.47000000000E+01 0. -1.
        -13    1    6    6    0    0 -0.14068909886E+02 -0.21116259733E+02 -0.25552289966E+01  0.25502153747E+02  0.00000000000E+00 0.  1.
         14    1    6    6    0    0 -0.90797731482E+01  0.45561056455E+02  0.72305246207E+02  0.85943590656E+02  0.00000000000E+00 0. -1.
         -5    1    3    3    0  503 -0.51322207973E+02  0.42247120408E+02  0.28886669723E+02  0.72631383724E+02  0.47000000000E+01 0.  1.
         11    1    4    4    0    0  0.81377107498E+00  0.18400848625E+02 -0.35980984808E+02  0.40421339923E+02  0.00000000000E+00 0. -1.
        -12    1    4    4    0    0 -0.13717697719E+02 -0.71540023561E+02 -0.17986578413E+02  0.75031108247E+02  0.00000000000E+00 0.  1.
</event>
<event>
12    1  0.8453150E-002  0.1957203E+03  0.7818608E-02  0.1154203E+00
         21   -1    0    0  501  502  0.00000000000E+00  0.00000000000E+00  0.24379468603E+03  0.24379468603E+03  0.00000000000E+00 0.  1.
         21   -1    0    0  502  503 -0.00000000000E+00 -0.00000000000E+00 -0.30918541160E+03  0.30918541160E+03  0.00000000000E+00 0.  1.
         -6    2    1    2    0  503 -0.87956186242E+02 -0.27554516085E+02  0.16321060620E+03  0.25203988281E+03  0.16849587085E+03 0.  0.
        -24    2    3    3    0    0  0.76125320810E+01  0.15648020005E+02  0.40965591608E+02  0.90900897334E+02  0.79258957005E+02 0.  0.
          6    2    1    2  501    0  0.87956186242E+02  0.27554516085E+02 -0.22860133176E+03  0.30094021482E+03  0.17265833880E+03 0.  0.
         24    2    5    5    0    0  0.11414229011E+03  0.27893683813E+02 -0.10778280593E+03  0.17722670199E+03  0.77366986881E+02 0.  0.
          5    1    5    5  501    0 -0.26186103863E+02 -0.33916772860E+00 -0.12081852584E+03  0.12371351283E+03  0.47000000000E+01 0. -1.
        -13    1    6    6    0    0  0.66925545924E+02  0.15871952866E+02 -0.12079419649E+02  0.69834518428E+02  0.00000000000E+00 0.  1.
         14    1    6    6    0    0  0.47216744181E+02  0.12021730947E+02 -0.95703386278E+02  0.10739218357E+03  0.00000000000E+00 0. -1.
         -5    1    3    3    0  503 -0.95568718323E+02 -0.43202536090E+02  0.12224501460E+03  0.16113898548E+03  0.47000000000E+01 0.  1.
         11    1    4    4    0    0  0.38584980902E+02  0.21026538415E+01  0.42010596314E+02  0.57079874799E+02  0.00000000000E+00 0. -1.
        -12    1    4    4    0    0 -0.30972448821E+02  0.13545366164E+02 -0.10450047062E+01  0.33821022535E+02  0.00000000000E+00 0.  1.
</event>
<event>
12    1  0.8453150E-002  0.2219017E+03  0.7818608E-02  0.1132476E+00
         21   -1    0    0  503  502  0.00000000000E+00  0.00000000000E+00  0.19294689388E+03  0.19294689388E+03  0.00000000000E+00 0. -1.
         21   -1    0    0  501  503 -0.00000000000E+00 -0.00000000000E+00 -0.37034292851E+03  0.37034292851E+03  0.00000000000E+00 0. -1.
          6    2    1    2  501    0 -0.12991825552E+03 -0.53995277220E+02 -0.24575343181E+03  0.33111195103E+03  0.17159875230E+03 0.  0.
         24    2    3    3    0    0 -0.59507398339E+02  0.11117048419E+02 -0.42859668847E+02  0.10664531028E+03  0.76626051504E+02 0.  0.
         -6    2    1    2    0  502  0.12991825552E+03  0.53995277220E+02  0.68357397181E+02  0.23217787136E+03  0.17157968155E+03 0.  0.
        -24    2    5    5    0    0  0.13789373175E+03  0.81760470062E+02  0.17744943114E+02  0.17371228609E+03  0.64510616261E+02 0.  0.
          5    1    3    3  501    0 -0.70410857181E+02 -0.65112325639E+02 -0.20289376297E+03  0.22446664075E+03  0.47000000000E+01 0. -1.
        -11    1    4    4    0    0 -0.53137118496E+02 -0.25086737307E+02 -0.15354828715E+02  0.60734409651E+02  0.00000000000E+00 0.  1.
         12    1    4    4    0    0 -0.63702798434E+01  0.36203785726E+02 -0.27504840132E+02  0.45910900633E+02  0.00000000000E+00 0. -1.
         -5    1    5    5    0  502 -0.79754762332E+01 -0.27765192842E+02  0.50612454067E+02  0.58465585274E+02  0.47000000000E+01 0.  1.
         13    1    6    6    0    0  0.40632096001E+02  0.44798598220E+02  0.32440730014E+02  0.68631498539E+02  0.00000000000E+00 0. -1.
        -14    1    6    6    0    0  0.97261635753E+02  0.36961871842E+02 -0.14695786900E+02  0.10508078755E+03  0.00000000000E+00 0.  1.
</event>
<event>
12    1  0.8453150E-002  0.1819058E+03  0.7818608E-02  0.1166079E+00
         21   -1    0    0  503  502  0.00000000000E+00  0.00000000000E+00  0.19362873830E+03  0.19362873830E+03  0.00000000000E+00 0.  1.
         21   -1    0    0  501  503 -0.00000000000E+00 -0.00000000000E+00 -0.17723175214E+03  0.17723175214E+03  0.00000000000E+00 0. -1.
          6    2    1    2  501    0 -0.57007771743E+02 -0.12461118779E+02 -0.28035489801E+02  0.18360676464E+03  0.17181469615E+03 0.  0.
         24    2    3    3    0    0  0.27986961512E+02 -0.30018294643E+02  0.36593536032E+01  0.91091835013E+02  0.81240159462E+02 0.  0.
         -6    2    1    2    0  502  0.57007771743E+02  0.12461118779E+02  0.44432475957E+02  0.18725372580E+03  0.17229204098E+03 0.  0.
        -24    2    5    5    0    0  0.82621724130E+02 -0.26067085875E+02  0.79691272964E+01  0.12815920061E+03  0.94103302004E+02 0.  0.
          5    1    3    3  501    0 -0.84994733255E+02  0.17557175864E+02 -0.31694843404E+02  0.92514929627E+02  0.47000000000E+01 0. -1.
        -13    1    4    4    0    0 -0.80991672090E+01 -0.34346785084E+02 -0.26283439167E+02  0.44001333270E+02  0.00000000000E+00 0.  1.
         14    1    4    4    0    0  0.36086128721E+02  0.43284904405E+01  0.29942792770E+02  0.47090501744E+02  0.00000000000E+00 0. -1.
         -5    1    5    5    0  502 -0.25613952387E+02  0.38528204654E+02  0.36463348661E+02  0.59094525181E+02  0.47000000000E+01 0.  1.
         13    1    6    6    0    0 -0.33030424457E+00 -0.32894248376E+02 -0.22135148592E+02  0.39649785375E+02  0.00000000000E+00 0. -1.
        -14    1    6    6    0    0  0.82952028375E+02  0.68271625008E+01  0.30104275888E+02  0.88509415240E+02  0.00000000000E+00 0.  1.
</event>
<event>
12    1  0.8453150E-002  0.1811405E+03  0.7818608E-02  0.1167200E+00
         21   -1    0    0  503  502  0.00000000000E+00  0.00000000000E+00  0.17091444039E+04  0.17091444039E+04  0.00000000000E+00 0.  1.
         21   -1    0    0  501  503 -0.00000000000E+00 -0.00000000000E+00 -0.37300490757E+02  0.37300490757E+02  0.00000000000E+00 0.  1.
          6    2    1    2  501    0  0.14621986679E+02  0.50532677396E+02  0.22638605203E+03  0.28993539345E+03  0.17333359122E+03 0.  0.
         24    2    3    3    0    0  0.50474690895E+02  0.76436999169E+02  0.10334981879E+03  0.15910552311E+03  0.79013120274E+02 0.  0.
         -6    2    1    2    0  502 -0.14621986679E+02 -0.50532677396E+02  0.14454578611E+04  0.14565095012E+04  0.17118453452E+03 0.  0.
        -24    2    5    5    0    0 -0.56639099244E+02  0.14424340406E+02  0.92803974385E+03  0.93331885719E+03  0.80064185885E+02 0.  0.
          5    1    3    3  501    0 -0.35852704215E+02 -0.25904321774E+02  0.12303623323E+03  0.13082987034E+03  0.47000000000E+01 0. -1.
        -11    1    4    4    0    0  0.46537588682E+02  0.22062639863E+01  0.41905600828E+02  0.62663339696E+02  0.00000000000E+00 0.  1.
         12    1    4    4    0    0  0.39371022129E+01  0.74230735183E+02  0.61444217967E+02  0.96442183411E+02  0.00000000000E+00 0. -1.
         -5    1    5    5    0  502  0.42017112565E+02 -0.64957017802E+02  0.51741811723E+03  0.52319064398E+03  0.47000000000E+01 0.  1.
         11    1    6    6    0    0 -0.47940069003E+02 -0.23130457761E+02  0.35323803975E+03  0.35722595233E+03  0.00000000000E+00 0. -1.
        -12    1    6    6    0    0 -0.86990302411E+01  0.37554798167E+02  0.57480170411E+03  0.57609290487E+03  0.00000000000E+00 0.  1.
</event>
<event>
12    1  0.8453150E-002  0.1780740E+03  0.7818608E-02  0.1170731E+00
         21   -1    0    0  503  502  0.00000000000E+00  0.00000000000E+00  0.14234804550E+03  0.14234804550E+03  0.00000000000E+00 0. -1.
         21   -1    0    0  501  503 -0.00000000000E+00 -0.00000000000E+00 -0.23200677108E+03  0.23200677108E+03  0.00000000000E+00 0. -1.
          6    2    1    2  501    0 -0.37457065287E+02  0.38609850961E+01  0.24652182704E+01  0.17386248196E+03  0.16971784346E+03 0.  0.
         24    2    3    3    0    0 -0.44031483275E+02 -0.18197575833E+01  0.63811189956E+02  0.11172624414E+03  0.80428866882E+02 0.  0.
         -6    2    1    2    0  502  0.37457065287E+02 -0.38609850961E+01 -0.92123943848E+02  0.20049233462E+03  0.17404716679E+03 0.  0.
        -24    2    5    5    0    0  0.50183724857E+02 -0.23253268934E+02 -0.12575488793E+03  0.15936863177E+03  0.80777151462E+02 0.  0.
          5    1    3    3  501    0  0.65744179872E+01  0.56807426793E+01 -0.61345971686E+02  0.62136237827E+02  0.47000000000E+01 0. -1.
        -13    1    4    4    0    0  0.33313676789E+01 -0.11942741307E+02 -0.14853004628E+02  0.19347837787E+02  0.00000000000E+00 0.  1.
         14    1    4    4    0    0 -0.47362850954E+02  0.10122983724E+02  0.78664194584E+02  0.92378406349E+02  0.00000000000E+00 0. -1.
         -5    1    5    5    0  502 -0.12726659570E+02  0.19392283838E+02  0.33630944081E+02  0.41123702850E+02  0.47000000000E+01 0.  1.
         11    1    6    6    0    0 -0.16838645575E+02  0.13388494487E+02 -0.27932924908E+02  0.35256773297E+02  0.00000000000E+00 0. -1.
        -12    1    6    6    0    0  0.67022370432E+02 -0.36641763421E+02 -0.97821963021E+02  0.12411185848E+03  0.00000000000E+00 0.  1.
</event>
<event>
12    1  0.8453150E-002  0.1934766E+03  0.7818608E-02  0.1156134E+00
         21   -1    0    0  503  502  0.00000000000E+00  0.00000000000E+00  0.11403664580E+04  0.11403664580E+04  0.00000000000E+00 0.  1.
         21   -1    0    0  501  503 -0.00000000000E+00 -0.00000000000E+00 -0.42122734549E+02  0.42122734549E+02  0.00000000000E+00 0.  1.
          6    2    1    2  501    0  0.37647737755E+02  0.73687241489E+02  0.25894186421E+03  0.32117577181E+03  0.17104334434E+03 0.  0.
         24    2    3    3    0    0 -0.28814197603E+02  0.86601065455E+02  0.18390708357E+03  0.22000134814E+03  0.79049195273E+02 0.  0.
         -6    2    1    2    0  502 -0.37647737755E+02 -0.73687241489E+02  0.83930185922E+03  0.86131342072E+03  0.17488863912E+03 0.  0.
        -24    2    5    5    0    0  0.65766062662E+01  0.22880557802E+02  0.30702554996E+03  0.31852313721E+03  0.81397352140E+02 0.  0.
          5    1    3    3  501    0  0.66461935357E+02 -0.12913823966E+02  0.75034780634E+02  0.10117442367E+03  0.47000000000E+01 0. -1.
        -11    1    4    4    0    0  0.10861763209E+02  0.18937228847E+02  0.20230220361E+01  0.21924624388E+02  0.00000000000E+00 0.  1.
         12    1    4    4    0    0 -0.39675960811E+02  0.67663836608E+02  0.18188406153E+03  0.19807672375E+03  0.00000000000E+00 0. -1.
         -5    1    5    5    0  502 -0.44224344021E+02 -0.96567799290E+02  0.53227630926E+03  0.54279028350E+03  0.47000000000E+01 0.  1.
         11    1    6    6    0    0  0.18788325328E+02  0.41567642578E+02  0.95635263203E+02  0.10595741430E+03  0.00000000000E+00 0. -1.
        -12    1    6    6    0    0 -0.12211719062E+02 -0.18687084776E+02  0.21139028676E+03  0.21256572291E+03  0.00000000000E+00 0.  1.
</event>
<event>
12    1  0.8453150E-002  0.1958495E+03  0.7818608E-02  0.1153557E+00
         21   -1    0    0  503  502  0.00000000000E+00  0.00000000000E+00  0.81987370544E+02  0.81987370544E+02  0.00000000000E+00 0. -1.
         21   -1    0    0  501  503 -0.00000000000E+00 -0.00000000000E+00 -0.57838464729E+03  0.57838464729E+03  0.00000000000E+00 0. -1.
          6    2    1    2  501    0 -0.91568547708E+02  0.10848323682E+02 -0.39508892405E+03  0.44096743336E+03  0.17278464725E+03 0.  0.
         24    2    3    3    0    0  0.16794248265E+02  0.22583812159E+02 -0.20901989688E+03  0.22527322826E+03  0.79162078897E+02 0.  0.
         -6    2    1    2    0  502  0.91568547708E+02 -0.10848323682E+02 -0.10130835269E+03  0.21940458447E+03  0.17138408416E+03 0.  0.
        -24    2    5    5    0    0  0.85748120450E+02 -0.20128566648E+02 -0.17265812458E+01  0.11911191531E+03  0.80167124989E+02 0.  0.
          5    1    3    3  501    0 -0.10836279597E+03 -0.11735488477E+02 -0.18606902717E+03  0.21569420510E+03  0.47000000000E+01 0. -1.
        -13    1    4    4    0    0 -0.42423859571E+01 -0.15988620550E+02 -0.60674846233E+01  0.17619540157E+02  0.00000000000E+00 0.  1.
         14    1    4    4    0    0  0.21036634222E+02  0.38572432709E+02 -0.20295241225E+03  0.20765368811E+03  0.00000000000E+00 0. -1.
         -5    1    5    5    0  502  0.58204272578E+01  0.92802429664E+01 -0.99581771448E+02  0.10029266916E+03  0.47000000000E+01 0.  1.
         11    1    6    6    0    0  0.51307480581E+01  0.16880498810E+02  0.21111131856E+02  0.27512827989E+02  0.00000000000E+00 0. -1.
        -12    1    6    6    0    0  0.80617372392E+02 -0.37009065459E+02 -0.22837713102E+02  0.91599087317E+02  0.00000000000E+00 0.  1.
</event>
<event>
12    1  0.8453150E-002  0.2117490E+03  0.7818608E-02  0.1140412E+00
         21   -1    0    0  503  502  0.00000000000E+00  0.00000000000E+00  0.13591242407E+03  0.13591242407E+03  0.00000000000E+00 0.  1.
         21   -1    0    0  501  503 -0.00000000000E+00 -0.00000000000E+00 -0.35416231474E+03  0.35416231474E+03  0.00000000000E+00 0.  1.
          6    2    1    2  501    0  0.12088208049E+03  0.38536962302E+01 -0.17528598539E+03  0.27401099153E+03  0.17242249984E+03 0.  0.
         24    2    3    3    0    0  0.47300876485E+02 -0.41718661579E+02 -0.15498628555E+03  0.18498739246E+03  0.78878178352E+02 0.  0.
         -6    2    1    2    0  502 -0.12088208049E+03 -0.38536962302E+01 -0.42963905288E+02  0.21606374728E+03  0.17381115435E+03 0.  0.
        -24    2    5    5    0    0 -0.10199463100E+03 -0.61717095218E+02 -0.52853015443E+02  0.15421883488E+03  0.82329236574E+02 0.  0.
          5    1    3    3  501    0  0.73581204002E+02  0.45572357809E+02 -0.20299699838E+02  0.89023599074E+02  0.47000000000E+01 0. -1.
        -11    1    4    4    0    0  0.64416800289E+02 -0.49079443138E+02 -0.11270511746E+03  0.13878313802E+03  0.00000000000E+00 0.  1.
         12    1    4    4    0    0 -0.17115923804E+02  0.73607815589E+01 -0.42281168088E+02  0.46204254434E+02  0.00000000000E+00 0. -1.
         -5    1    5    5    0  502 -0.18887449482E+02  0.57863398987E+02  0.98891101549E+01  0.61844912402E+02  0.47000000000E+01 0.  1.
         11    1    6    6    0    0 -0.75837159473E+02 -0.45162969805E+02 -0.75267112636E+02  0.11600046053E+03  0.00000000000E+00 0. -1.
        -12    1    6    6    0    0 -0.26157471531E+02 -0.16554125413E+02  0.22414097193E+02  0.38218374351E+02  0.00000000000E+00 0.  1.
</event>
<event>
12    1  0.8453150E-002  0.2180285E+03  0.7818608E-02  0.1135551E+00
         21   -1    0    0  503  502  0.00000000000E+00  0.00000000000E+00  0.64588367342E+02  0.64588367342E+02  0.00000000000E+00 0. -1.
         21   -1    0    0  501  503 -0.00000000000E+00 -0.00000000000E+00 -0.74249195241E+03  0.74249195241E+03  0.00000000000E+00 0. -1.
          6    2    1    2  501    0 -0.12767169808E+03  0.38717774991E+02 -0.38625876877E+03  0.44354511817E+03  0.17244508346E+03 0.  0.
         24    2    3    3    0    0 -0.28091778424E+02 -0.41721394660E+00 -0.28157277182E+03  0.29378211968E+03  0.78964459927E+02 0.  0.
         -6    2    1    2    0  502  0.12767169808E+03 -0.38717774991E+02 -0.29164481630E+03  0.36353520158E+03  0.17117831441E+03 0.  0.
        -24    2    5    5    0    0  0.15496080076E+03 -0.29710078072E+02 -0.28208803212E+03  0.33288792026E+03  0.79656582108E+02 0.  0.
          5    1    3    3  501    0 -0.99579919659E+02  0.39134988937E+02 -0.10468599694E+03  0.14976299848E+03  0.47000000000E+01 0. -1.
        -13    1    4    4    0    0  0.20818634444E+02  0.18956948280E+02 -0.13876169803E+03  0.14158951327E+03  0.00000000000E+00 0.  1.
         14    1    4    4    0    0 -0.48910412868E+02 -0.19374162226E+02 -0.14281107379E+03  0.15219260641E+03  0.00000000000E+00 0. -1.
         -5    1    5    5    0  502 -0.27289102680E+02 -0.90076969188E+01 -0.95567841748E+01  0.30647281325E+02  0.47000000000E+01 0.  1.
         13    1    6    6    0    0  0.15209956650E+03 -0.28588231333E+02 -0.21068456904E+03  0.26141834811E+03  0.00000000000E+00 0. -1.
        -14    1    6    6    0    0  0.28612342652E+01 -0.11218467389E+01 -0.71403463087E+02  0.71469572144E+02  0.00000000000E+00 0.  1.
</event>
<event>
12    1  0.8453150E-002  0.2010988E+03  0.7818608E-02  0.1150869E+00
         21   -1    0    0  501  502  0.00000000000E+00  0.00000000000E+00  0.27867318330E+03  0.27867318330E+03  0.00000000000E+00 0. -1.
         21   -1    0    0  502  503 -0.00000000000E+00 -0.00000000000E+00 -0.31376632796E+03  0.31376632796E+03  0.00000000000E+00 0. -1.
         -6    2    1    2    0  503 -0.60767054852E+02 -0.57322269642E+02 -0.23921987289E+03  0.31251700178E+03  0.18292690142E+03 0.  0.
        -24    2    3    3    0    0 -0.68868851921E+02 -0.65250893229E+02 -0.26057588196E+03  0.28788630323E+03  0.77318403358E+02 0.  0.
          6    2    1    2  501    0  0.60767054852E+02  0.57322269642E+02  0.20412672823E+03  0.27992250948E+03  0.17236708672E+03 0.  0.
         24    2    5    5    0    0 -0.26847785847E+02  0.58157854650E+02  0.13096768795E+03  0.16567981305E+03  0.78702766805E+02 0.  0.
          5    1    5    5  501    0  0.87614840699E+02 -0.83558500797E+00  0.73159040277E+02  0.11424269643E+03  0.47000000000E+01 0. -1.
        -13    1    6    6    0    0 -0.97652209918E+01  0.60415557643E+02  0.13478727951E+03  0.14803043560E+03  0.00000000000E+00 0.  1.
         14    1    6    6    0    0 -0.17082564856E+02 -0.22577029927E+01 -0.38195915548E+01  0.17649377453E+02  0.00000000000E+00 0. -1.
         -5    1    3    3    0  503  0.81017970688E+01  0.79286235871E+01  0.21356009067E+02  0.24630698549E+02  0.47000000000E+01 0.  1.
         11    1    4    4    0    0 -0.41831445536E+02 -0.66024854133E+02 -0.24388262455E+03  0.25610131932E+03  0.00000000000E+00 0. -1.
        -12    1    4    4    0    0 -0.27037406385E+02  0.77396090330E+00 -0.16693257409E+02  0.31784983914E+02  0.00000000000E+00 0.  1.
</event>
<event>
12    1  0.8453150E-002  0.1866198E+03  0.7818608E-02  0.1162096E+00
         21   -1    0    0  501  502  0.00000000000E+00  0.00000000000E+00  0.15487148526E+04  0.15487148526E+04  0.00000000000E+00 0. -1.
         21   -1    0    0  502  503 -0.00000000000E+00 -0.00000000000E+00 -0.80246774932E+02  0.80246774932E+02  0.00000000000E+00 0. -1.
         -6    2    1    2    0  503  0.68664893078E+02  0.85594786678E+01  0.40241795093E+02  0.18859457271E+03  0.17076410210E+03 0.  0.
        -24    2    3    3    0    0  0.14865264939E+01  0.59446572339E+02  0.20181824800E+02  0.10183673936E+03  0.80170510206E+02 0.  0.
          6    2    1    2  501    0 -0.68664893078E+02 -0.85594786678E+01  0.14282262826E+04  0.14403670549E+04  0.17331706834E+03 0.  0.
         24    2    5    5    0    0 -0.66311150935E+02 -0.69501852308E+02  0.92458345636E+03  0.93302328636E+03  0.80313192559E+02 0.  0.
          5    1    5    5  501    0 -0.23537421432E+01  0.60942373640E+02  0.50364282626E+03  0.50734376852E+03  0.47000000000E+01 0. -1.
        -13    1    6    6    0    0 -0.44459468650E+02 -0.84277583021E+02  0.61743638161E+03  0.62474558077E+03  0.00000000000E+00 0.  1.
         14    1    6    6    0    0 -0.21851682285E+02  0.14775730713E+02  0.30714707474E+03  0.30827770559E+03  0.00000000000E+00 0. -1.
         -5    1    3    3    0  503  0.67178366584E+02 -0.50887093671E+02  0.20059970293E+02  0.86757833349E+02  0.47000000000E+01 0.  1.
         11    1    4    4    0    0 -0.25601109211E+02 -0.50176191609E+01 -0.66812716518E+01  0.26930144555E+02  0.00000000000E+00 0. -1.
        -12    1    4    4    0    0  0.27087635705E+02  0.64464191500E+02  0.26863096451E+02  0.74906594802E+02  0.00000000000E+00 0.  1.
</event>
<event>
12    1  0.8453150E-002  0.3478676E+03  0.7818608E-02  0.1063501E+00
         21   -1    0    0  501  502  0.00000000000E+00  0.00000000000E+00  0.37607574404E+03  0.37607574404E+03  0.00000000000E+00 0. -1.
         21   -1    0    0  502  503 -0.00000000000E+00 -0.00000000000E+00 -0.33892213151E+03  0.33892213151E+03  0.00000000000E+00 0. -1.
         -6    2    1    2    0  503 -0.14393075299E+03  0.26553006485E+03 -0.61979257412E+02  0.35328086453E+03  0.17246351467E+03 0.  0.
        -24    2    3    3    0    0 -0.13752277018E+03  0.19860380432E+03 -0.10298911954E+03  0.27438799169E+03  0.79536330254E+02 0.  0.
          6    2    1    2  501    0  0.14393075299E+03 -0.26553006485E+03  0.99132869941E+02  0.36171701103E+03  0.17259661981E+03 0.  0.
         24    2    5    5    0    0  0.13730719120E+02 -0.14947071502E+03  0.25201961102E+02  0.17221848654E+03  0.80585612645E+02 0.  0.
          5    1    5    5  501    0  0.13020003387E+03 -0.11605934983E+03  0.73930908839E+02  0.18949852449E+03  0.47000000000E+01 0. -1.
        -11    1    6    6    0    0  0.44284267903E+01  0.10512915852E+01 -0.15384259864E+02  0.16043429477E+02  0.00000000000E+00 0.  1.
         12    1    6    6    0    0  0.93022923297E+01 -0.15052200661E+03  0.40586220966E+02  0.15617505706E+03  0.00000000000E+00 0. -1.
         -5    1    3    3    0  503 -0.64079828139E+01  0.66926260530E+02  0.41009862132E+02  0.78892872836E+02  0.47000000000E+01 0.  1.
         11    1    4    4    0    0 -0.12409015981E+03  0.15843510464E+03 -0.51528280986E+02  0.20773833032E+03  0.00000000000E+00 0. -1.
        -12    1    4    4    0    0 -0.13432610374E+02  0.40168699682E+02 -0.51460838558E+02  0.66649661370E+02  0.00000000000E+00 0.  1.
</event>
<event>
12    1  0.8453150E-002  0.2170455E+03  0.7818608E-02  0.1137384E+00
         21   -1    0    0  503  502  0.00000000000E+00  0.00000000000E+00  0.40728180601E+03  0.40728180601E+03  0.00000000000E+00 0.  1.
         21   -1    0    0  501  503 -0.00000000000E+00 -0.00000000000E+00 -0.17737240389E+03  0.17737240389E+03  0.00000000000E+00 0. -1.
          6    2    1    2  501    0  0.10290439382E+03  0.64543381513E+02 -0.61156219099E+02  0.22549684694E+03  0.17987101623E+03 0.  0.
         24    2    3    3    0    0  0.92750894464E+02  0.22593701356E+02  0.26922511670E+02  0.12729897513E+03  0.79793506432E+02 0.  0.
         -6    2    1    2    0  502 -0.10290439382E+03 -0.64543381513E+02  0.29106562122E+03  0.35915736296E+03  0.17181284338E+03 0.  0.
        -24    2    5    5    0    0 -0.99717945861E+02 -0.10341742312E+03  0.19450678054E+03  0.25491224665E+03  0.80675483794E+02 0.  0.
          5    1    3    3  501    0  0.10153499360E+02  0.41949680156E+02 -0.88078730769E+02  0.98197871812E+02  0.47000000000E+01 0. -1.
        -13    1    4    4    0    0  0.53968558204E+02 -0.27205274587E+02  0.56927373150E+01  0.60705349831E+02  0.00000000000E+00 0.  1.
         14    1    4    4    0    0  0.38782336261E+02  0.49798975943E+02  0.21229774355E+02  0.66593625295E+02  0.00000000000E+00 0. -1.
         -5    1    5    5    0  502 -0.31864479639E+01  0.38874041606E+02  0.96558840682E+02  0.10424511631E+03  0.47000000000E+01 0.  1.
         13    1    6    6    0    0 -0.19363661465E+01 -0.17151460472E+00 -0.75708669917E+01  0.78164543188E+01  0.00000000000E+00 0. -1.
        -14    1    6    6    0    0 -0.97781579714E+02 -0.10324590851E+03  0.20207764753E+03  0.24709579233E+03  0.00000000000E+00 0.  1.
</event>
<event>
12    1  0.8453150E-002  0.2166181E+03  0.7818608E-02  0.1136641E+00
         21   -1    0    0  501  502  0.00000000000E+00  0.00000000000E+00  0.32723075091E+03  0.32723075091E+03  0.00000000000E+00 0.  1.
         21   -1    0    0  502  503 -0.00000000000E+00 -0.00000000000E+00 -0.22323081002E+03  0.22323081002E+03  0.00000000000E+00 0. -1.
         -6    2    1    2    0  503 -0.29571907658E+02  0.13162331483E+03 -0.11343179127E+03  0.24354141581E+03  0.16806681770E+03 0.  0.
        -24    2    3    3    0    0 -0.79035777200E+02  0.11971542473E+03 -0.85756022923E+02  0.18543366770E+03  0.80331268215E+02 0.  0.
          6    2    1    2  501    0  0.29571907658E+02 -0.13162331483E+03  0.21743173217E+03  0.30692014512E+03  0.16948221912E+03 0.  0.
         24    2    5    5    0    0 -0.12530246503E+02 -0.66854878519E+02  0.20156026570E+03  0.22791675801E+03  0.81810305048E+02 0.  0.
          5    1    5    5  501    0  0.42102154161E+02 -0.64768436316E+02  0.15871466469E+02  0.79003387115E+02  0.47000000000E+01 0. -1.
        -13    1    6    6    0    0  0.79642043700E+01 -0.81010032444E+02  0.15039172008E+03  0.17100796291E+03  0.00000000000E+00 0.  1.
         14    1    6    6    0    0 -0.20494450873E+02  0.14155153925E+02  0.51168545616E+02  0.56908795099E+02  0.00000000000E+00 0. -1.
         -5    1    3    3    0  503  0.49463869542E+02  0.11907890108E+02 -0.27675768350E+02  0.58107748112E+02  0.47000000000E+01 0.  1.
         13    1    4    4    0    0 -0.30420708582E+02  0.63839424416E+02 -0.86035337816E+02  0.11136862652E+03  0.00000000000E+00 0. -1.
        -14    1    4    4    0    0 -0.48615068618E+02  0.55876000310E+02  0.27931489338E+00  0.74065041174E+02  0.00000000000E+00 0.  1.
</event>
<event>
12    1  0.8453150E-002  0.2131622E+03  0.7818608E-02  0.1139195E+00
         21   -1    0    0  503  502  0.00000000000E+00  0.00000000000E+00  0.32878599318E+03  0.32878599318E+03  0.00000000000E+00 0.  1.
         21   -1    0    0  501  503 -0.00000000000E+00 -0.00000000000E+00 -0.17137922813E+03  0.17137922813E+03  0.00000000000E+00 0.  1.
          6    2    1    2  501    0  0.11340276808E+03  0.52200557937E+02 -0.32016161313E+02  0.21500004407E+03  0.17208979721E+03 0.  0.
         24    2    3    3    0    0  0.12164773786E+03  0.45135174943E+02  0.27374653968E+02  0.15444215355E+03  0.79168497346E+02 0.  0.
         -6    2    1    2    0  502 -0.11340276808E+03 -0.52200557937E+02  0.18942292636E+03  0.28516517724E+03  0.17278034385E+03 0.  0.
        -24    2    5    5    0    0  0.82500693670E+01 -0.45097861368E+02  0.83590557205E+02  0.12369554691E+03  0.78811968172E+02 0.  0.
          5    1    3    3  501    0 -0.82449697725E+01  0.70653829947E+01 -0.59390815282E+02  0.60557890512E+02  0.47000000000E+01 0. -1.
        -13    1    4    4    0    0 -0.10471370092E+01  0.26578155103E+02 -0.27708692119E+01  0.26742710050E+02  0.00000000000E+00 0.  1.
         14    1    4    4    0    0  0.12269487487E+03  0.18557019839E+02  0.30145523180E+02  0.12769944350E+03  0.00000000000E+00 0. -1.
         -5    1    5    5    0  502 -0.12165283745E+03 -0.71026965689E+01  0.10583236916E+03  0.16146963033E+03  0.47000000000E+01 0.  1.
         13    1    6    6    0    0 -0.42447705205E+01 -0.95425919691E+01 -0.14925679940E+02  0.18216889415E+02  0.00000000000E+00 0. -1.
        -14    1    6    6    0    0  0.12494839887E+02 -0.35555269399E+02  0.98516237145E+02  0.10547865750E+03  0.00000000000E+00 0.  1.
</event>
<event>
12    1  0.8453150E-002  0.3432063E+03  0.7818608E-02  0.1065455E+00
         21   -1    0    0  501  502  0.00000000000E+00  0.00000000000E+00  0.26985221730E+03  0.26985221730E+03  0.00000000000E+00 0. -1.
         21   -1    0    0  502  503 -0.00000000000E+00 -0.00000000000E+00 -0.49971470017E+03  0.49971470017E+03  0.00000000000E+00 0.  1.
         -6    2    1    2    0  503 -0.92719216768E+02  0.28141097594E+03  0.22159640829E+02  0.34376681971E+03  0.17290340110E+03 0.  0.
        -24    2    3    3    0    0 -0.36857016345E+02  0.27118221221E+03  0.10181467114E+02  0.28553641795E+03  0.80803167203E+02 0.  0.
          6    2    1    2  501    0  0.92719216768E+02 -0.28141097594E+03 -0.25202212370E+03  0.42580009777E+03  0.17320964722E+03 0.  0.
         24    2    5    5    0    0  0.40956192385E+02 -0.15128119752E+03 -0.22105787805E+03  0.28229384553E+03  0.79119020193E+02 0.  0.
          5    1    5    5  501    0  0.51763024383E+02 -0.13012977842E+03 -0.30964245651E+02  0.14350625224E+03  0.47000000000E+01 0. -1.
        -11    1    6    6    0    0  0.32228169732E+02 -0.65445982578E+02 -0.43633945703E+02  0.85004427987E+02  0.00000000000E+00 0.  1.
         12    1    6    6    0    0  0.87280226526E+01 -0.85835214946E+02 -0.17742393234E+03  0.19728941754E+03  0.00000000000E+00 0. -1.
         -5    1    3    3    0  503 -0.55862200423E+02  0.10228763735E+02  0.11978173715E+02  0.58230401761E+02  0.47000000000E+01 0.  1.
         11    1    4    4    0    0  0.25870716362E+02  0.72982357528E+02  0.47103292940E+01  0.77575161472E+02  0.00000000000E+00 0. -1.
        -12    1    4    4    0    0 -0.62727732707E+02  0.19819985468E+03  0.54711378201E+01  0.20796125647E+03  0.00000000000E+00 0.  1.
</event>
<event>
12    1  0.8453150E-002  0.2364791E+03  0.7818608E-02  0.1122168E+00
         21   -1    0    0  501  502  0.00000000000E+00  0.00000000000E+00  0.60542627458E+03  0.60542627458E+03  0.00000000000E+00 0. -1.
         21   -1    0    0  502  503 -0.00000000000E+00 -0.00000000000E+00 -0.11060940528E+03  0.11060940528E+03  0.00000000000E+00 0.  1.
         -6    2    1    2    0  503  0.12696741928E+03 -0.10199909449E+03  0.10193232588E+03  0.25747203391E+03  0.17139751559E+03 0.  0.
        -24    2    3    3    0    0  0.85996751946E+02  0.47721238678E+01  0.16845745337E+02  0.11485189214E+03  0.74087539301E+02 0.  0.
          6    2    1    2  501    0 -0.12696741928E+03  0.10199909449E+03  0.39288454341E+03  0.45856364595E+03  0.17145790181E+03 0.  0.
         24    2    5    5    0    0 -0.33187000153E+01  0.64283406392E+02  0.12356281484E+03  0.15978653439E+03  0.78234246052E+02 0.  0.
          5    1    5    5  501    0 -0.12364871927E+03  0.37715688094E+02  0.26932172858E+03  0.29877711155E+03  0.47000000000E+01 0. -1.
        -13    1    6    6    0    0  0.32285171185E+02  0.80630529609E+01  0.54679511066E+02  0.64009327695E+02  0.00000000000E+00 0.  1.
         14    1    6    6    0    0 -0.35603871200E+02  0.56220353431E+02  0.68883303772E+02  0.95777206698E+02  0.00000000000E+00 0. -1.
         -5    1    3    3    0  503  0.40970667336E+02 -0.10677121835E+03  0.85086580544E+02  0.14262014177E+03  0.47000000000E+01 0.  1.
         13    1    4    4    0    0  0.58925087312E+02 -0.15944762240E+02  0.40591125362E+02  0.73307849619E+02  0.00000000000E+00 0. -1.
        -14    1    4    4    0    0  0.27071664634E+02  0.20716886108E+02 -0.23745380025E+02  0.41544042517E+02  0.00000000000E+00 0.  1.
</event>
<event>
12    1  0.8453150E-002  0.1836278E+03  0.7818608E-02  0.1164490E+00
         21   -1    0    0  501  502  0.00000000000E+00  0.00000000000E+00  0.13894373978E+03  0.13894373978E+03  0.00000000000E+00 0. -1.
         21   -1    0    0  502  503 -0.00000000000E+00 -0.00000000000E+00 -0.20469476866E+04  0.20469476866E+04  0.00000000000E+00 0.  1.
         -6    2    1    2    0  503 -0.11354246554E+02  0.59484337731E+02 -0.19805566197E+04  0.19890509535E+04  0.17335474156E+03 0.  0.
        -24    2    3    3    0    0 -0.25375599159E+02 -0.35005445595E+02 -0.95444167892E+03  0.95848854433E+03  0.76629425889E+02 0.  0.
          6    2    1    2  501    0  0.11354246554E+02 -0.59484337731E+02  0.72552672858E+02  0.19684047291E+03  0.17267013664E+03 0.  0.
         24    2    5    5    0    0 -0.34854409671E+02  0.13825328079E+02  0.27448529215E+02  0.99034436362E+02  0.87455292919E+02 0.  0.
          5    1    5    5  501    0  0.46208656225E+02 -0.73309665810E+02  0.45104143643E+02  0.97806036547E+02  0.47000000000E+01 0. -1.
        -13    1    6    6    0    0 -0.36418855507E+02  0.48283141618E+02  0.20419644564E+02  0.63832254269E+02  0.00000000000E+00 0.  1.
         14    1    6    6    0    0  0.15644458355E+01 -0.34457813539E+02  0.70288846509E+01  0.35202182093E+02  0.00000000000E+00 0. -1.
         -5    1    3    3    0  503  0.14021352605E+02  0.94489783326E+02 -0.10261149408E+04  0.10305624092E+04  0.47000000000E+01 0.  1.
         11    1    4    4    0    0  0.14393477587E+02  0.87877397557E+01 -0.67443805875E+02  0.69520238189E+02  0.00000000000E+00 0. -1.
        -12    1    4    4    0    0 -0.39769076746E+02 -0.43793185351E+02 -0.88699787304E+03  0.88896830614E+03  0.00000000000E+00 0.  1.
</event>
<event>
12    1  0.8453150E-002  0.1904628E+03  0.7818608E-02  0.1158391E+00
         21   -1    0    0  503  502  0.00000000000E+00  0.00000000000E+00  0.15432973856E+03  0.15432973856E+03  0.00000000000E+00 0.  1.
         21   -1    0    0  501  503 -0.00000000000E+00 -0.00000000000E+00 -0.53693426781E+03  0.53693426781E+03  0.00000000000E+00 0.  1.
          6    2    1    2  501    0 -0.40201439800E+01 -0.77652576340E+02  0.69002793717E+02  0.20113621674E+03  0.17218684030E+03 0.  0.
         24    2    3    3    0    0  0.46376430281E+02 -0.92054652125E+02  0.71588174598E+02  0.14844837489E+03  0.79291998346E+02 0.  0.
         -6    2    1    2    0  502  0.40201439800E+01  0.77652576340E+02 -0.45160732297E+03  0.49012778963E+03  0.17386774237E+03 0.  0.
        -24    2    5    5    0    0  0.12201993565E+02 -0.18218632625E+02 -0.12775366383E+03  0.15224983250E+03  0.79863669176E+02 0.  0.
          5    1    3    3  501    0 -0.50396574261E+02  0.14402075786E+02 -0.25853808816E+01  0.52687841847E+02  0.47000000000E+01 0. -1.
        -11    1    4    4    0    0  0.22083729554E+02 -0.11430048256E+02 -0.13871804273E+02  0.28473919082E+02  0.00000000000E+00 0.  1.
         12    1    4    4    0    0  0.24292700727E+02 -0.80624603869E+02  0.85459978871E+02  0.11997445581E+03  0.00000000000E+00 0. -1.
         -5    1    5    5    0  502 -0.81818495848E+01  0.95871208964E+02 -0.32385365914E+03  0.33787795713E+03  0.47000000000E+01 0.  1.
         13    1    6    6    0    0 -0.30108886747E+02 -0.47451600429E+01 -0.86217806597E+02  0.91447098255E+02  0.00000000000E+00 0. -1.
        -14    1    6    6    0    0  0.42310880311E+02 -0.13473472582E+02 -0.41535857229E+02  0.60802734247E+02  0.00000000000E+00 0.  1.
</event>
<event>
12    1  0.8453150E-002  0.2852247E+03  0.7818608E-02  0.1092955E+00
         21   -1    0    0  503  502  0.00000000000E+00  0.00000000000E+00  0.60775474594E+03  0.60775474594E+03  0.00000000000E+00 0.  1.
         21   -1    0    0  501  503 -0.00000000000E+00 -0.00000000000E+00 -0.20413446674E+03  0.20413446674E+03  0.00000000000E+00 0. -1.
          6    2    1    2  501    0  0.68211685046E+02  0.21636194967E+03 -0.36733755949E+02  0.28758038736E+03  0.17288083505E+03 0.  0.
         24    2    3    3    0    0  0.46342300609E+02  0.60024013866E+02 -0.64412171560E+02  0.12724322748E+03  0.79318472176E+02 0.  0.
         -6    2    1    2    0  502 -0.68211685046E+02 -0.21636194967E+03  0.44035403515E+03  0.52430882531E+03  0.17182182861E+03 0.  0.
        -24    2    5    5    0    0 -0.80063856713E+02 -0.74224215114E+02  0.27248881432E+03  0.30398081547E+03  0.78960287375E+02 0.  0.
          5    1    3    3  501    0  0.21869384437E+02  0.15633793581E+03  0.27678415612E+02  0.16033715988E+03  0.47000000000E+01 0. -1.
        -11    1    4    4    0    0  0.63495537766E+01  0.22020720185E+02  0.17255227749E+02  0.28687485692E+02  0.00000000000E+00 0.  1.
         12    1    4    4    0    0  0.39992746832E+02  0.38003293681E+02 -0.81667399309E+02  0.98555741790E+02  0.00000000000E+00 0. -1.
         -5    1    5    5    0  502  0.11852171666E+02 -0.14213773456E+03  0.16786522082E+03  0.22032800984E+03  0.47000000000E+01 0.  1.
         13    1    6    6    0    0 -0.12637133682E+02  0.12934872994E+02  0.13635459192E+02  0.22648042619E+02  0.00000000000E+00 0. -1.
        -14    1    6    6    0    0 -0.67426723030E+02 -0.87159088108E+02  0.25885335513E+03  0.28133277285E+03  0.00000000000E+00 0.  1.
</event>
<event>
12    1  0.8453150E-002  0.1986926E+03  0.7818608E-02  0.1151581E+00
         21   -1    0    0  501  502  0.00000000000E+00  0.00000000000E+00  0.65942914850E+03  0.65942914850E+03  0.00000000000E+00 0. -1.
         21   -1    0    0  502  503 -0.00000000000E+00 -0.00000000000E+00 -0.64883151378E+02  0.64883151378E+02  0.00000000000E+00 0.  1.
         -6    2    1    2    0  503  0.99565686186E+02 -0.75237679801E+01  0.18443205720E+03  0.26860165210E+03  0.16781457278E+03 0.  0.
        -24    2    3    3    0    0  0.50964822800E+02 -0.63462586981E+02  0.14604455991E+03  0.18501406127E+03  0.79222952967E+02 0.  0.
          6    2    1    2  501    0 -0.99565686186E+02  0.75237679801E+01  0.41011393992E+03  0.45571064778E+03  0.17178130815E+03 0.  0.
         24    2    5    5    0    0 -0.11713491064E+03  0.49504531513E+02  0.34437368069E+03  0.37561736567E+03  0.79522874123E+02 0.  0.
          5    1    5    5  501    0  0.17569224458E+02 -0.41980763532E+02  0.65740259230E+02  0.80093282106E+02  0.47000000000E+01 0. -1.
        -13    1    6    6    0    0  0.43662144084E+01  0.15269378664E+01  0.85754108411E+02  0.85878766158E+02  0.00000000000E+00 0.  1.
         14    1    6    6    0    0 -0.12150112505E+03  0.47977593646E+02  0.25861957228E+03  0.28973859951E+03  0.00000000000E+00 0. -1.
         -5    1    3    3    0  503  0.48600863386E+02  0.55938819001E+02  0.38387497282E+02  0.83587590829E+02  0.47000000000E+01 0.  1.
         11    1    4    4    0    0 -0.40660118252E+00  0.10865832273E+02 -0.24920182307E+01  0.11155348061E+02  0.00000000000E+00 0. -1.
        -12    1    4    4    0    0  0.51371423983E+02 -0.74328419254E+02  0.14853657815E+03  0.17385871321E+03  0.00000000000E+00 0.  1.
</event>
<event>
12    1  0.8453150E-002  0.1936728E+03  0.7818608E-02  0.1158516E+00
         21   -1    0    0  503  502  0.00000000000E+00  0.00000000000E+00  0.25845415347E+03  0.25845415347E+03  0.00000000000E+00 0. -1.
         21   -1    0    0  501  503 -0.00000000000E+00 -0.00000000000E+00 -0.15344809910E+03  0.15344809910E+03  0.00000000000E+00 0.  1.
          6    2    1    2  501    0 -0.33187339661E+02 -0.79165779300E+02  0.12311080850E+03  0.21738504636E+03  0.15726209678E+03 0.  0.
         24    2    3    3    0    0 -0.30434104523E+02 -0.50535408041E+02  0.12893059090E+02  0.10337925376E+03  0.83910529438E+02 0.  0.
         -6    2    1    2    0  502  0.33187339661E+02  0.79165779300E+02 -0.18104754128E+02  0.19451720622E+03  0.17361031440E+03 0.  0.
        -24    2    5    5    0    0  0.39694525185E+02  0.56295873333E+02 -0.75839852168E+02  0.13190085366E+03  0.83073890814E+02 0.  0.
          5    1    3    3  501    0 -0.27532351378E+01 -0.28630371258E+02  0.11021774941E+03  0.11400579260E+03  0.47000000000E+01 0. -1.
        -13    1    4    4    0    0  0.20483671923E+01  0.11427114547E+02 -0.22243689632E+02  0.25090964179E+02  0.00000000000E+00 0.  1.
         14    1    4    4    0    0 -0.32482471715E+02 -0.61962522588E+02  0.35136748722E+02  0.78288289577E+02  0.00000000000E+00 0. -1.
         -5    1    5    5    0  502 -0.65071855241E+01  0.22869905967E+02  0.57735098040E+02  0.62616352561E+02  0.47000000000E+01 0.  1.
         13    1    6    6    0    0  0.12247794770E+02 -0.96747680605E+01  0.11257874021E+02  0.19244462612E+02  0.00000000000E+00 0. -1.
        -14    1    6    6    0    0  0.27446730415E+02  0.65970641393E+02 -0.87097726189E+02  0.11265639105E+03  0.00000000000E+00 0.  1.
</event>
<event>
12    1  0.8453150E-002  0.3599079E+03  0.7818608E-02  0.1058748E+00
         21   -1    0    0  503  502  0.00000000000E+00  0.00000000000E+00  0.78124302566E+03  0.78124302566E+03  0.00000000000E+00 0. -1.
         21   -1    0    0  501  503 -0.00000000000E+00 -0.00000000000E+00 -0.22894382268E+03  0.22894382268E+03  0.00000000000E+00 0. -1.
          6    2    1    2  501    0 -0.11268849884E+03 -0.29356227383E+03  0.10017246640E+02  0.36004726217E+03  0.17508906126E+03 0.  0.
         24    2    3    3    0    0 -0.81900624994E+02 -0.21902697549E+03  0.72105376203E+02  0.25816286832E+03  0.82270000239E+02 0.  0.
         -6    2    1    2    0  502  0.11268849884E+03  0.29356227383E+03  0.54228195634E+03  0.65013958617E+03  0.17243623444E+03 0.  0.
        -24    2    5    5    0    0  0.85700969868E+02  0.30279242783E+03  0.46136497277E+03  0.56421420754E+03  0.80325110054E+02 0.  0.
          5    1    3    3  501    0 -0.30787873843E+02 -0.74535298349E+02 -0.62088129563E+02  0.10188439384E+03  0.47000000000E+01 0. -1.
        -11    1    4    4    0    0 -0.38090212454E+02 -0.28543104741E+02  0.35327788420E+02  0.59275844555E+02  0.00000000000E+00 0.  1.
         12    1    4    4    0    0 -0.43810412539E+02 -0.19048387074E+03  0.36777587783E+02  0.19888702377E+03  0.00000000000E+00 0. -1.
         -5    1    5    5    0  502  0.26987528969E+02 -0.92301539982E+01  0.80916983571E+02  0.85925378631E+02  0.47000000000E+01 0.  1.
         11    1    6    6    0    0  0.44749967635E+02  0.19547428350E+03  0.35469726962E+03  0.40745908775E+03  0.00000000000E+00 0. -1.
        -12    1    6    6    0    0  0.40951002232E+02  0.10731814433E+03  0.10666770315E+03  0.15675511979E+03  0.00000000000E+00 0.  1.
</event>
<event>
12    1  0.8453150E-002  0.2384426E+03  0.7818608E-02  0.1121546E+00
         21   -1    0    0  503  502  0.00000000000E+00  0.00000000000E+00  0.76165464796E+03  0.76165464796E+03  0.00000000000E+00 0. -1.
         21   -1    0    0  501  503 -0.00000000000E+00 -0.00000000000E+00 -0.79777760452E+02  0.79777760452E+02  0.00000000000E+00 0. -1.
          6    2    1    2  501    0  0.10958015075E+03 -0.12355465541E+03  0.21864273419E+03  0.32043264973E+03  0.16612909282E+03 0.  0.
         24    2    3    3    0    0  0.69805683372E+02 -0.13664710308E+02  0.14633781698E+03  0.18292665224E+03  0.83593335160E+02 0.  0.
         -6    2    1    2    0  502 -0.10958015075E+03  0.12355465541E+03  0.46323415332E+03  0.52099975869E+03  0.17199216679E+03 0.  0.
        -24    2    5    5    0    0 -0.94783375176E+02  0.37616585080E+02  0.16398840477E+03  0.20927166479E+03  0.80644510678E+02 0.  0.
          5    1    3    3  501    0  0.39774467381E+02 -0.10988994511E+03  0.72304917213E+02  0.13750599748E+03  0.47000000000E+01 0. -1.
        -11    1    4    4    0    0 -0.38348123205E+01  0.14755408776E+02 -0.15170742234E+01  0.15320880780E+02  0.00000000000E+00 0.  1.
         12    1    4    4    0    0  0.73640495693E+02 -0.28420119084E+02  0.14785489120E+03  0.16760577146E+03  0.00000000000E+00 0. -1.
         -5    1    5    5    0  502 -0.14796775578E+02  0.85938070334E+02  0.29924574855E+03  0.31172809390E+03  0.47000000000E+01 0.  1.
         11    1    6    6    0    0 -0.96939752798E+02  0.22157206166E+02  0.16602872836E+03  0.19352983258E+03  0.00000000000E+00 0. -1.
        -12    1    6    6    0    0  0.21563776217E+01  0.15459378914E+02 -0.20403235950E+01  0.15741832207E+02  0.00000000000E+00 0.  1.
</event>
<event>
12    1  0.8453150E-002  0.1937497E+03  0.7818608E-02  0.1155131E+00
         21   -1    0    0  503  502  0.00000000000E+00  0.00000000000E+00  0.11079879511E+03  0.11079879511E+03  0.00000000000E+00 0.  1.
         21   -1    0    0  501  503 -0.00000000000E+00 -0.00000000000E+00 -0.34989163887E+03  0.34989163887E+03  0.00000000000E+00 0.  1.
          6    2    1    2  501    0 -0.63878037859E+02 -0.58929175834E+02 -0.16066831517E+03  0.25167042300E+03  0.17312031316E+03 0.  0.
         24    2    3    3    0    0 -0.89151131734E+02  0.19641954131E+01 -0.63462956872E+02  0.13412169431E+03  0.77519672576E+02 0.  0.
         -6    2    1    2    0  502  0.63878037859E+02  0.58929175834E+02 -0.78424528593E+02  0.20902001098E+03  0.17316439247E+03 0.  0.
        -24    2    5    5    0    0  0.53326534046E+02 -0.29386039561E+02 -0.50428982477E+02  0.11565646293E+03  0.84416092000E+02 0.  0.
          5    1    3    3  501    0  0.25273093875E+02 -0.60893371247E+02 -0.97205358296E+02  0.11754872869E+03  0.47000000000E+01 0. -1.
        -13    1    4    4    0    0 -0.83209601739E+02 -0.20313546079E+02 -0.69483124198E+02  0.11029225958E+03  0.00000000000E+00 0.  1.
         14    1    4    4    0    0 -0.59415299955E+01  0.22277741492E+02  0.60201673264E+01  0.23829434725E+02  0.00000000000E+00 0. -1.
         -5    1    5    5    0  502  0.10551503813E+02  0.88315215395E+02 -0.27995546116E+02  0.93363548054E+02  0.47000000000E+01 0.  1.
         11    1    6    6    0    0  0.62021758870E+01 -0.49162509003E+02 -0.39561987324E+02  0.63407965731E+02  0.00000000000E+00 0. -1.
        -12    1    6    6    0    0  0.47124358159E+02  0.19776469442E+02 -0.10866995153E+02  0.52248497195E+02  0.00000000000E+00 0.  1.
</event>
<event>
12    1  0.8453150E-002  0.1740725E+03  0.7818608E-02  0.1173805E+00
         21   -1    0    0  501  502  0.00000000000E+00  0.00000000000E+00  0.83132749381E+02  0.83132749381E+02  0.00000000000E+00 0. -1.
         21   -1    0    0  502  503 -0.00000000000E+00 -0.00000000000E+00 -0.53034987359E+03  0.53034987359E+03  0.00000000000E+00 0. -1.
         -6    2    1    2    0  503  0.21167244431E+02  0.50393882260E+01 -0.39549530655E+03  0.43188858815E+03  0.17215622963E+03 0.  0.
        -24    2    3    3    0    0  0.47061024956E+02 -0.55291531742E+02 -0.23072407031E+03  0.25445702932E+03  0.79011958591E+02 0.  0.
          6    2    1    2  501    0 -0.21167244431E+02 -0.50393882260E+01 -0.51721817663E+02  0.18159403483E+03  0.17270726502E+03 0.  0.
         24    2    5    5    0    0  0.17741549470E+02  0.17730636497E+02 -0.89718084216E+02  0.12244866696E+03  0.79468253761E+02 0.  0.
          5    1    5    5  501    0 -0.38908793901E+02 -0.22770024723E+02  0.37996266553E+02  0.59145367871E+02  0.47000000000E+01 0. -1.
        -13    1    6    6    0    0 -0.23599228451E+02 -0.16717878887E+02 -0.24559044241E+02  0.37941503818E+02  0.00000000000E+00 0.  1.
         14    1    6    6    0    0  0.41340777920E+02  0.34448515383E+02 -0.65159039975E+02  0.84507163138E+02  0.00000000000E+00 0. -1.
         -5    1    3    3    0  503 -0.25893780525E+02  0.60330919968E+02 -0.16477123624E+03  0.17743155883E+03  0.47000000000E+01 0.  1.
         11    1    4    4    0    0  0.50705613639E+02 -0.64227535411E+01 -0.16325890658E+03  0.17107244546E+03  0.00000000000E+00 0. -1.
        -12    1    4    4    0    0 -0.36445886827E+01 -0.48868778201E+02 -0.67465163730E+02  0.83384583867E+02  0.00000000000E+00 0.  1.
</event>
<event>
12    1  0.8453150E-002  0.2365933E+03  0.7818608E-02  0.1122540E+00
         21   -1    0    0  501  502  0.00000000000E+00  0.00000000000E+00  0.87279233719E+03  0.87279233719E+03  0.00000000000E+00 0.  1.
         21   -1    0    0  502  503 -0.00000000000E+00 -0.00000000000E+00 -0.67004280613E+02  0.67004280613E+02  0.00000000000E+00 0.  1.
         -6    2    1    2    0  503  0.43916786175E+02  0.15373725020E+03  0.29626249530E+03  0.37914093290E+03  0.17439195702E+03 0.  0.
        -24    2    3    3    0    0  0.14374301626E+01  0.16826719782E+03  0.26756899934E+03  0.32565241287E+03  0.78360758870E+02 0.  0.
          6    2    1    2  501    0 -0.43916786175E+02 -0.15373725020E+03  0.50952556128E+03  0.56065568490E+03  0.17074739592E+03 0.  0.
         24    2    5    5    0    0 -0.79358190713E+01 -0.17322527389E+03  0.44250747456E+03  0.48199230709E+03  0.80210637194E+02 0.  0.
          5    1    5    5  501    0 -0.35980967104E+02  0.19488023691E+02  0.67018086715E+02  0.78663377807E+02  0.47000000000E+01 0. -1.
        -13    1    6    6    0    0 -0.11189793273E+01 -0.89025365503E+02  0.32691702926E+03  0.33882371794E+03  0.00000000000E+00 0.  1.
         14    1    6    6    0    0 -0.68168397440E+01 -0.84199908384E+02  0.11559044530E+03  0.14316858915E+03  0.00000000000E+00 0. -1.
         -5    1    3    3    0  503  0.42479356013E+02 -0.14529947619E+02  0.28693495956E+02  0.53488520032E+02  0.47000000000E+01 0.  1.
         13    1    4    4    0    0  0.18347557963E+01 -0.30448891918E+01 -0.34987801726E+01  0.49878995297E+01  0.00000000000E+00 0. -1.
        -14    1    4    4    0    0 -0.39732563366E+00  0.17131208701E+03  0.27106777952E+03  0.32066451334E+03  0.00000000000E+00 0.  1.
</event>
<event>
12    1  0.8453150E-002  0.1901207E+03  0.7818608E-02  0.1158503E+00
         21   -1    0    0  501  502  0.00000000000E+00  0.00000000000E+00  0.68456147293E+03  0.68456147293E+03  0.00000000000E+00 0.  1.
         21   -1    0    0  502  503 -0.00000000000E+00 -0.00000000000E+00 -0.99378576784E+02  0.99378576784E+02  0.00000000000E+00 0.  1.
         -6    2    1    2    0  503  0.80208358678E+02  0.66821853851E+01  0.56119637086E+03  0.59231217432E+03  0.17150601383E+03 0.  0.
        -24    2    3    3    0    0  0.80103280988E-01 -0.36992371489E+02  0.37272922372E+03  0.38286060526E+03  0.79288882451E+02 0.  0.
          6    2    1    2  501    0 -0.80208358678E+02 -0.66821853851E+01  0.23986525286E+02  0.19162787539E+03  0.17224359735E+03 0.  0.
         24    2    5    5    0    0  0.58393907604E+01 -0.49501560991E+02  0.16094333896E+02  0.95076900280E+02  0.79347881876E+02 0.  0.
          5    1    5    5  501    0 -0.86047749438E+02  0.42819375606E+02  0.78921913901E+01  0.96550975115E+02  0.47000000000E+01 0. -1.
        -13    1    6    6    0    0 -0.20602187712E+02 -0.18355316198E+02 -0.24923732918E+02  0.37182794863E+02  0.00000000000E+00 0.  1.
         14    1    6    6    0    0  0.26441578473E+02 -0.31146244793E+02  0.41018066814E+02  0.57894105417E+02  0.00000000000E+00 0. -1.
         -5    1    3    3    0  503  0.80128255397E+02  0.43674556874E+02  0.18846714714E+03  0.20945156906E+03  0.47000000000E+01 0.  1.
         13    1    4    4    0    0 -0.36548151402E+02 -0.14843520359E+02  0.11442458019E+03  0.12103339217E+03  0.00000000000E+00 0. -1.
        -14    1    4    4    0    0  0.36628254683E+02 -0.22148851130E+02  0.25830464353E+03  0.26182721309E+03  0.00000000000E+00 0.  1.
</event>
<event>
12    1  0.8453150E-002  0.2108293E+03  0.7818608E-02  0.1141121E+00
         21   -1    0    0  501  502  0.00000000000E+00  0.00000000000E+00  0.61812588318E+03  0.61812588318E+03  0.00000000000E+00 0. -1.
         21   -1    0    0  502  503 -0.00000000000E+00 -0.00000000000E+00 -0.81447663701E+02  0.81447663701E+02  0.00000000000E+00 0. -1.
         -6    2    1    2    0  503  0.17724126659E+02 -0.12062432064E+03  0.14578731668E+03  0.25545114297E+03  0.17069555748E+03 0.  0.
        -24    2    3    3    0    0 -0.37274098627E+01 -0.14516316176E+03  0.86908653231E+02  0.18798922666E+03  0.81857181824E+02 0.  0.
          6    2    1    2  501    0 -0.17724126659E+02  0.12062432064E+03  0.39089090280E+03  0.44412240391E+03  0.17200186153E+03 0.  0.
         24    2    5    5    0    0 -0.23816754736E+02  0.12101624958E+03  0.17876478540E+03  0.23185640709E+03  0.81168802745E+02 0.  0.
          5    1    5    5  501    0  0.60926280779E+01 -0.39192893962E+00  0.21212611740E+03  0.21226599683E+03  0.47000000000E+01 0. -1.
        -11    1    6    6    0    0  0.18207182481E+02  0.22516552088E+02  0.84024556772E+02  0.88874196214E+02  0.00000000000E+00 0.  1.
         12    1    6    6    0    0 -0.42023937218E+02  0.98499697495E+02  0.94740228625E+02  0.14298221087E+03  0.00000000000E+00 0. -1.
         -5    1    3    3    0  503  0.21451536521E+02  0.24538841120E+02  0.58878663451E+02  0.67461916312E+02  0.47000000000E+01 0.  1.
         13    1    4    4    0    0 -0.35314041993E+02 -0.11708496386E+03  0.50889841776E+02  0.13246035754E+03  0.00000000000E+00 0. -1.
        -14    1    4    4    0    0  0.31586632131E+02 -0.28078197903E+02  0.36018811456E+02  0.55528869118E+02  0.00000000000E+00 0.  1.
</event>
<event>
12    1  0.8453150E-002  0.1816431E+03  0.7818608E-02  0.1166544E+00
         21   -1    0    0  503  502  0.00000000000E+00  0.00000000000E+00  0.14252005389E+03  0.14252005389E+03  0.00000000000E+00 0. -1.
         21   -1    0    0  501  503 -0.00000000000E+00 -0.00000000000E+00 -0.28694351309E+03  0.28694351309E+03  0.00000000000E+00 0.  1.
          6    2    1    2  501    0  0.38587749617E+02  0.31532340678E+02 -0.16825252829E+03  0.24759469203E+03  0.17467373963E+03 0.  0.
         24    2    3    3    0    0  0.54430884407E+02  0.20955127582E+01 -0.18574309472E+03  0.20957441228E+03  0.80335700017E+02 0.  0.
         -6    2    1    2    0  502 -0.38587749617E+02 -0.31532340678E+02  0.23829069094E+02  0.18186887495E+03  0.17327769681E+03 0.  0.
        -24    2    5    5    0    0 -0.12742642629E+02  0.99640421223E+01  0.74838440177E+02  0.11105951625E+03  0.80447292968E+02 0.  0.
          5    1    3    3  501    0 -0.15843134790E+02  0.29436827920E+02  0.17490566432E+02  0.38020279747E+02  0.47000000000E+01 0. -1.
        -11    1    4    4    0    0 -0.15511613814E+02 -0.76205644032E+01 -0.83798492732E+02  0.85562085932E+02  0.00000000000E+00 0.  1.
         12    1    4    4    0    0  0.69942498221E+02  0.97160771614E+01 -0.10194460199E+03  0.12401232635E+03  0.00000000000E+00 0. -1.
         -5    1    5    5    0  502 -0.25845106987E+02 -0.41496382801E+02 -0.51009371084E+02  0.70809358697E+02  0.47000000000E+01 0.  1.
         11    1    6    6    0    0 -0.35496256019E+02 -0.91025044017E+01  0.72557362407E+02  0.81285980447E+02  0.00000000000E+00 0. -1.
        -12    1    6    6    0    0  0.22753613390E+02  0.19066546524E+02  0.22810777698E+01  0.29773535807E+02  0.00000000000E+00 0.  1.
</event>
<event>
12    1  0.8453150E-002  0.1858424E+03  0.7818608E-02  0.1162291E+00
         21   -1    0    0  501  502  0.00000000000E+00  0.00000000000E+00  0.40546591927E+03  0.40546591927E+03  0.00000000000E+00 0.  1.
         21   -1    0    0  502  503 -0.00000000000E+00 -0.00000000000E+00 -0.92248181558E+02  0.92248181558E+02  0.00000000000E+00 0.  1.
         -6    2    1    2    0  503  0.67821765184E+02  0.13048912404E+02  0.87433628606E+02  0.20528314742E+03  0.17241364579E+03 0.  0.
        -24    2    3    3    0    0  0.12173686709E+02 -0.45582938513E+02  0.82459883236E+02  0.12415836253E+03  0.79935372094E+02 0.  0.
          6    2    1    2  501    0 -0.67821765184E+02 -0.13048912404E+02  0.22578410910E+03  0.29243095341E+03  0.17253212060E+03 0.  0.
         24    2    5    5    0    0 -0.34603967902E+02  0.23160058294E+02  0.38256622230E+02  0.98515611187E+02  0.80671764628E+02 0.  0.
          5    1    5    5  501    0 -0.33217797282E+02 -0.36208970698E+02  0.18752748687E+03  0.19391534222E+03  0.47000000000E+01 0. -1.
        -13    1    6    6    0    0  0.22153883335E+02 -0.10457630324E+02  0.67494286677E+01  0.25410851347E+02  0.00000000000E+00 0.  1.
         14    1    6    6    0    0 -0.56757851237E+02  0.33617688618E+02  0.31507193563E+02  0.73104759840E+02  0.00000000000E+00 0. -1.
         -5    1    3    3    0  503  0.55648078476E+02  0.58631850917E+02  0.49737453705E+01  0.81124784887E+02  0.47000000000E+01 0.  1.
         13    1    4    4    0    0  0.42413083758E+02 -0.43339976791E+02  0.42746047096E+02  0.74191965903E+02  0.00000000000E+00 0. -1.
        -14    1    4    4    0    0 -0.30239397050E+02 -0.22429617217E+01  0.39713836139E+02  0.49966396629E+02  0.00000000000E+00 0.  1.
</event>
<event>
12    1  0.8453150E-002  0.1977002E+03  0.7818608E-02  0.1151860E+00
         21   -1    0    0  503  502  0.00000000000E+00  0.00000000000E+00  0.37418490749E+03  0.37418490749E+03  0.00000000000E+00 0.  1.
         21   -1    0    0  501  503 -0.00000000000E+00 -0.00000000000E+00 -0.11201343695E+03  0.11201343695E+03  0.00000000000E+00 0.  1.
          6    2    1    2  501    0 -0.30072081820E+02  0.92084491400E+02  0.19567973563E+03  0.27761613167E+03  0.17145341632E+03 0.  0.
         24    2    3    3    0    0 -0.80927713899E+02  0.87625719388E+02  0.15871830340E+03  0.21441475958E+03  0.80960655355E+02 0.  0.
         -6    2    1    2    0  502  0.30072081820E+02 -0.92084491400E+02  0.66491734900E+02  0.20858221277E+03  0.17234124582E+03 0.  0.
        -24    2    5    5    0    0  0.76456610166E+02 -0.94198328459E+02  0.71444466127E+02  0.16165021597E+03  0.79420036894E+02 0.  0.
          5    1    3    3  501    0  0.50855632079E+02  0.44587720123E+01  0.36961432235E+02  0.63201372096E+02  0.47000000000E+01 0. -1.
        -11    1    4    4    0    0 -0.10643157912E+02  0.28644776862E+02  0.10215494757E+03  0.10662754505E+03  0.00000000000E+00 0.  1.
         12    1    4    4    0    0 -0.70284555988E+02  0.58980942527E+02  0.56563355831E+02  0.10778721452E+03  0.00000000000E+00 0. -1.
         -5    1    5    5    0  502 -0.46384528346E+02  0.21138370582E+01 -0.49527312278E+01  0.46931996799E+02  0.47000000000E+01 0.  1.
         11    1    6    6    0    0  0.67429259459E+02 -0.22942252468E+02  0.22352050080E+02  0.74650292178E+02  0.00000000000E+00 0. -1.
        -12    1    6    6    0    0  0.90273507070E+01 -0.71256075990E+02  0.49092416047E+02  0.86999923791E+02  0.00000000000E+00 0.  1.
</event>
<event>
12    1  0.8453150E-002  0.1754169E+03  0.7818608E-02  0.1173376E+00
         21   -1    0    0  501  502  0.00000000000E+00  0.00000000000E+00  0.40231747949E+02  0.40231747949E+02  0.00000000000E+00 0. -1.
         21   -1    0    0  502  503 -0.00000000000E+00 -0.00000000000E+00 -0.94696159381E+03  0.94696159381E+03  0.00000000000E+00 0.  1.
         -6    2    1    2    0  503 -0.32807126716E+02  0.17451618246E+02 -0.67603034107E+03  0.69737727874E+03  0.16714419020E+03 0.  0.
        -24    2    3    3    0    0 -0.70421861197E+02  0.28882837328E+02 -0.30508740712E+03  0.32432729380E+03  0.79475849743E+02 0.  0.
          6    2    1    2  501    0  0.32807126716E+02 -0.17451618246E+02 -0.23069950479E+03  0.28981606302E+03  0.17143576736E+03 0.  0.
         24    2    5    5    0    0 -0.15021684542E+02  0.32502838832E+02 -0.18928854211E+03  0.20906954112E+03  0.81227060211E+02 0.  0.
          5    1    5    5  501    0  0.47828811258E+02 -0.49954457079E+02 -0.41410962678E+02  0.80746521896E+02  0.47000000000E+01 0. -1.
        -11    1    6    6    0    0 -0.28338993501E+02 -0.99493660299E+01 -0.13773528666E+03  0.14097197462E+03  0.00000000000E+00 0.  1.
         12    1    6    6    0    0  0.13317308959E+02  0.42452204862E+02 -0.51553255456E+02  0.68097566504E+02  0.00000000000E+00 0. -1.
         -5    1    3    3    0  503  0.37614734480E+02 -0.11431219082E+02 -0.37094293395E+03  0.37304998494E+03  0.47000000000E+01 0.  1.
         11    1    4    4    0    0  0.86510629819E+01  0.11293255052E+02 -0.13702226850E+03  0.13775877672E+03  0.00000000000E+00 0. -1.
        -12    1    4    4    0    0 -0.79072924178E+02  0.17589582276E+02 -0.16806513862E+03  0.18656851707E+03  0.00000000000E+00 0.  1.
</event>
<event>
12    1  0.8453150E-002  0.2137342E+03  0.7818608E-02  0.1139762E+00
         21   -1    0    0  503  502  0.00000000000E+00  0.00000000000E+00  0.21572813620E+03  0.21572813620E+03  0.00000000000E+00 0.  1.
         21   -1    0    0  501  503 -0.00000000000E+00 -0.00000000000E+00 -0.20840474688E+03  0.20840474688E+03  0.00000000000E+00 0.  1.
          6    2    1    2  501    0 -0.11717990815E+03  0.20257529300E+01  0.25684891731E+02  0.20961140910E+03  0.17187784794E+03 0.  0.
         24    2    3    3    0    0 -0.46115329274E+02 -0.59594277460E+02  0.14321643884E+02  0.11475142851E+03  0.85350333104E+02 0.  0.
         -6    2    1    2    0  502  0.11717990815E+03 -0.20257529300E+01 -0.18361502413E+02  0.21452147398E+03  0.17873747083E+03 0.  0.
        -24    2    5    5    0    0  0.93158882922E+02  0.59435461336E+02 -0.44861972103E+02  0.14325538523E+03  0.79362190770E+02 0.  0.
          5    1    3    3  501    0 -0.71064578875E+02  0.61620030390E+02  0.11363247848E+02  0.94859980590E+02  0.47000000000E+01 0. -1.
        -11    1    4    4    0    0 -0.65135932876E+02 -0.23030298098E+02  0.22644882226E+02  0.72704023776E+02  0.00000000000E+00 0.  1.
         12    1    4    4    0    0  0.19020603602E+02 -0.36563979361E+02 -0.83232383423E+01  0.42047404731E+02  0.00000000000E+00 0. -1.
         -5    1    5    5    0  502  0.24021025227E+02 -0.61461214266E+02  0.26500469691E+02  0.71266088751E+02  0.47000000000E+01 0.  1.
         11    1    6    6    0    0  0.35759179942E+02 -0.15714703493E+02 -0.25738324678E+02  0.46777475491E+02  0.00000000000E+00 0. -1.
        -12    1    6    6    0    0  0.57399702980E+02  0.75150164829E+02 -0.19123647425E+02  0.96477909735E+02  0.00000000000E+00 0.  1.
</event>
<event>
12    1  0.8453150E-002  0.2016976E+03  0.7818608E-02  0.1148558E+00
         21   -1    0    0  501  502  0.00000000000E+00  0.00000000000E+00  0.15791910342E+03  0.15791910342E+03  0.00000000000E+00 0. -1.
         21   -1    0    0  502  503 -0.00000000000E+00 -0.00000000000E+00 -0.25959929553E+03  0.25959929553E+03  0.00000000000E+00 0.  1.
         -6    2    1    2    0  503 -0.36819039050E+02 -0.95667123840E+02 -0.74822298819E+02  0.21404047415E+03  0.17235750042E+03 0.  0.
        -24    2    3    3    0    0 -0.73295924308E+02 -0.11324353629E+03 -0.70527974067E+02  0.17305237029E+03  0.82319722465E+02 0.  0.
          6    2    1    2  501    0  0.36819039050E+02  0.95667123840E+02 -0.26857893289E+02  0.20347792481E+03  0.17370687733E+03 0.  0.
         24    2    5    5    0    0  0.62597969276E+02  0.12537019520E+03 -0.18478690087E+02  0.16299179461E+03  0.81170632130E+02 0.  0.
          5    1    5    5  501    0 -0.25778930226E+02 -0.29703071364E+02 -0.83792032016E+01  0.40486130197E+02  0.47000000000E+01 0. -1.
        -13    1    6    6    0    0  0.18990898542E+02 -0.25983603928E+01 -0.20118065322E+02  0.27787447822E+02  0.00000000000E+00 0.  1.
         14    1    6    6    0    0  0.43607070733E+02  0.12796855560E+03  0.16393752352E+01  0.13520434679E+03  0.00000000000E+00 0. -1.
         -5    1    3    3    0  503  0.36476885257E+02  0.17576412446E+02 -0.42943247524E+01  0.40988103855E+02  0.47000000000E+01 0.  1.
         11    1    4    4    0    0 -0.10685576417E+02 -0.76774211861E+02 -0.90738596348E+01  0.78043552449E+02  0.00000000000E+00 0. -1.
        -12    1    4    4    0    0 -0.62610347891E+02 -0.36469324425E+02 -0.61454114432E+02  0.95008817842E+02  0.00000000000E+00 0.  1.
</event>
<event>
12    1  0.8453150E-002  0.2121268E+03  0.7818608E-02  0.1140648E+00
         21   -1    0    0  501  502  0.00000000000E+00  0.00000000000E+00  0.27426964751E+03  0.27426964751E+03  0.00000000000E+00 0. -1.
         21   -1    0    0  502  503 -0.00000000000E+00 -0.00000000000E+00 -0.22127866533E+03  0.22127866533E+03  0.00000000000E+00 0.  1.
         -6    2    1    2    0  503 -0.11262851956E+03  0.28628592400E+02 -0.10251844179E+03  0.23560095700E+03  0.17746267300E+03 0.  0.
        -24    2    3    3    0    0 -0.10859617183E+03  0.73211256701E+02 -0.40680641380E+02  0.15911646612E+03  0.80685305745E+02 0.  0.
          6    2    1    2  501    0  0.11262851956E+03 -0.28628592400E+02  0.15550942398E+03  0.25994735585E+03  0.17287182288E+03 0.  0.
         24    2    5    5    0    0  0.13372759154E+03 -0.10502242186E+00  0.77777671950E+02  0.17437235859E+03  0.80456655518E+02 0.  0.
          5    1    5    5  501    0 -0.21099071978E+02 -0.28523569978E+02  0.77731752028E+02  0.85574997260E+02  0.47000000000E+01 0. -1.
        -13    1    6    6    0    0  0.30385481939E+02  0.61048660859E+01 -0.15828435542E+02  0.34800664854E+02  0.00000000000E+00 0.  1.
         14    1    6    6    0    0  0.10334210960E+03 -0.62098885077E+01  0.93606107493E+02  0.13957169374E+03  0.00000000000E+00 0. -1.
         -5    1    3    3    0  503 -0.40323477277E+01 -0.44582664301E+02 -0.61837800414E+02  0.76484490876E+02  0.47000000000E+01 0.  1.
         11    1    4    4    0    0 -0.77133255696E+02  0.13403925811E+02 -0.46883816027E+02  0.91254022194E+02  0.00000000000E+00 0. -1.
        -12    1    4    4    0    0 -0.31462916139E+02  0.59807330890E+02  0.62031746463E+01  0.67862443928E+02  0.00000000000E+00 0.  1.
</event>
<event>
12    1  0.8453150E-002  0.1972597E+03  0.7818608E-02  0.1154056E+00
         21   -1    0    0  501  502  0.00000000000E+00  0.00000000000E+00  0.26554119360E+03  0.26554119360E+03  0.00000000000E+00 0.  1.
         21   -1    0    0  502  503 -0.00000000000E+00 -0.00000000000E+00 -0.18325419956E+03  0.18325419956E+03  0.00000000000E+00 0.  1.
         -6    2    1    2    0  503 -0.51772494828E+02 -0.76177259548E+02  0.14950721308E+03  0.24039689380E+03  0.16417945575E+03 0.  0.
        -24    2    3    3    0    0 -0.23139708823E+02  0.13697655405E+02  0.27620723243E+02  0.86203044446E+02  0.77103752381E+02 0.  0.
          6    2    1    2  501    0  0.51772494828E+02  0.76177259548E+02 -0.67220219033E+02  0.20839849936E+03  0.17443626514E+03 0.  0.
         24    2    5    5    0    0  0.86622107604E+02  0.76597993542E+01 -0.45921386055E+02  0.12849312940E+03  0.82702167776E+02 0.  0.
          5    1    5    5  501    0 -0.34849612776E+02  0.68517460194E+02 -0.21298832978E+02  0.79905369959E+02  0.47000000000E+01 0. -1.
        -11    1    6    6    0    0  0.46098333314E+02 -0.28886160146E+02 -0.49844705770E+02  0.73783204563E+02  0.00000000000E+00 0.  1.
         12    1    6    6    0    0  0.40523774290E+02  0.36545959500E+02  0.39233197156E+01  0.54709924841E+02  0.00000000000E+00 0. -1.
         -5    1    3    3    0  503 -0.28632786005E+02 -0.89874914953E+02  0.12188648984E+03  0.15419384935E+03  0.47000000000E+01 0.  1.
         13    1    4    4    0    0 -0.47484149237E+02 -0.73896090541E+01  0.24226852056E+02  0.53817200887E+02  0.00000000000E+00 0. -1.
        -14    1    4    4    0    0  0.24344440414E+02  0.21087264459E+02  0.33938711870E+01  0.32385843559E+02  0.00000000000E+00 0.  1.
</event>
<event>
12    1  0.8453150E-002  0.1748426E+03  0.7818608E-02  0.1173358E+00
         21   -1    0    0  501  502  0.00000000000E+00  0.00000000000E+00  0.41743683704E+02  0.41743683704E+02  0.00000000000E+00 0. -1.
         21   -1    0    0  502  503 -0.00000000000E+00 -0.00000000000E+00 -0.99155477856E+03  0.99155477856E+03  0.00000000000E+00 0. -1.
         -6    2    1    2    0  503 -0.17904877861E+02 -0.57864301456E+01 -0.74483042336E+03  0.76507666095E+03  0.17382712719E+03 0.  0.
        -24    2    3    3    0    0 -0.17355557988E+02 -0.43587521012E+02 -0.70097719103E+03  0.70698690102E+03  0.79122490435E+02 0.  0.
          6    2    1    2  501    0  0.17904877861E+02  0.57864301456E+01 -0.20498067149E+03  0.26822180131E+03  0.17196450676E+03 0.  0.
         24    2    5    5    0    0  0.54004634959E+02  0.35356882881E+02 -0.67282685498E+02  0.12275555270E+03  0.79845827606E+02 0.  0.
          5    1    5    5  501    0 -0.36099757098E+02 -0.29570452735E+02 -0.13769798600E+03  0.14546624861E+03  0.47000000000E+01 0. -1.
        -13    1    6    6    0    0 -0.19942695047E+02 -0.77047676284E+00 -0.89123711352E+01  0.21857151677E+02  0.00000000000E+00 0.  1.
         14    1    6    6    0    0  0.73947330005E+02  0.36127359644E+02 -0.58370314363E+02  0.10089840102E+03  0.00000000000E+00 0. -1.
         -5    1    3    3    0  503 -0.54931987333E+00  0.37801090867E+02 -0.43853232333E+02  0.58089759933E+02  0.47000000000E+01 0.  1.
         13    1    4    4    0    0  0.18992300205E+02 -0.15859373582E+02 -0.51053682761E+03  0.51113606754E+03  0.00000000000E+00 0. -1.
        -14    1    4    4    0    0 -0.36347858193E+02 -0.27728147431E+02 -0.19044036342E+03  0.19585083348E+03  0.00000000000E+00 0.  1.
</event>
<event>
12    1  0.8453150E-002  0.2506427E+03  0.7818608E-02  0.1113098E+00
         21   -1    0    0  503  502  0.00000000000E+00  0.00000000000E+00  0.33957719546E+03  0.33957719546E+03  0.00000000000E+00 0. -1.
         21   -1    0    0  501  503 -0.00000000000E+00 -0.00000000000E+00 -0.28541818395E+03  0.28541818395E+03  0.00000000000E+00 0. -1.
          6    2    1    2  501    0 -0.75464483338E+02 -0.16519663797E+03 -0.15908817005E+03  0.29686833296E+03  0.17273373677E+03 0.  0.
         24    2    3    3    0    0 -0.45051932671E+02 -0.16958435375E+03 -0.73541434604E+02  0.20584905350E+03  0.78593641906E+02 0.  0.
         -6    2    1    2    0  502  0.75464483338E+02  0.16519663797E+03  0.21324718156E+03  0.32812704645E+03  0.17090401026E+03 0.  0.
        -24    2    5    5    0    0 -0.26012267446E+02  0.76454343915E+02  0.97138333703E+02  0.15014929431E+03  0.81160642841E+02 0.  0.
          5    1    3    3  501    0 -0.30412550667E+02  0.43877157771E+01 -0.85546735447E+02  0.91019279461E+02  0.47000000000E+01 0. -1.
        -13    1    4    4    0    0 -0.12032174757E+02  0.59080511273E+01 -0.23475415175E+01  0.13608425651E+02  0.00000000000E+00 0.  1.
         14    1    4    4    0    0 -0.33019757913E+02 -0.17549240488E+03 -0.71193893087E+02  0.19224062785E+03  0.00000000000E+00 0. -1.
         -5    1    5    5    0  502  0.10147675078E+03  0.88742294056E+02  0.11610884786E+03  0.17797775213E+03  0.47000000000E+01 0.  1.
         13    1    6    6    0    0 -0.15788327542E+02  0.48350784266E+02  0.25291029800E+01  0.50926083568E+02  0.00000000000E+00 0. -1.
        -14    1    6    6    0    0 -0.10223939904E+02  0.28103559649E+02  0.94609230723E+02  0.99223210743E+02  0.00000000000E+00 0.  1.
</event>
<event>
12    1  0.8453150E-002  0.2363901E+03  0.7818608E-02  0.1122261E+00
         21   -1    0    0  503  502  0.00000000000E+00  0.00000000000E+00  0.83395284006E+02  0.83395284006E+02  0.00000000000E+00 0.  1.
         21   -1    0    0  501  503 -0.00000000000E+00 -0.00000000000E+00 -0.11779359051E+04  0.11779359051E+04  0.00000000000E+00 0. -1.
          6    2    1    2  501    0 -0.13297328351E+03  0.92289201144E+02 -0.96149540860E+03  0.99007241491E+03  0.17196155158E+03 0.  0.
         24    2    3    3    0    0 -0.91205209796E+02  0.51005082487E+01 -0.38386773953E+03  0.40439139744E+03  0.88507374770E+02 0.  0.
         -6    2    1    2    0  502  0.13297328351E+03 -0.92289201144E+02 -0.13304521248E+03  0.27125877419E+03  0.17228204559E+03 0.  0.
        -24    2    5    5    0    0  0.15963794761E+03 -0.72309576199E+02 -0.80236294612E+02  0.20864039405E+03  0.79874914275E+02 0.  0.
          5    1    3    3  501    0 -0.41768073718E+02  0.87188692896E+02 -0.57762766907E+03  0.58568101747E+03  0.47000000000E+01 0. -1.
        -11    1    4    4    0    0 -0.58514688015E+02  0.38818092766E+02 -0.14696894508E+03  0.16288242341E+03  0.00000000000E+00 0.  1.
         12    1    4    4    0    0 -0.32690521781E+02 -0.33717584518E+02 -0.23689879445E+03  0.24150897402E+03  0.00000000000E+00 0. -1.
         -5    1    5    5    0  502 -0.26664664095E+02 -0.19979624945E+02 -0.52808917871E+02  0.62618380137E+02  0.47000000000E+01 0.  1.
         11    1    6    6    0    0  0.36127001346E+02 -0.53987483114E+02 -0.44582906422E+02  0.78787334669E+02  0.00000000000E+00 0. -1.
        -12    1    6    6    0    0  0.12351094626E+03 -0.18322093085E+02 -0.35653388190E+02  0.12985305938E+03  0.00000000000E+00 0.  1.
</event>
<event>
12    1  0.8453150E-002  0.2076231E+03  0.7818608E-02  0.1144236E+00
         21   -1    0    0  503  502  0.00000000000E+00  0.00000000000E+00  0.16601105283E+03  0.16601105283E+03  0.00000000000E+00 0.  1.
         21   -1    0    0  501  503 -0.00000000000E+00 -0.00000000000E+00 -0.41082781408E+03  0.41082781408E+03  0.00000000000E+00 0. -1.
          6    2    1    2  501    0  0.10823625299E+03 -0.25731533173E+01 -0.30078273323E+03  0.36548272538E+03  0.17715999085E+03 0.  0.
         24    2    3    3    0    0  0.10026539369E+03 -0.45962540466E+02 -0.29026600185E+03  0.31988815164E+03  0.76865944537E+02 0.  0.
         -6    2    1    2    0  502 -0.10823625299E+03  0.25731533173E+01  0.55965971981E+02  0.21135614153E+03  0.17267750566E+03 0.  0.
        -24    2    5    5    0    0 -0.74522134551E+01  0.23734705438E+02 -0.18071841598E+02  0.84435214359E+02  0.78637409911E+02 0.  0.
          5    1    3    3  501    0  0.79708593054E+01  0.43389387149E+02 -0.10516731377E+02  0.45594573735E+02  0.47000000000E+01 0. -1.
        -13    1    4    4    0    0  0.61053496922E+02 -0.44725523320E+02 -0.98864468386E+02  0.12450736939E+03  0.00000000000E+00 0.  1.
         14    1    4    4    0    0  0.39211896767E+02 -0.12370171463E+01 -0.19140153347E+03  0.19538078225E+03  0.00000000000E+00 0. -1.
         -5    1    5    5    0  502 -0.10078403954E+03 -0.21161552121E+02  0.74037813579E+02  0.12692092717E+03  0.47000000000E+01 0.  1.
         13    1    6    6    0    0 -0.13894325991E+02  0.51734727808E+02 -0.91002522224E+01  0.54335521960E+02  0.00000000000E+00 0. -1.
        -14    1    6    6    0    0  0.64421125361E+01 -0.28000022370E+02 -0.89715893759E+01  0.30099692400E+02  0.00000000000E+00 0.  1.
</event>
<event>
12    1  0.8453150E-002  0.1770139E+03  0.7818608E-02  0.1170915E+00
         21   -1    0    0  501  502  0.00000000000E+00  0.00000000000E+00  0.87988943905E+02  0.87988943905E+02  0.00000000000E+00 0.  1.
         21   -1    0    0  502  503 -0.00000000000E+00 -0.00000000000E+00 -0.85894234973E+03  0.85894234973E+03  0.00000000000E+00 0.  1.
         -6    2    1    2    0  503 -0.19473921765E+02 -0.34823533319E+02 -0.74794308873E+03  0.76842811145E+03  0.17167115770E+03 0.  0.
        -24    2    3    3    0    0 -0.39408825239E+02 -0.56660598768E+02 -0.71897557623E+03  0.72676920383E+03  0.80648108831E+02 0.  0.
          6    2    1    2  501    0  0.19473921765E+02  0.34823533319E+02 -0.23010317089E+02  0.17850318218E+03  0.17245868854E+03 0.  0.
         24    2    5    5    0    0  0.40918410337E+02  0.23174603397E+02 -0.75463056347E+02  0.12046058132E+03  0.81269306826E+02 0.  0.
          5    1    5    5  501    0 -0.21444488573E+02  0.11648929921E+02  0.52452739259E+02  0.58042600857E+02  0.47000000000E+01 0. -1.
        -13    1    6    6    0    0 -0.19888435617E+02  0.26322915646E+02 -0.27518804174E+02  0.42961963905E+02  0.00000000000E+00 0.  1.
         14    1    6    6    0    0  0.60806845955E+02 -0.31483122489E+01 -0.47944252173E+02  0.77498617416E+02  0.00000000000E+00 0. -1.
         -5    1    3    3    0  503  0.19934903474E+02  0.21837065449E+02 -0.28967512505E+02  0.41658907627E+02  0.47000000000E+01 0.  1.
         11    1    4    4    0    0 -0.12908067544E+02  0.14398382971E+02 -0.51706684916E+02  0.55204283393E+02  0.00000000000E+00 0. -1.
        -12    1    4    4    0    0 -0.26500757695E+02 -0.71058981738E+02 -0.66726889131E+03  0.67156492043E+03  0.00000000000E+00 0.  1.
</event>
<event>
12    1  0.8453150E-002  0.2253064E+03  0.7818608E-02  0.1130345E+00
         21   -1    0    0  503  502  0.00000000000E+00  0.00000000000E+00  0.32062537852E+03  0.32062537852E+03  0.00000000000E+00 0. -1.
         21   -1    0    0  501  503 -0.00000000000E+00 -0.00000000000E+00 -0.36765843588E+03  0.36765843588E+03  0.00000000000E+00 0. -1.
          6    2    1    2  501    0 -0.10032137641E+03 -0.10165823641E+03 -0.28400282872E+03  0.36130117929E+03  0.17170369781E+03 0.  0.
         24    2    3    3    0    0 -0.11995078262E+03 -0.11954954040E+03 -0.27538761339E+03  0.33298644317E+03  0.79758077102E+02 0.  0.
         -6    2    1    2    0  502  0.10032137641E+03  0.10165823641E+03  0.23696977136E+03  0.32698263511E+03  0.17425325114E+03 0.  0.
        -24    2    5    5    0    0  0.85700665719E+02  0.10049086471E+03  0.88797430544E+02  0.17801196511E+03  0.79751226049E+02 0.  0.
          5    1    3    3  501    0  0.19629406209E+02  0.17891303989E+02 -0.86152153231E+01  0.28314736121E+02  0.47000000000E+01 0. -1.
        -11    1    4    4    0    0  0.28154458053E+01 -0.15830761511E+02 -0.24754357276E+01  0.16268605569E+02  0.00000000000E+00 0.  1.
         12    1    4    4    0    0 -0.12276622842E+03 -0.10371877888E+03 -0.27291217767E+03  0.31671783760E+03  0.00000000000E+00 0. -1.
         -5    1    5    5    0  502  0.14620710691E+02  0.11673716980E+01  0.14817234082E+03  0.14897067000E+03  0.47000000000E+01 0.  1.
         13    1    6    6    0    0  0.99118491648E+02  0.88450740039E+02  0.89139640683E+02  0.15998088742E+03  0.00000000000E+00 0. -1.
        -14    1    6    6    0    0 -0.13417825929E+02  0.12040124670E+02 -0.34221013814E+00  0.18031077685E+02  0.00000000000E+00 0.  1.
</event>
<event>
12    1  0.8453150E-002  0.2301800E+03  0.7818608E-02  0.1127497E+00
         21   -1    0    0  501  502  0.00000000000E+00  0.00000000000E+00  0.36842497750E+02  0.36842497750E+02  0.00000000000E+00 0.  1.
         21   -1    0    0  502  503 -0.00000000000E+00 -0.00000000000E+00 -0.14943202208E+04  0.14943202208E+04  0.00000000000E+00 0.  1.
         -6    2    1    2    0  503  0.13540393838E+03 -0.44752112172E+02 -0.90885813093E+03  0.93621206872E+03  0.17358847135E+03 0.  0.
        -24    2    3    3    0    0  0.14400568513E+03 -0.27377836371E+02 -0.47774785891E+03  0.50464050785E+03  0.70227075988E+02 0.  0.
          6    2    1    2  501    0 -0.13540393838E+03  0.44752112172E+02 -0.54861959214E+03  0.59495064985E+03  0.18068160062E+03 0.  0.
         24    2    5    5    0    0 -0.37488866060E+02  0.39432237632E+02 -0.43240391345E+03  0.44281966541E+03  0.78458876247E+02 0.  0.
          5    1    5    5  501    0 -0.97915072325E+02  0.53198745397E+01 -0.11621567869E+03  0.15213098444E+03  0.47000000000E+01 0. -1.
        -11    1    6    6    0    0 -0.23544388381E+02  0.10400035121E+02 -0.38287883692E+03  0.38374301650E+03  0.00000000000E+00 0.  1.
         12    1    6    6    0    0 -0.13944477679E+02  0.29032202511E+02 -0.49525076533E+02  0.59076648906E+02  0.00000000000E+00 0. -1.
         -5    1    3    3    0  503 -0.86017467432E+01 -0.17374275801E+02 -0.43111027202E+03  0.43157156087E+03  0.47000000000E+01 0.  1.
         11    1    4    4    0    0  0.15315175722E+02  0.12498574992E+02 -0.13370863094E+03  0.13516200270E+03  0.00000000000E+00 0. -1.
        -12    1    4    4    0    0  0.12869050941E+03 -0.39876411363E+02 -0.34403922796E+03  0.36947850515E+03  0.00000000000E+00 0.  1.
</event>
<event>
12    1  0.8453150E-002  0.2186694E+03  0.7818608E-02  0.1134897E+00
         21   -1    0    0  501  502  0.00000000000E+00  0.00000000000E+00  0.50549739852E+03  0.50549739852E+03  0.00000000000E+00 0. -1.
         21   -1    0    0  502  503 -0.00000000000E+00 -0.00000000000E+00 -0.28478224651E+03  0.28478224651E+03  0.00000000000E+00 0. -1.
         -6    2    1    2    0  503 -0.59321274109E+02  0.12048568578E+03 -0.21260065356E+03  0.30491492746E+03  0.17244785026E+03 0.  0.
        -24    2    3    3    0    0 -0.81470213342E+02  0.10412827540E+03 -0.83776240382E+02  0.17309702347E+03  0.73919061698E+02 0.  0.
          6    2    1    2  501    0  0.59321274109E+02 -0.12048568578E+03  0.43331580557E+03  0.48536471757E+03  0.17257029776E+03 0.  0.
         24    2    5    5    0    0  0.17011095851E+02 -0.69579896977E+02  0.10238596363E+03  0.14784701315E+03  0.79026035592E+02 0.  0.
          5    1    5    5  501    0  0.42310178258E+02 -0.50905788799E+02  0.33092984193E+03  0.33751770442E+03  0.47000000000E+01 0. -1.
        -13    1    6    6    0    0  0.37505123837E+02 -0.17398721547E+02  0.14914463058E+02  0.43952144815E+02  0.00000000000E+00 0.  1.
         14    1    6    6    0    0 -0.20494027986E+02 -0.52181175430E+02  0.87471500577E+02  0.10389486833E+03  0.00000000000E+00 0. -1.
         -5    1    3    3    0  503  0.22148939233E+02  0.16357410381E+02 -0.12882441318E+03  0.13181790400E+03  0.47000000000E+01 0.  1.
         11    1    4    4    0    0 -0.33261434185E+02 -0.45747787121E+00 -0.34225100914E+02  0.47727244029E+02  0.00000000000E+00 0. -1.
        -12    1    4    4    0    0 -0.48208779157E+02  0.10458575327E+03 -0.49551139468E+02  0.12536977944E+03  0.00000000000E+00 0.  1.
</event>
<event>
12    1  0.8453150E-002  0.3034783E+03  0.7818608E-02  0.1083721E+00
         21   -1    0    0  503  502  0.00000000000E+00  0.00000000000E+00  0.11956337183E+03  0.11956337183E+03  0.00000000000E+00 0. -1.
         21   -1    0    0  501  503 -0.00000000000E+00 -0.00000000000E+00 -0.78666008139E+03  0.78666008139E+03  0.00000000000E+00 0. -1.
          6    2    1    2  501    0 -0.21875844341E+03  0.12012300020E+03 -0.40596098313E+03  0.50585992137E+03  0.16972079568E+03 0.  0.
         24    2    3    3    0    0 -0.13455645435E+03  0.46273832382E+02 -0.13319501437E+03  0.21095817796E+03  0.80720096803E+02 0.  0.
         -6    2    1    2    0  502  0.21875844341E+03 -0.12012300020E+03 -0.26113572644E+03  0.40036353185E+03  0.17266817388E+03 0.  0.
        -24    2    5    5    0    0  0.12091869395E+03 -0.46394055538E+02 -0.55216729218E+02  0.16071108084E+03  0.77494679725E+02 0.  0.
          5    1    3    3  501    0 -0.84201989062E+02  0.73849167818E+02 -0.27276596877E+03  0.29490174341E+03  0.47000000000E+01 0. -1.
        -11    1    4    4    0    0  0.74062848136E+01  0.13589215674E+02 -0.25370873153E+02  0.29718698523E+02  0.00000000000E+00 0.  1.
         12    1    4    4    0    0 -0.14196273916E+03  0.32684616708E+02 -0.10782414121E+03  0.18123947944E+03  0.00000000000E+00 0. -1.
         -5    1    5    5    0  502  0.97839749465E+02 -0.73728944662E+02 -0.20591899722E+03  0.23965245100E+03  0.47000000000E+01 0.  1.
         11    1    6    6    0    0  0.64415298135E+02  0.13140128357E+02 -0.40806506624E+02  0.77376770350E+02  0.00000000000E+00 0. -1.
        -12    1    6    6    0    0  0.56503395811E+02 -0.59534183895E+02 -0.14410222594E+02  0.83334310493E+02  0.00000000000E+00 0.  1.
</event>
<event>
12    1  0.8453150E-002  0.2496223E+03  0.7818608E-02  0.1115891E+00
         21   -1    0    0  501  502  0.00000000000E+00  0.00000000000E+00  0.51308372792E+02  0.51308372792E+02  0.00000000000E+00 0.  1.
         21   -1    0    0  502  503 -0.00000000000E+00 -0.00000000000E+00 -0.17249820888E+04  0.17249820888E+04  0.00000000000E+00 0.  1.
         -6    2    1    2    0  503 -0.15928112584E+03  0.14023226499E+02 -0.13678900332E+04  0.13904799357E+04  0.19168771690E+03 0.  0.
        -24    2    3    3    0    0 -0.15938666471E+03  0.56909975787E+02 -0.82594869134E+03  0.84682398532E+03  0.79226050961E+02 0.  0.
          6    2    1    2  501    0  0.15928112584E+03 -0.14023226499E+02 -0.30578368276E+03  0.38581052582E+03  0.17256585194E+03 0.  0.
         24    2    5    5    0    0  0.41799852897E+01 -0.98085663892E+01 -0.11698112053E+03  0.14138748135E+03  0.78690260330E+02 0.  0.
          5    1    5    5  501    0  0.15510114055E+03 -0.42146601096E+01 -0.18880256223E+03  0.24442304447E+03  0.47000000000E+01 0. -1.
        -13    1    6    6    0    0  0.27646663795E+02  0.14637861470E+02 -0.16544325998E+02  0.35388129792E+02  0.00000000000E+00 0.  1.
         14    1    6    6    0    0 -0.23466678506E+02 -0.24446427860E+02 -0.10043679453E+03  0.10599935156E+03  0.00000000000E+00 0. -1.
         -5    1    3    3    0  503  0.10553886515E+00 -0.42886749289E+02 -0.54194134187E+03  0.54365595042E+03  0.47000000000E+01 0.  1.
         11    1    4    4    0    0 -0.10260957549E+03  0.67406051828E+02 -0.65447373436E+03  0.66588900710E+03  0.00000000000E+00 0. -1.
        -12    1    4    4    0    0 -0.56777089215E+02 -0.10496076041E+02 -0.17147495698E+03  0.18093497822E+03  0.00000000000E+00 0.  1.
</event>
<event>
12    1  0.8453150E-002  0.2698028E+03  0.7818608E-02  0.1101701E+00
         21   -1    0    0  503  502  0.00000000000E+00  0.00000000000E+00  0.38363002486E+03  0.38363002486E+03  0.00000000000E+00 0.  1.
         21   -1    0    0  501  503 -0.00000000000E+00 -0.00000000000E+00 -0.19401899503E+03  0.19401899503E+03  0.00000000000E+00 0.  1.
          6    2    1    2  501    0  0.83426318121E+02 -0.19090731042E+03  0.14425875815E+03  0.30406100282E+03  0.16803854440E+03 0.  0.
         24    2    3    3    0    0 -0.45235754628E+01 -0.13159910433E+03  0.50560832745E+02  0.16244872116E+03  0.80587853940E+02 0.  0.
         -6    2    1    2    0  502 -0.83426318121E+02  0.19090731042E+03  0.45352271678E+02  0.27358801707E+03  0.17142935225E+03 0.  0.
        -24    2    5    5    0    0 -0.85846976015E+02  0.11678353044E+03 -0.29695591809E+02  0.16797331092E+03  0.79530552198E+02 0.  0.
          5    1    3    3  501    0  0.87949893584E+02 -0.59308206093E+02  0.93697925407E+02  0.14161228166E+03  0.47000000000E+01 0. -1.
        -13    1    4    4    0    0  0.48194446455E+01 -0.10207779443E+03 -0.11246287273E+01  0.10219769054E+03  0.00000000000E+00 0.  1.
         14    1    4    4    0    0 -0.93430201083E+01 -0.29521309904E+02  0.51685461472E+02  0.60251030620E+02  0.00000000000E+00 0. -1.
         -5    1    5    5    0  502  0.24206578944E+01  0.74123779980E+02  0.75047863486E+02  0.10561470616E+03  0.47000000000E+01 0.  1.
         11    1    6    6    0    0  0.99700167535E+01  0.41895574933E+02 -0.14376430339E+02  0.45401786114E+02  0.00000000000E+00 0. -1.
        -12    1    6    6    0    0 -0.95816992769E+02  0.74887955512E+02 -0.15319161469E+02  0.12257152480E+03  0.00000000000E+00 0.  1.
</event>
<event>
12    1  0.8453150E-002  0.1972167E+03  0.7818608E-02  0.1152352E+00
         21   -1    0    0  501  502  0.00000000000E+00  0.00000000000E+00  0.84720688718E+03  0.84720688718E+03  0.00000000000E+00 0.  1.
         21   -1    0    0  502  503 -0.00000000000E+00 -0.00000000000E+00 -0.45659616432E+02  0.45659616432E+02  0.00000000000E+00 0.  1.
         -6    2    1    2    0  503 -0.71729668167E+02 -0.62843959775E+02  0.39195385748E+03  0.43826647577E+03  0.17133350172E+03 0.  0.
        -24    2    3    3    0    0  0.48886093179E+01 -0.55795114017E+02  0.11921159797E+03  0.15484015942E+03  0.81406858622E+02 0.  0.
          6    2    1    2  501    0  0.71729668167E+02  0.62843959775E+02  0.40959341326E+03  0.45460002784E+03  0.17262651173E+03 0.  0.
         24    2    5    5    0    0  0.62910507042E+02  0.12401874032E+02  0.11271482918E+03  0.15330089856E+03  0.81761815095E+02 0.  0.
          5    1    5    5  501    0  0.88191611247E+01  0.50442085743E+02  0.29687858408E+03  0.30129912928E+03  0.47000000000E+01 0. -1.
        -13    1    6    6    0    0  0.53000136937E+02 -0.16576417368E+02  0.10915477669E+03  0.12246859761E+03  0.00000000000E+00 0.  1.
         14    1    6    6    0    0  0.99103701051E+01  0.28978291400E+02  0.35600524926E+01  0.30832300949E+02  0.00000000000E+00 0. -1.
         -5    1    3    3    0  503 -0.76618277484E+02 -0.70488457584E+01  0.27274225952E+03  0.28342631634E+03  0.47000000000E+01 0.  1.
         13    1    4    4    0    0 -0.10914827766E+02 -0.73054167372E+02  0.77837995377E+02  0.10730702847E+03  0.00000000000E+00 0. -1.
        -14    1    4    4    0    0  0.15803437084E+02  0.17259053356E+02  0.41373602592E+02  0.47533130949E+02  0.00000000000E+00 0.  1.
</event>
<event>
12    1  0.8453150E-002  0.2333425E+03  0.7818608E-02  0.1124368E+00
         21   -1    0    0  501  502  0.00000000000E+00  0.00000000000E+00  0.10523801256E+03  0.10523801256E+03  0.00000000000E+00 0. -1.
         21   -1    0    0  502  503 -0.00000000000E+00 -0.00000000000E+00 -0.67369221651E+03  0.67369221651E+03  0.00000000000E+00 0.  1.
         -6    2    1    2    0  503 -0.83031570302E+01 -0.15607546102E+03 -0.47243372041E+03  0.52691778537E+03  0.17326349995E+03 0.  0.
        -24    2    3    3    0    0 -0.39833502314E+02 -0.16285637445E+03 -0.31079563825E+03  0.36202659984E+03  0.79752264125E+02 0.  0.
          6    2    1    2  501    0  0.83031570302E+01  0.15607546102E+03 -0.96020483532E+02  0.25201244369E+03  0.17280580595E+03 0.  0.
         24    2    5    5    0    0 -0.25178165235E+02  0.16314219556E+03 -0.42839210253E+02  0.18859891592E+03  0.80529728509E+02 0.  0.
          5    1    5    5  501    0  0.33481322266E+02 -0.70667345387E+01 -0.53181273280E+02  0.63413527779E+02  0.47000000000E+01 0. -1.
        -11    1    6    6    0    0 -0.47662953911E+02  0.78555016029E+02 -0.17284182971E+01  0.91900136826E+02  0.00000000000E+00 0.  1.
         12    1    6    6    0    0  0.22484788675E+02  0.84587179527E+02 -0.41110791956E+02  0.96698779089E+02  0.00000000000E+00 0. -1.
         -5    1    3    3    0  503  0.31530345284E+02  0.67809134347E+01 -0.16163808217E+03  0.16489118553E+03  0.47000000000E+01 0.  1.
         13    1    4    4    0    0 -0.72634501115E+01 -0.89870031064E+02 -0.90792536860E+02  0.12795571476E+03  0.00000000000E+00 0. -1.
        -14    1    4    4    0    0 -0.32570052202E+02 -0.72986343389E+02 -0.22000310139E+03  0.23407088508E+03  0.00000000000E+00 0.  1.
</event>
<event>
12    1  0.8453150E-002  0.2775564E+03  0.7818608E-02  0.1097107E+00
         21   -1    0    0  503  502  0.00000000000E+00  0.00000000000E+00  0.37686981708E+02  0.37686981708E+02  0.00000000000E+00 0.  1.
         21   -1    0    0  501  503 -0.00000000000E+00 -0.00000000000E+00 -0.26611745427E+04  0.26611745427E+04  0.00000000000E+00 0.  1.
          6    2    1    2  501    0  0.18274766215E+03 -0.11702131578E+03 -0.19626510807E+04  0.19821032552E+04  0.17217245210E+03 0.  0.
         24    2    3    3    0    0  0.11474277068E+03 -0.16970666121E+02 -0.13691530022E+04  0.13763831408E+04  0.79979372128E+02 0.  0.
         -6    2    1    2    0  502 -0.18274766215E+03  0.11702131578E+03 -0.66083648031E+03  0.71675826925E+03  0.17305162944E+03 0.  0.
        -24    2    5    5    0    0 -0.32537658517E+02  0.88998643813E+01 -0.28546304145E+03  0.29821245091E+03  0.79395283459E+02 0.  0.
          5    1    3    3  501    0  0.68004891474E+02 -0.10005064966E+03 -0.59349807854E+03  0.60572011440E+03  0.47000000000E+01 0. -1.
        -11    1    4    4    0    0  0.62587566576E+02  0.26131247827E+02 -0.87417867120E+03  0.87680579081E+03  0.00000000000E+00 0.  1.
         12    1    4    4    0    0  0.52155204103E+02 -0.43101913948E+02 -0.49497433096E+03  0.49957734997E+03  0.00000000000E+00 0. -1.
         -5    1    5    5    0  502 -0.15021000364E+03  0.10812145140E+03 -0.37537343886E+03  0.41854581834E+03  0.47000000000E+01 0.  1.
         11    1    6    6    0    0 -0.26112219627E+02  0.81411756027E+01 -0.28936633403E+03  0.29065615773E+03  0.00000000000E+00 0. -1.
        -12    1    6    6    0    0 -0.64254388900E+01  0.75868877857E+00  0.39032925850E+01  0.75562931783E+01  0.00000000000E+00 0.  1.
</event>
<event>
12    1  0.8453150E-002  0.2496318E+03  0.7818608E-02  0.1113602E+00
         21   -1    0    0  501  502  0.00000000000E+00  0.00000000000E+00  0.40010879643E+02  0.40010879643E+02  0.00000000000E+00 0. -1.
         21   -1    0    0  502  503 -0.00000000000E+00 -0.00000000000E+00 -0.15712003223E+04  0.15712003223E+04  0.00000000000E+00 0. -1.
         -6    2    1    2    0  503  0.16538173812E+03  0.73919333045E+02 -0.84814449757E+03  0.88411828613E+03  0.17175816721E+03 0.  0.
        -24    2    3    3    0    0  0.92509798707E+02  0.31256394310E+02 -0.25823599628E+03  0.28817820878E+03  0.82618552386E+02 0.  0.
          6    2    1    2  501    0 -0.16538173812E+03 -0.73919333045E+02 -0.68304494512E+03  0.72709291585E+03  0.17116811654E+03 0.  0.
         24    2    5    5    0    0 -0.12810113860E+03  0.10227651278E+02 -0.34244867488E+03  0.37424951238E+03  0.79228126485E+02 0.  0.
          5    1    5    5  501    0 -0.37280599519E+02 -0.84146984323E+02 -0.34059627024E+03  0.35284340347E+03  0.47000000000E+01 0. -1.
        -13    1    6    6    0    0 -0.27269845846E+02 -0.31531612869E+02 -0.10211873934E+03  0.11030015425E+03  0.00000000000E+00 0.  1.
         14    1    6    6    0    0 -0.10083129276E+03  0.41759264147E+02 -0.24032993554E+03  0.26394935813E+03  0.00000000000E+00 0. -1.
         -5    1    3    3    0  503  0.72871939414E+02  0.42662938735E+02 -0.58990850129E+03  0.59594007735E+03  0.47000000000E+01 0.  1.
         11    1    4    4    0    0  0.53855156579E+02  0.13608305225E+02 -0.23127889351E+03  0.23785602882E+03  0.00000000000E+00 0. -1.
        -12    1    4    4    0    0  0.38654642128E+02  0.17648089085E+02 -0.26957102769E+02  0.50322179962E+02  0.00000000000E+00 0.  1.
</event>
<event>
12    1  0.8453150E-002  0.2290982E+03  0.7818608E-02  0.1127533E+00
         21   -1    0    0  501  502  0.00000000000E+00  0.00000000000E+00  0.18660888987E+03  0.18660888987E+03  0.00000000000E+00 0. -1.
         21   -1    0    0  502  503 -0.00000000000E+00 -0.00000000000E+00 -0.28043229893E+03  0.28043229893E+03  0.00000000000E+00 0.  1.
         -6    2    1    2    0  503 -0.12170725509E+03  0.90678625815E+02 -0.60611101111E+02  0.23698038421E+03  0.17161214351E+03 0.  0.
        -24    2    3    3    0    0 -0.12932169635E+03  0.71031086638E+02 -0.96919762658E+02  0.19473805456E+03  0.82218933848E+02 0.  0.
          6    2    1    2  501    0  0.12170725509E+03 -0.90678625815E+02 -0.33212307946E+02  0.23006080459E+03  0.16967512277E+03 0.  0.
         24    2    5    5    0    0  0.11781576332E+03 -0.52764708297E+02 -0.79823783626E+02  0.16966768814E+03  0.75832838781E+02 0.  0.
          5    1    5    5  501    0  0.38914917772E+01 -0.37913917518E+02  0.46611475680E+02  0.60393116453E+02  0.47000000000E+01 0. -1.
        -13    1    6    6    0    0  0.12612003894E+03 -0.53985033684E+02 -0.63201831953E+02  0.15104674656E+03  0.00000000000E+00 0.  1.
         14    1    6    6    0    0 -0.83042756255E+01  0.12203253869E+01 -0.16621951673E+02  0.18620941575E+02  0.00000000000E+00 0. -1.
         -5    1    3    3    0  503  0.76144412547E+01  0.19647539176E+02  0.36308661548E+02  0.42242329655E+02  0.47000000000E+01 0.  1.
         13    1    4    4    0    0 -0.76695752906E+02  0.14974452688E+02 -0.10144965610E+02  0.78799702248E+02  0.00000000000E+00 0. -1.
        -14    1    4    4    0    0 -0.52625943441E+02  0.56056633950E+02 -0.86774797049E+02  0.11593835231E+03  0.00000000000E+00 0.  1.
</event>
<event>
12    1  0.8453150E-002  0.2415196E+03  0.7818608E-02  0.1118935E+00
         21   -1    0    0  503  502  0.00000000000E+00  0.00000000000E+00  0.66947976450E+03  0.66947976450E+03  0.00000000000E+00 0. -1.
         21   -1    0    0  501  503 -0.00000000000E+00 -0.00000000000E+00 -0.10187889278E+03  0.10187889278E+03  0.00000000000E+00 0. -1.
          6    2    1    2  501    0 -0.13753658483E+03  0.97930693747E+02  0.13497730724E+03  0.27588428217E+03  0.17142500031E+03 0.  0.
         24    2    3    3    0    0 -0.33997071949E+02  0.30388312072E+02  0.11273443341E+03  0.15018925646E+03  0.88139150604E+02 0.  0.
         -6    2    1    2    0  502  0.13753658483E+03 -0.97930693747E+02  0.43262356449E+03  0.49547437512E+03  0.17269908773E+03 0.  0.
        -24    2    5    5    0    0  0.13366550446E+03 -0.35540789021E+02  0.38505210485E+03  0.41678117816E+03  0.79446914688E+02 0.  0.
          5    1    3    3  501    0 -0.10353951288E+03  0.67542381675E+02  0.22242873830E+02  0.12569502570E+03  0.47000000000E+01 0. -1.
        -11    1    4    4    0    0  0.12117846193E+02 -0.72221966445E+00 -0.98114719256E+01  0.15608612333E+02  0.00000000000E+00 0.  1.
         12    1    4    4    0    0 -0.46114918142E+02  0.31110531736E+02  0.12254590534E+03  0.13458064413E+03  0.00000000000E+00 0. -1.
         -5    1    5    5    0  502  0.38710803666E+01 -0.62389904725E+02  0.47571459634E+02  0.78693196952E+02  0.47000000000E+01 0.  1.
         13    1    6    6    0    0  0.10784184782E+03 -0.32959742398E+00  0.20646116174E+03  0.23292956893E+03  0.00000000000E+00 0. -1.
        -14    1    6    6    0    0  0.25823656646E+02 -0.35211191597E+02  0.17859094311E+03  0.18385160923E+03  0.00000000000E+00 0.  1.
</event>
<event>
12    1  0.8453150E-002  0.3497962E+03  0.7818608E-02  0.1062769E+00
         21   -1    0    0  501  502  0.00000000000E+00  0.00000000000E+00  0.82784949898E+03  0.82784949898E+03  0.00000000000E+00 0. -1.
         21   -1    0    0  502  503 -0.00000000000E+00 -0.00000000000E+00 -0.22704203791E+03  0.22704203791E+03  0.00000000000E+00 0. -1.
         -6    2    1    2    0  503 -0.26969530916E+03 -0.14080648832E+03 -0.11573078167E+02  0.34998759019E+03  0.17261329674E+03 0.  0.
        -24    2    3    3    0    0 -0.26348906876E+03 -0.16719503396E+03 -0.10221072781E+02  0.32244143475E+03  0.80519188870E+02 0.  0.
          6    2    1    2  501    0  0.26969530916E+03  0.14080648832E+03  0.61238053924E+03  0.70490394670E+03  0.17122389523E+03 0.  0.
         24    2    5    5    0    0  0.11287806302E+03  0.12317207851E+03  0.27281509647E+03  0.33043178350E+03  0.82730095149E+02 0.  0.
          5    1    5    5  501    0  0.15681724614E+03  0.17634409811E+02  0.33956544277E+03  0.37447216321E+03  0.47000000000E+01 0. -1.
        -13    1    6    6    0    0  0.46131948028E+01  0.57533290757E+02  0.63561105466E+02  0.85856713422E+02  0.00000000000E+00 0.  1.
         14    1    6    6    0    0  0.10826486822E+03  0.65638787755E+02  0.20925399101E+03  0.24457507007E+03  0.00000000000E+00 0. -1.
         -5    1    3    3    0  503 -0.62062404009E+01  0.26388545642E+02 -0.13520053863E+01  0.27546155441E+02  0.47000000000E+01 0.  1.
         11    1    4    4    0    0 -0.12069417665E+03 -0.12410465479E+03 -0.42984791922E+01  0.17316906924E+03  0.00000000000E+00 0. -1.
        -12    1    4    4    0    0 -0.14279489211E+03 -0.43090379172E+02 -0.59225935885E+01  0.14927236551E+03  0.00000000000E+00 0.  1.
</event>
<event>
12    1  0.8453150E-002  0.3732609E+03  0.7818608E-02  0.1053462E+00
         21   -1    0    0  501  502  0.00000000000E+00  0.00000000000E+00  0.64681422565E+03  0.64681422565E+03  0.00000000000E+00 0.  1.
         21   -1    0    0  502  503 -0.00000000000E+00 -0.00000000000E+00 -0.26293652808E+03  0.26293652808E+03  0.00000000000E+00 0. -1.
         -6    2    1    2    0  503 -0.22675780850E+03  0.24193926385E+03 -0.16069988104E+01  0.37316697651E+03  0.17116453722E+03 0.  0.
        -24    2    3    3    0    0 -0.21958246006E+03  0.20807942150E+03 -0.44088925335E+02  0.31816898899E+03  0.88171252688E+02 0.  0.
          6    2    1    2  501    0  0.22675780850E+03 -0.24193926385E+03  0.38548469638E+03  0.53658377722E+03  0.17137674207E+03 0.  0.
         24    2    5    5    0    0  0.45149664290E+02 -0.53020866379E+02  0.15467487022E+03  0.18734611487E+03  0.79527019460E+02 0.  0.
          5    1    5    5  501    0  0.18160814421E+03 -0.18891839747E+03  0.23080982617E+03  0.34923766235E+03  0.47000000000E+01 0. -1.
        -13    1    6    6    0    0  0.42371818752E+02 -0.61087209126E+02  0.69582097959E+02  0.10182674747E+03  0.00000000000E+00 0.  1.
         14    1    6    6    0    0  0.27778455382E+01  0.80663427470E+01  0.85092772256E+02  0.85519367405E+02  0.00000000000E+00 0. -1.
         -5    1    3    3    0  503 -0.71753484314E+01  0.33859842357E+02  0.42481926524E+02  0.54997987516E+02  0.47000000000E+01 0.  1.
         11    1    4    4    0    0 -0.17002371392E+03  0.10424267814E+03 -0.18429724545E+02  0.20028543129E+03  0.00000000000E+00 0. -1.
        -12    1    4    4    0    0 -0.49558746143E+02  0.10383674336E+03 -0.25659200790E+02  0.11788355770E+03  0.00000000000E+00 0.  1.
</event>
<event>
12    1  0.8453150E-002  0.2486855E+03  0.7818608E-02  0.1114148E+00
         21   -1    0    0  503  502  0.00000000000E+00  0.00000000000E+00  0.63012401704E+03  0.63012401704E+03  0.00000000000E+00 0. -1.
         21   -1    0    0  501  503 -0.00000000000E+00 -0.00000000000E+00 -0.13060803754E+03  0.13060803754E+03  0.00000000000E+00 0.  1.
          6    2    1    2  501    0  0.15227559402E+03 -0.95911665184E+02  0.60041248558E+02  0.25577410852E+03  0.17154748325E+03 0.  0.
         24    2    3    3    0    0  0.13796717754E+03 -0.69460609405E+02 -0.16543205911E+02  0.17336259355E+03  0.76949287464E+02 0.  0.
         -6    2    1    2    0  502 -0.15227559402E+03  0.95911665184E+02  0.43947473094E+03  0.50495794606E+03  0.17163211849E+03 0.  0.
        -24    2    5    5    0    0 -0.11617250583E+03  0.11033082837E+03  0.22919413798E+03  0.29106226349E+03  0.80736271545E+02 0.  0.
          5    1    3    3  501    0  0.14308416473E+02 -0.26451055779E+02  0.76584454469E+02  0.82411514973E+02  0.47000000000E+01 0. -1.
        -11    1    4    4    0    0  0.10291628987E+03 -0.44987571454E+02 -0.46077410540E+02  0.12140334455E+03  0.00000000000E+00 0.  1.
         12    1    4    4    0    0  0.35050887677E+02 -0.24473037950E+02  0.29534204629E+02  0.51959248999E+02  0.00000000000E+00 0. -1.
         -5    1    5    5    0  502 -0.36103088192E+02 -0.14419163191E+02  0.21028059297E+03  0.21389568257E+03  0.47000000000E+01 0.  1.
         11    1    6    6    0    0 -0.11603095822E+03  0.89882414443E+02  0.22724280352E+03  0.27052046770E+03  0.00000000000E+00 0. -1.
        -12    1    6    6    0    0 -0.14154760465E+00  0.20448413931E+02  0.19513344562E+01  0.20541795788E+02  0.00000000000E+00 0.  1.
</event>
<event>
12    1  0.8453150E-002  0.1724324E+03  0.7818608E-02  0.1176768E+00
         21   -1    0    0  503  502  0.00000000000E+00  0.00000000000E+00  0.20290216090E+03  0.20290216090E+03  0.00000000000E+00 0.  1.
         21   -1    0    0  501  503 -0.00000000000E+00 -0.00000000000E+00 -0.28955837425E+03  0.28955837425E+03  0.00000000000E+00 0.  1.
          6    2    1    2  501    0  0.30533487571E+02  0.15290634812E+02 -0.21880756587E+03  0.27521199577E+03  0.16339765714E+03 0.  0.
         24    2    3    3    0    0 -0.56630495098E+01  0.23827234666E+01 -0.22159153772E+03  0.23639648378E+03  0.82114191544E+02 0.  0.
         -6    2    1    2    0  502 -0.30533487571E+02 -0.15290634812E+02  0.13215135253E+03  0.21724853938E+03  0.16901730832E+03 0.  0.
        -24    2    5    5    0    0 -0.31222003997E+02  0.13347217509E+01  0.22565088534E+01  0.86207946628E+02  0.80312659114E+02 0.  0.
          5    1    3    3  501    0  0.36196537081E+02  0.12907911345E+02  0.27839718487E+01  0.38815511992E+02  0.47000000000E+01 0. -1.
        -13    1    4    4    0    0  0.20653296911E+02  0.28728363052E+02 -0.16430083156E+03  0.16806736974E+03  0.00000000000E+00 0.  1.
         14    1    4    4    0    0 -0.26316346421E+02 -0.26345639586E+02 -0.57290706154E+02  0.68329114042E+02  0.00000000000E+00 0. -1.
         -5    1    5    5    0  502  0.68851642558E+00 -0.16625356563E+02  0.12989484367E+03  0.13104059275E+03  0.47000000000E+01 0.  1.
         11    1    6    6    0    0 -0.28851909539E+02  0.35995426862E+02  0.16027844709E+02  0.48836413106E+02  0.00000000000E+00 0. -1.
        -12    1    6    6    0    0 -0.23700944577E+01 -0.34660705111E+02 -0.13771335855E+02  0.37371533522E+02  0.00000000000E+00 0.  1.
</event>
<event>
12    1  0.8453150E-002  0.2242133E+03  0.7818608E-02  0.1131548E+00
         21   -1    0    0  503  502  0.00000000000E+00  0.00000000000E+00  0.80542373768E+03  0.80542373768E+03  0.00000000000E+00 0. -1.
         21   -1    0    0  501  503 -0.00000000000E+00 -0.00000000000E+00 -0.64051534134E+02  0.64051534134E+02  0.00000000000E+00 0.  1.
          6    2    1    2  501    0 -0.12839589124E+03  0.53183682985E+02  0.46479443844E+03  0.51604794771E+03  0.17594773460E+03 0.  0.
         24    2    3    3    0    0 -0.68483832497E+02  0.98156286114E+02  0.24770501932E+03  0.28634837064E+03  0.79453891997E+02 0.  0.
         -6    2    1    2    0  502  0.12839589124E+03 -0.53183682985E+02  0.27657776511E+03  0.35342732411E+03  0.17059192316E+03 0.  0.
        -24    2    5    5    0    0  0.13771901065E+03 -0.88213854560E+02  0.21747747510E+03  0.28393654950E+03  0.81088235487E+02 0.  0.
          5    1    3    3  501    0 -0.59912058740E+02 -0.44972603129E+02  0.21708941912E+03  0.22969957707E+03  0.47000000000E+01 0. -1.
        -11    1    4    4    0    0 -0.24407812166E+02  0.60980491047E+02  0.56507730641E+02  0.86645745454E+02  0.00000000000E+00 0.  1.
         12    1    4    4    0    0 -0.44076020331E+02  0.37175795067E+02  0.19119728868E+03  0.19970262519E+03  0.00000000000E+00 0. -1.
         -5    1    5    5    0  502 -0.93231194137E+01  0.35030171574E+02  0.59100290011E+02  0.69490774607E+02  0.47000000000E+01 0.  1.
         11    1    6    6    0    0  0.52976196147E+01 -0.41931046364E+02  0.51353732068E+02  0.66509271685E+02  0.00000000000E+00 0. -1.
        -12    1    6    6    0    0  0.13242139104E+03 -0.46282808195E+02  0.16612374303E+03  0.21742727781E+03  0.00000000000E+00 0.  1.
</event>
<event>
12    1  0.8453150E-002  0.2121609E+03  0.7818608E-02  0.1140355E+00
         21   -1    0    0  503  502  0.00000000000E+00  0.00000000000E+00  0.15267612816E+03  0.15267612816E+03  0.00000000000E+00 0. -1.
         21   -1    0    0  501  503 -0.00000000000E+00 -0.00000000000E+00 -0.37801575632E+03  0.37801575632E+03  0.00000000000E+00 0. -1.
          6    2    1    2  501    0  0.31798496507E+01  0.12429722451E+03 -0.24021348347E+03  0.32049141133E+03  0.17190786960E+03 0.  0.
         24    2    3    3    0    0  0.57677814728E+02  0.77613400255E+02 -0.90625082638E+02  0.15451494520E+03  0.79444272773E+02 0.  0.
         -6    2    1    2    0  502 -0.31798496507E+01 -0.12429722451E+03  0.14873855313E+02  0.21020047316E+03  0.16882859911E+03 0.  0.
        -24    2    5    5    0    0  0.35768079235E+02 -0.10651610467E+03 -0.36613385845E+02  0.14307271891E+03  0.80648786905E+02 0.  0.
          5    1    3    3  501    0 -0.54497965077E+02  0.46683824255E+02 -0.14958840083E+03  0.16597646613E+03  0.47000000000E+01 0. -1.
        -11    1    4    4    0    0  0.73110082867E+02  0.37770095240E+02 -0.62963223100E+02  0.10361482411E+03  0.00000000000E+00 0.  1.
         12    1    4    4    0    0 -0.15432268139E+02  0.39843305015E+02 -0.27661859539E+02  0.50900121096E+02  0.00000000000E+00 0. -1.
         -5    1    5    5    0  502 -0.38947928885E+02 -0.17781119843E+02  0.51487241158E+02  0.67127754241E+02  0.47000000000E+01 0.  1.
         11    1    6    6    0    0 -0.16901308970E+02 -0.75062434385E+02 -0.19151239449E+02  0.79289301127E+02  0.00000000000E+00 0. -1.
        -12    1    6    6    0    0  0.52669388204E+02 -0.31453670281E+02 -0.17462146396E+02  0.63783417788E+02  0.00000000000E+00 0.  1.
</event>
<event>
12    1  0.8453150E-002  0.1736044E+03  0.7818608E-02  0.1174444E+00
         21   -1    0    0  501  502  0.00000000000E+00  0.00000000000E+00  0.98357635795E+03  0.98357635795E+03  0.00000000000E+00 0. -1.
         21   -1    0    0  502  503 -0.00000000000E+00 -0.00000000000E+00 -0.28615341670E+03  0.28615341670E+03  0.00000000000E+00 0. -1.
         -6    2    1    2    0  503 -0.11071939712E+02  0.93056254319E+01 -0.25157385724E+03  0.30498452448E+03  0.17180504071E+03 0.  0.
        -24    2    3    3    0    0  0.39821494533E+02 -0.36543621375E+02 -0.18787676451E+03  0.21132714514E+03  0.80251454457E+02 0.  0.
          6    2    1    2  501    0  0.11071939712E+02 -0.93056254319E+01  0.94899679849E+03  0.96474525017E+03  0.17300084294E+03 0.  0.
         24    2    5    5    0    0  0.68500388677E+02 -0.34800164640E+02  0.61015010451E+03  0.62009010324E+03  0.79531323366E+02 0.  0.
          5    1    5    5  501    0 -0.57428448964E+02  0.25494539208E+02  0.33884669398E+03  0.34465514693E+03  0.47000000000E+01 0. -1.
        -13    1    6    6    0    0  0.30825085866E+02 -0.52966931797E+02  0.46541768766E+03  0.46943509218E+03  0.00000000000E+00 0.  1.
         14    1    6    6    0    0  0.37675302811E+02  0.18166767157E+02  0.14473241685E+03  0.15065501106E+03  0.00000000000E+00 0. -1.
         -5    1    3    3    0  503 -0.50893434246E+02  0.45849246807E+02 -0.63697092732E+02  0.93657379338E+02  0.47000000000E+01 0.  1.
         13    1    4    4    0    0  0.11427631730E+02 -0.13456562141E+00 -0.15309395208E+03  0.15351992392E+03  0.00000000000E+00 0. -1.
        -14    1    4    4    0    0  0.28393862804E+02 -0.36409055753E+02 -0.34782812424E+02  0.57807221226E+02  0.00000000000E+00 0.  1.
</event>
<event>
12    1  0.8453150E-002  0.2672881E+03  0.7818608E-02  0.1103078E+00
         21   -1    0    0  501  502  0.00000000000E+00  0.00000000000E+00  0.17973042742E+03  0.17973042742E+03  0.00000000000E+00 0.  1.
         21   -1    0    0  502  503 -0.00000000000E+00 -0.00000000000E+00 -0.41335984191E+03  0.41335984191E+03  0.00000000000E+00 0. -1.
         -6    2    1    2    0  503  0.77434083970E+01  0.20220914372E+03 -0.17949386191E+03  0.32196425472E+03  0.17462656348E+03 0.  0.
        -24    2    3    3    0    0 -0.36739635807E+02  0.70189078102E+02 -0.31930458791E+02  0.11897389315E+03  0.82818630325E+02 0.  0.
          6    2    1    2  501    0 -0.77434083970E+01 -0.20220914372E+03 -0.54135552570E+02  0.27112601461E+03  0.17213413249E+03 0.  0.
         24    2    5    5    0    0  0.31043262956E+01 -0.69451595956E+02 -0.84312276563E+02  0.13446964079E+03  0.78360470207E+02 0.  0.
          5    1    5    5  501    0 -0.10847734693E+02 -0.13275754776E+03  0.30176723993E+02  0.13665637383E+03  0.47000000000E+01 0. -1.
        -13    1    6    6    0    0 -0.27011786005E+02  0.17042367303E+01 -0.27329729023E+02  0.38463685400E+02  0.00000000000E+00 0.  1.
         14    1    6    6    0    0  0.30116112301E+02 -0.71155832687E+02 -0.56982547539E+02  0.96005955386E+02  0.00000000000E+00 0. -1.
         -5    1    3    3    0  503  0.44483044204E+02  0.13202006562E+03 -0.14756340312E+03  0.20299036157E+03  0.47000000000E+01 0.  1.
         13    1    4    4    0    0 -0.45599489346E+02  0.65577279113E+02 -0.52861923354E+02  0.95781396446E+02  0.00000000000E+00 0. -1.
        -14    1    4    4    0    0  0.88598535393E+01  0.46117989889E+01  0.20931464563E+02  0.23192496705E+02  0.00000000000E+00 0.  1.
</event>
<event>
12    1  0.8453150E-002  0.1796029E+03  0.7818608E-02  0.1168402E+00
         21   -1    0    0  501  502  0.00000000000E+00  0.00000000000E+00  0.14857191034E+03  0.14857191034E+03  0.00000000000E+00 0. -1.
         21   -1    0    0  502  503 -0.00000000000E+00 -0.00000000000E+00 -0.26189968280E+03  0.26189968280E+03  0.00000000000E+00 0. -1.
         -6    2    1    2    0  503  0.24826203893E+02  0.43128402097E+02 -0.14241850091E+03  0.22852801337E+03  0.17165553887E+03 0.  0.
        -24    2    3    3    0    0  0.61190901653E+02  0.74804470147E+02 -0.77005448623E+02  0.14712333328E+03  0.79846107476E+02 0.  0.
          6    2    1    2  501    0 -0.24826203893E+02 -0.43128402097E+02  0.29090728453E+02  0.18194357977E+03  0.17257113394E+03 0.  0.
         24    2    5    5    0    0 -0.75888397133E+02 -0.14452285295E+02  0.30090597280E+02  0.12318341476E+03  0.91108683772E+02 0.  0.
          5    1    5    5  501    0  0.51062193240E+02 -0.28676116802E+02 -0.99986882629E+00  0.58760165001E+02  0.47000000000E+01 0. -1.
        -11    1    6    6    0    0  0.16897747536E+01 -0.28320917063E+02 -0.15304568679E+02  0.32235997029E+02  0.00000000000E+00 0.  1.
         12    1    6    6    0    0 -0.77578171887E+02  0.13868631768E+02  0.45395165959E+02  0.90947417736E+02  0.00000000000E+00 0. -1.
         -5    1    3    3    0  503 -0.36364697760E+02 -0.31676068050E+02 -0.65413052290E+02  0.81404680088E+02  0.47000000000E+01 0.  1.
         13    1    4    4    0    0  0.22767745911E+02  0.47330427630E+02 -0.84305361641E+02  0.99327406264E+02  0.00000000000E+00 0. -1.
        -14    1    4    4    0    0  0.38423155742E+02  0.27474042516E+02  0.72999130188E+01  0.47795927018E+02  0.00000000000E+00 0.  1.
</event>
<event>
12    1  0.8453150E-002  0.2490930E+03  0.7818608E-02  0.1113991E+00
         21   -1    0    0  503  502  0.00000000000E+00  0.00000000000E+00  0.12612061612E+03  0.12612061612E+03  0.00000000000E+00 0.  1.
         21   -1    0    0  501  503 -0.00000000000E+00 -0.00000000000E+00 -0.49408487103E+03  0.49408487103E+03  0.00000000000E+00 0.  1.
          6    2    1    2  501    0  0.17186334578E+03 -0.55016148597E+02 -0.20982654095E+03  0.32515490560E+03  0.17068904218E+03 0.  0.
         24    2    3    3    0    0  0.16977473811E+03  0.21853543421E+01 -0.18332939511E+03  0.26190490198E+03  0.78461921296E+02 0.  0.
         -6    2    1    2    0  502 -0.17186334578E+03  0.55016148597E+02 -0.15813771396E+03  0.29505058155E+03  0.17170766689E+03 0.  0.
        -24    2    5    5    0    0 -0.77083184023E+02  0.50341189870E+02 -0.15876162450E+03  0.20003682694E+03  0.79582825172E+02 0.  0.
          5    1    3    3  501    0  0.20886076675E+01 -0.57201502939E+02 -0.26497145834E+02  0.63250003619E+02  0.47000000000E+01 0. -1.
        -11    1    4    4    0    0  0.45626891794E+02  0.36185889995E+02 -0.53425165221E+02  0.79028350409E+02  0.00000000000E+00 0.  1.
         12    1    4    4    0    0  0.12414784632E+03 -0.34000535653E+02 -0.12990422989E+03  0.18287655157E+03  0.00000000000E+00 0. -1.
         -5    1    5    5    0  502 -0.94780161757E+02  0.46749587266E+01  0.62391053717E+00  0.95013754616E+02  0.47000000000E+01 0.  1.
         11    1    6    6    0    0  0.14103787874E+02  0.21702020305E+02 -0.39079725183E+02  0.46873440647E+02  0.00000000000E+00 0. -1.
        -12    1    6    6    0    0 -0.91186971897E+02  0.28639169565E+02 -0.11968189931E+03  0.15316338629E+03  0.00000000000E+00 0.  1.
</event>
<event>
12    1  0.8453150E-002  0.2041178E+03  0.7818608E-02  0.1146521E+00
         21   -1    0    0  501  502  0.00000000000E+00  0.00000000000E+00  0.88907501137E+03  0.88907501137E+03  0.00000000000E+00 0. -1.
         21   -1    0    0  502  503 -0.00000000000E+00 -0.00000000000E+00 -0.51002165633E+02  0.51002165633E+02  0.00000000000E+00 0. -1.
         -6    2    1    2    0  503  0.10817380886E+03 -0.94763933237E+01  0.28234568404E+03  0.34840086085E+03  0.17283720546E+03 0.  0.
        -24    2    3    3    0    0  0.48287905403E+02 -0.10202486994E+02  0.46863994699E+02  0.10537706642E+03  0.80450479050E+02 0.  0.
          6    2    1    2  501    0 -0.10817380886E+03  0.94763933237E+01  0.55572716170E+03  0.59167631615E+03  0.17162986305E+03 0.  0.
         24    2    5    5    0    0 -0.12975430734E+02 -0.15158235855E+02  0.39171505540E+03  0.40038685704E+03  0.80441387046E+02 0.  0.
          5    1    5    5  501    0 -0.95198378129E+02  0.24634629179E+02  0.16401210630E+03  0.19128945911E+03  0.47000000000E+01 0. -1.
        -11    1    6    6    0    0  0.13902797370E+02 -0.65854007225E+01  0.11703361335E+02  0.19329354462E+02  0.00000000000E+00 0.  1.
         12    1    6    6    0    0 -0.26878228104E+02 -0.85728351324E+01  0.38001169406E+03  0.38105750258E+03  0.00000000000E+00 0. -1.
         -5    1    3    3    0  503  0.59885903460E+02  0.72609367024E+00  0.23548168934E+03  0.24302379443E+03  0.47000000000E+01 0.  1.
         11    1    4    4    0    0  0.44689344757E+02 -0.18755260473E+02  0.67299013350E+02  0.82934037211E+02  0.00000000000E+00 0. -1.
        -12    1    4    4    0    0  0.35985606456E+01  0.85527734789E+01 -0.20435018651E+02  0.22443029211E+02  0.00000000000E+00 0.  1.
</event>
<event>
12    1  0.8453150E-002  0.1920195E+03  0.7818608E-02  0.1156738E+00
         21   -1    0    0  501  502  0.00000000000E+00  0.00000000000E+00  0.47400201648E+03  0.47400201648E+03  0.00000000000E+00 0.  1.
         21   -1    0    0  502  503 -0.00000000000E+00 -0.00000000000E+00 -0.95511116060E+02  0.95511116060E+02  0.00000000000E+00 0.  1.
         -6    2    1    2    0  503  0.80422232169E+02 -0.44784959500E+02  0.65884669356E+02  0.20264237970E+03  0.16807651938E+03 0.  0.
        -24    2    3    3    0    0  0.83174378602E+02  0.18291485722E+02  0.76679570344E+02  0.13841752361E+03  0.77634390759E+02 0.  0.
          6    2    1    2  501    0 -0.80422232169E+02  0.44784959500E+02  0.31260623106E+03  0.36687075284E+03  0.16851725599E+03 0.  0.
         24    2    5    5    0    0 -0.28441114355E+02 -0.34823124518E+02  0.19695622803E+03  0.21708257957E+03  0.79445223940E+02 0.  0.
          5    1    5    5  501    0 -0.51981117813E+02  0.79608084019E+02  0.11565000303E+03  0.14978817327E+03  0.47000000000E+01 0. -1.
        -13    1    6    6    0    0  0.23801508211E-01  0.18991528510E+02  0.10563791534E+03  0.10733148597E+03  0.00000000000E+00 0.  1.
         14    1    6    6    0    0 -0.28464915864E+02 -0.53814653028E+02  0.91318312685E+02  0.10975109360E+03  0.00000000000E+00 0. -1.
         -5    1    3    3    0  503 -0.27521464339E+01 -0.63076445222E+02 -0.10794900988E+02  0.64224856085E+02  0.47000000000E+01 0.  1.
         13    1    4    4    0    0 -0.82979368129E+00  0.27450947162E+01  0.48316693502E+02  0.48401724902E+02  0.00000000000E+00 0. -1.
        -14    1    4    4    0    0  0.84004172284E+02  0.15546391005E+02  0.28362876842E+02  0.90015798708E+02  0.00000000000E+00 0.  1.
</event>
<event>
12    1  0.8453150E-002  0.2442574E+03  0.7818608E-02  0.1117063E+00
         21   -1    0    0  503  502  0.00000000000E+00  0.00000000000E+00  0.69209146087E+03  0.69209146087E+03  0.00000000000E+00 0.  1.
         21   -1    0    0  501  503 -0.00000000000E+00 -0.00000000000E+00 -0.99432353598E+02  0.99432353598E+02  0.00000000000E+00 0.  1.
          6    2    1    2  501    0  0.17202661051E+03  0.23304793391E+02  0.44130777186E+03  0.50417572669E+03  0.17118512130E+03 0.  0.
         24    2    3    3    0    0  0.13170997741E+03  0.11813197725E+02  0.17009548611E+03  0.22970226418E+03  0.79646631981E+02 0.  0.
         -6    2    1    2    0  502 -0.17202661051E+03 -0.23304793391E+02  0.15135133541E+03  0.28734808778E+03  0.17182965024E+03 0.  0.
        -24    2    5    5    0    0 -0.86350825145E+02  0.13926437018E+02  0.11996120861E+02  0.11951343541E+03  0.80555221283E+02 0.  0.
          5    1    3    3  501    0  0.40316633101E+02  0.11491595666E+02  0.27121228575E+03  0.27447346250E+03  0.47000000000E+01 0. -1.
        -13    1    4    4    0    0  0.89681388815E+02 -0.29336613360E+02  0.90596990982E+02  0.13080979764E+03  0.00000000000E+00 0.  1.
         14    1    4    4    0    0  0.42028588595E+02  0.41149811085E+02  0.79498495129E+02  0.98892466545E+02  0.00000000000E+00 0. -1.
         -5    1    5    5    0  502 -0.85675785366E+02 -0.37231230410E+02  0.13935521455E+03  0.16783465237E+03  0.47000000000E+01 0.  1.
         13    1    6    6    0    0 -0.18201176302E+02  0.37896545047E+02 -0.11431735979E+02  0.43567367751E+02  0.00000000000E+00 0. -1.
        -14    1    6    6    0    0 -0.68149648843E+02 -0.23970108029E+02  0.23427856840E+02  0.75946067657E+02  0.00000000000E+00 0.  1.
</event>
<event>
12    1  0.8453150E-002  0.2387322E+03  0.7818608E-02  0.1120742E+00
         21   -1    0    0  503  502  0.00000000000E+00  0.00000000000E+00  0.24121859843E+03  0.24121859843E+03  0.00000000000E+00 0. -1.
         21   -1    0    0  501  503 -0.00000000000E+00 -0.00000000000E+00 -0.27001633756E+03  0.27001633756E+03  0.00000000000E+00 0. -1.
          6    2    1    2  501    0 -0.11962819200E+03  0.11423751126E+03 -0.10557704280E+03  0.26103559757E+03  0.17213935614E+03 0.  0.
         24    2    3    3    0    0 -0.19360400948E+02 -0.21144267560E+01 -0.17496277701E+02  0.83914976006E+02  0.79726454451E+02 0.  0.
         -6    2    1    2    0  502  0.11962819200E+03 -0.11423751126E+03  0.76779303668E+02  0.25019933842E+03  0.17129954517E+03 0.  0.
        -24    2    5    5    0    0  0.19888765622E+02 -0.53568256877E+02 -0.19678281809E+02  0.98690700389E+02  0.78022422582E+02 0.  0.
          5    1    3    3  501    0 -0.10026779105E+03  0.11635193801E+03 -0.88080765095E+02  0.17712062156E+03  0.47000000000E+01 0. -1.
        -13    1    4    4    0    0 -0.37164377106E+02 -0.27037236325E+01  0.20081082496E+02  0.42329078910E+02  0.00000000000E+00 0.  1.
         14    1    4    4    0    0  0.17803976158E+02  0.58929687653E+00 -0.37577360198E+02  0.41585897096E+02  0.00000000000E+00 0. -1.
         -5    1    5    5    0  502  0.99739426381E+02 -0.60669254381E+02  0.96457585477E+02  0.15150863803E+03  0.47000000000E+01 0.  1.
         13    1    6    6    0    0  0.46748468091E+02 -0.49492546675E+02 -0.61950038806E+01  0.68361608512E+02  0.00000000000E+00 0. -1.
        -14    1    6    6    0    0 -0.26859702470E+02 -0.40757102014E+01 -0.13483277929E+02  0.30329091877E+02  0.00000000000E+00 0.  1.
</event>
<event>
12    1  0.8453150E-002  0.1910838E+03  0.7818608E-02  0.1160112E+00
         21   -1    0    0  501  502  0.00000000000E+00  0.00000000000E+00  0.12553520416E+04  0.12553520416E+04  0.00000000000E+00 0. -1.
         21   -1    0    0  502  503 -0.00000000000E+00 -0.00000000000E+00 -0.31378469058E+02  0.31378469058E+02  0.00000000000E+00 0. -1.
         -6    2    1    2    0  503 -0.57168141658E+01 -0.38588940671E+02  0.39888684161E+03  0.44229370254E+03  0.18705939857E+03 0.  0.
        -24    2    3    3    0    0  0.10763960858E+02  0.43677812110E+02  0.11996101479E+03  0.15098434563E+03  0.79887504853E+02 0.  0.
          6    2    1    2  501    0  0.57168141658E+01  0.38588940671E+02  0.82508673089E+03  0.84443680808E+03  0.17545261763E+03 0.  0.
         24    2    5    5    0    0 -0.37020356889E+02  0.77044878094E+02  0.63483018089E+03  0.64562793068E+03  0.80744326360E+02 0.  0.
          5    1    5    5  501    0  0.42737171055E+02 -0.38455937423E+02  0.19025655001E+03  0.19880887740E+03  0.47000000000E+01 0. -1.
        -11    1    6    6    0    0 -0.55869661723E+02  0.53798230413E+02  0.31531110544E+03  0.32471027380E+03  0.00000000000E+00 0.  1.
         12    1    6    6    0    0  0.18849304834E+02  0.23246647681E+02  0.31951907545E+03  0.32091765688E+03  0.00000000000E+00 0. -1.
         -5    1    3    3    0  503 -0.16480775023E+02 -0.82266752781E+02  0.27892582681E+03  0.29130935691E+03  0.47000000000E+01 0.  1.
         13    1    4    4    0    0  0.74452288007E+01 -0.22975093176E+02  0.23575390513E+02  0.33750338905E+02  0.00000000000E+00 0. -1.
        -14    1    4    4    0    0  0.33187320569E+01  0.66652905286E+02  0.96385624277E+02  0.11723400673E+03  0.00000000000E+00 0.  1.
</event>
<event>
12    1  0.8453150E-002  0.1739027E+03  0.7818608E-02  0.1173886E+00
         21   -1    0    0  503  502  0.00000000000E+00  0.00000000000E+00  0.12756017199E+03  0.12756017199E+03  0.00000000000E+00 0. -1.
         21   -1    0    0  501  503 -0.00000000000E+00 -0.00000000000E+00 -0.44942883775E+03  0.44942883775E+03  0.00000000000E+00 0.  1.
          6    2    1    2  501    0  0.61904508369E+00 -0.40072350773E+02 -0.35931151893E+03  0.39910112463E+03  0.16902888372E+03 0.  0.
         24    2    3    3    0    0  0.28917571664E+02 -0.83745531763E+02 -0.27851796522E+03  0.30288344608E+03  0.79476945824E+02 0.  0.
         -6    2    1    2    0  502 -0.61904508369E+00  0.40072350773E+02  0.37442853164E+02  0.17788788511E+03  0.16922161772E+03 0.  0.
        -24    2    5    5    0    0 -0.62272382820E+02  0.41896314269E+02  0.36297405443E+02  0.11601815950E+03  0.80681849761E+02 0.  0.
          5    1    3    3  501    0 -0.28298526580E+02  0.43673180991E+02 -0.80793553713E+02  0.96217678553E+02  0.47000000000E+01 0. -1.
        -13    1    4    4    0    0 -0.19574132902E+02 -0.96879479290E+00 -0.80487451333E+02  0.82839091402E+02  0.00000000000E+00 0.  1.
         14    1    4    4    0    0  0.48491704565E+02 -0.82776736971E+02 -0.19803051388E+03  0.22004435467E+03  0.00000000000E+00 0. -1.
         -5    1    5    5    0  502  0.61653337736E+02 -0.18239634961E+01  0.11454477208E+01  0.61869725612E+02  0.47000000000E+01 0.  1.
         13    1    6    6    0    0 -0.25384782097E+02  0.28109626870E+02  0.59336241156E+02  0.70394089236E+02  0.00000000000E+00 0. -1.
        -14    1    6    6    0    0 -0.36887600723E+02  0.13786687399E+02 -0.23038835713E+02  0.45624070265E+02  0.00000000000E+00 0.  1.
</event>
<event>
12    1  0.8453150E-002  0.1776153E+03  0.7818608E-02  0.1170706E+00
         21   -1    0    0  501  502  0.00000000000E+00  0.00000000000E+00  0.48415533097E+03  0.48415533097E+03  0.00000000000E+00 0. -1.
         21   -1    0    0  502  503 -0.00000000000E+00 -0.00000000000E+00 -0.64333309194E+02  0.64333309194E+02  0.00000000000E+00 0. -1.
         -6    2    1    2    0  503 -0.31464443358E+02  0.10290502826E+02  0.21635033398E+03  0.27991904415E+03  0.17450300461E+03 0.  0.
        -24    2    3    3    0    0 -0.18677972763E+02  0.71576883360E+02  0.88949511317E+02  0.13788885762E+03  0.75028025392E+02 0.  0.
          6    2    1    2  501    0  0.31464443358E+02 -0.10290502826E+02  0.20347168780E+03  0.26856959602E+03  0.17214236703E+03 0.  0.
         24    2    5    5    0    0  0.41625094278E+02 -0.24775482284E+02  0.34828960095E+02  0.98936129204E+02  0.78922925721E+02 0.  0.
          5    1    5    5  501    0 -0.10160650920E+02  0.14484979458E+02  0.16864272770E+03  0.16963346681E+03  0.47000000000E+01 0. -1.
        -13    1    6    6    0    0  0.43429309957E+02  0.15474709637E+02  0.66161558759E+00  0.46108668782E+02  0.00000000000E+00 0.  1.
         14    1    6    6    0    0 -0.18042156788E+01 -0.40250191921E+02  0.34167344508E+02  0.52827460422E+02  0.00000000000E+00 0. -1.
         -5    1    3    3    0  503 -0.12786470595E+02 -0.61286380535E+02  0.12740082266E+03  0.14203018653E+03  0.47000000000E+01 0.  1.
         13    1    4    4    0    0  0.28542949062E+02  0.37264382188E+02  0.41809313410E+02  0.62859786898E+02  0.00000000000E+00 0. -1.
        -14    1    4    4    0    0 -0.47220921826E+02  0.34312501173E+02  0.47140197907E+02  0.75029070723E+02  0.00000000000E+00 0.  1.
</event>
<event>
12    1  0.8453150E-002  0.2067001E+03  0.7818608E-02  0.1144401E+00
         21   -1    0    0  501  502  0.00000000000E+00  0.00000000000E+00  0.43641203980E+03  0.43641203980E+03  0.00000000000E+00 0. -1.
         21   -1    0    0  502  503 -0.00000000000E+00 -0.00000000000E+00 -0.98587222602E+02  0.98587222602E+02  0.00000000000E+00 0. -1.
         -6    2    1    2    0  503 -0.10937973830E+03  0.34128871569E+02  0.14052642251E+03  0.24994522858E+03  0.17203556273E+03 0.  0.
        -24    2    3    3    0    0  0.10699621177E+02  0.15928016318E+02  0.83064787651E+02  0.11550470945E+03  0.77931991901E+02 0.  0.
          6    2    1    2  501    0  0.10937973830E+03 -0.34128871569E+02  0.19729839469E+03  0.28505403382E+03  0.17088135832E+03 0.  0.
         24    2    5    5    0    0  0.51945228097E+02 -0.15040840694E+02  0.20314958605E+03  0.22406713092E+03  0.77535741649E+02 0.  0.
          5    1    5    5  501    0  0.57434510200E+02 -0.19088030875E+02 -0.58511913641E+01  0.60986902897E+02  0.47000000000E+01 0. -1.
        -11    1    6    6    0    0  0.61201351745E+02 -0.81603820860E+00  0.85218871986E+02  0.10492153028E+03  0.00000000000E+00 0.  1.
         12    1    6    6    0    0 -0.92561236477E+01 -0.14224802486E+02  0.11793071407E+03  0.11914560064E+03  0.00000000000E+00 0. -1.
         -5    1    3    3    0  503 -0.12007935947E+03  0.18200855250E+02  0.57461634855E+02  0.13444051913E+03  0.47000000000E+01 0.  1.
         11    1    4    4    0    0 -0.77179486357E+01  0.31118444054E+02  0.85685719524E+02  0.91487522766E+02  0.00000000000E+00 0. -1.
        -12    1    4    4    0    0  0.18417569812E+02 -0.15190427736E+02 -0.26209318730E+01  0.24017186689E+02  0.00000000000E+00 0.  1.
</event>
<event>
12    1  0.8453150E-002  0.2604251E+03  0.7818608E-02  0.1106891E+00
         21   -1    0    0  501  502  0.00000000000E+00  0.00000000000E+00  0.26283162823E+03  0.26283162823E+03  0.00000000000E+00 0.  1.
         21   -1    0    0  502  503 -0.00000000000E+00 -0.00000000000E+00 -0.61843666485E+03  0.61843666485E+03  0.00000000000E+00 0. -1.
         -6    2    1    2    0  503 -0.27270176239E+01  0.19540904679E+03 -0.51418766132E+03  0.57637678907E+03  0.17213111205E+03 0.  0.
        -24    2    3    3    0    0  0.64710906827E+02  0.97016184927E+02 -0.29064312067E+03  0.32295366350E+03  0.78905028841E+02 0.  0.
          6    2    1    2  501    0  0.27270176239E+01 -0.19540904679E+03  0.15858262470E+03  0.30489150401E+03  0.17209952984E+03 0.  0.
         24    2    5    5    0    0 -0.47693994230E+02 -0.17733448737E+03  0.92309122842E+02  0.21954963162E+03  0.77193452367E+02 0.  0.
          5    1    5    5  501    0  0.50421011854E+02 -0.18074559412E+02  0.66273501854E+02  0.85341872386E+02  0.47000000000E+01 0. -1.
        -13    1    6    6    0    0 -0.33858497940E+02 -0.14834240454E+03  0.10514894798E+03  0.18495450286E+03  0.00000000000E+00 0.  1.
         14    1    6    6    0    0 -0.13835496291E+02 -0.28992082837E+02 -0.12839825135E+02  0.34595128766E+02  0.00000000000E+00 0. -1.
         -5    1    3    3    0  503 -0.67437924451E+02  0.98392861860E+02 -0.22354454065E+03  0.25342312557E+03  0.47000000000E+01 0.  1.
         13    1    4    4    0    0  0.33026916761E+02 -0.41601266258E+01 -0.91141499890E+02  0.97030185440E+02  0.00000000000E+00 0. -1.
        -14    1    4    4    0    0  0.31683990067E+02  0.10117631155E+03 -0.19950162078E+03  0.22592347806E+03  0.00000000000E+00 0.  1.
</event>
<event>
12    1  0.8453150E-002  0.2082632E+03  0.7818608E-02  0.1143040E+00
         21   -1    0    0  503  502  0.00000000000E+00  0.00000000000E+00  0.18368909847E+03  0.18368909847E+03  0.00000000000E+00 0.  1.
         21   -1    0    0  501  503 -0.00000000000E+00 -0.00000000000E+00 -0.41218797484E+03  0.41218797484E+03  0.00000000000E+00 0.  1.
          6    2    1    2  501    0  0.20086750835E+02  0.11255830823E+03 -0.30918380112E+03  0.37253062986E+03  0.17352693450E+03 0.  0.
         24    2    3    3    0    0 -0.43446391599E+02  0.11052078170E+03 -0.19574265115E+03  0.24240916273E+03  0.79652900542E+02 0.  0.
         -6    2    1    2    0  502 -0.20086750835E+02 -0.11255830823E+03  0.80684924739E+02  0.22334644345E+03  0.17407103841E+03 0.  0.
        -24    2    5    5    0    0  0.42616057573E+02 -0.35593293729E+02  0.74125004615E+02  0.12374534812E+03  0.82069384978E+02 0.  0.
          5    1    3    3  501    0  0.63533142435E+02  0.20375265293E+01 -0.11344114996E+03  0.13012146712E+03  0.47000000000E+01 0. -1.
        -11    1    4    4    0    0 -0.13923149431E+02  0.73232837198E+02 -0.51701311084E+02  0.90718951174E+02  0.00000000000E+00 0.  1.
         12    1    4    4    0    0 -0.29523242168E+02  0.37287944502E+02 -0.14404134007E+03  0.15169021156E+03  0.00000000000E+00 0. -1.
         -5    1    5    5    0  502 -0.62702808408E+02 -0.76965014500E+02  0.65599201240E+01  0.99601095332E+02  0.47000000000E+01 0.  1.
         13    1    6    6    0    0  0.75374397392E+01 -0.20985228999E+02  0.81967069151E+02  0.84945825437E+02  0.00000000000E+00 0. -1.
        -14    1    6    6    0    0  0.35078617833E+02 -0.14608064731E+02 -0.78420645357E+01  0.38799522683E+02  0.00000000000E+00 0.  1.
</event>
<event>
12    1  0.8453150E-002  0.2450554E+03  0.7818608E-02  0.1116578E+00
         21   -1    0    0  501  502  0.00000000000E+00  0.00000000000E+00  0.11149390508E+04  0.11149390508E+04  0.00000000000E+00 0.  1.
         21   -1    0    0  502  503 -0.00000000000E+00 -0.00000000000E+00 -0.64796910073E+02  0.64796910073E+02  0.00000000000E+00 0. -1.
         -6    2    1    2    0  503 -0.12863981512E+03 -0.11709792211E+03  0.28054329473E+03  0.37206367462E+03  0.17165870895E+03 0.  0.
        -24    2    3    3    0    0 -0.18509269896E+02 -0.52814585789E+02  0.50894352910E+02  0.10934365102E+03  0.78954577555E+02 0.  0.
          6    2    1    2  501    0  0.12863981512E+03  0.11709792211E+03  0.76959884597E+03  0.80767228622E+03  0.17260362922E+03 0.  0.
         24    2    5    5    0    0  0.11394854667E+03  0.48575708147E+02  0.66833871571E+03  0.68443742445E+03  0.80212707042E+02 0.  0.
          5    1    5    5  501    0  0.14691268455E+02  0.68522213960E+02  0.10126013026E+03  0.12323486177E+03  0.47000000000E+01 0. -1.
        -11    1    6    6    0    0  0.90681839577E+02  0.39862067140E+02  0.31457565414E+03  0.32980300575E+03  0.00000000000E+00 0.  1.
         12    1    6    6    0    0  0.23266707089E+02  0.87136410074E+01  0.35376306157E+03  0.35463441870E+03  0.00000000000E+00 0. -1.
         -5    1    3    3    0  503 -0.11013054523E+03 -0.64283336318E+02  0.22964894182E+03  0.26272002360E+03  0.47000000000E+01 0.  1.
         13    1    4    4    0    0 -0.11472738440E+02 -0.27643872903E+02 -0.18503217326E+02  0.35187732064E+02  0.00000000000E+00 0. -1.
        -14    1    4    4    0    0 -0.70365314562E+01 -0.25170712886E+02  0.69397570236E+02  0.74155918960E+02  0.00000000000E+00 0.  1.
</event>
<event>
12    1  0.8453150E-002  0.2770828E+03  0.7818608E-02  0.1097348E+00
         21   -1    0    0  503  502  0.00000000000E+00  0.00000000000E+00  0.12351060144E+04  0.12351060144E+04  0.00000000000E+00 0. -1.
         21   -1    0    0  501  503 -0.00000000000E+00 -0.00000000000E+00 -0.69207014969E+02  0.69207014969E+02  0.00000000000E+00 0. -1.
          6    2    1    2  501    0 -0.18514844984E+03  0.11277033201E+03  0.37392422389E+03  0.46539681045E+03  0.17256236468E+03 0.  0.
         24    2    3    3    0    0 -0.50056606174E+02  0.48287920273E+02  0.24685576705E+03  0.26898838300E+03  0.81114692860E+02 0.  0.
         -6    2    1    2    0  502  0.18514844984E+03 -0.11277033201E+03  0.79197477557E+03  0.83891621895E+03  0.17192812746E+03 0.  0.
        -24    2    5    5    0    0  0.10216853255E+03 -0.13837676529E+03  0.52886504603E+03  0.56180581518E+03  0.79630388921E+02 0.  0.
          5    1    3    3  501    0 -0.13509184367E+03  0.64482411737E+02  0.12706845684E+03  0.19640842745E+03  0.47000000000E+01 0. -1.
        -11    1    4    4    0    0  0.21512661487E+02  0.20213066400E+02  0.80036311587E+02  0.85306352812E+02  0.00000000000E+00 0.  1.
         12    1    4    4    0    0 -0.71569267662E+02  0.28074853873E+02  0.16681945547E+03  0.18368203019E+03  0.00000000000E+00 0. -1.
         -5    1    5    5    0  502  0.82979917296E+02  0.25606433275E+02  0.26310972954E+03  0.27711040377E+03  0.47000000000E+01 0.  1.
         13    1    6    6    0    0  0.67847180911E+02 -0.29151155701E+02  0.17713751048E+03  0.19191333319E+03  0.00000000000E+00 0. -1.
        -14    1    6    6    0    0  0.34321351636E+02 -0.10922560958E+03  0.35172753555E+03  0.36989248199E+03  0.00000000000E+00 0.  1.
</event>
<event>
12    1  0.8453150E-002  0.1944662E+03  0.7818608E-02  0.1154527E+00
         21   -1    0    0  501  502  0.00000000000E+00  0.00000000000E+00  0.46967971429E+02  0.46967971429E+02  0.00000000000E+00 0.  1.
         21   -1    0    0  502  503 -0.00000000000E+00 -0.00000000000E+00 -0.26905061128E+04  0.26905061128E+04  0.00000000000E+00 0.  1.
         -6    2    1    2    0  503  0.11556321203E+02 -0.89865677460E+02 -0.24678889494E+04  0.24755389213E+04  0.17206886906E+03 0.  0.
        -24    2    3    3    0    0 -0.52668043943E+02 -0.87156947525E+02 -0.15046518104E+04  0.15101478180E+04  0.78734397916E+02 0.  0.
          6    2    1    2  501    0 -0.11556321203E+02  0.89865677460E+02 -0.17564919193E+03  0.26193516290E+03  0.17189532394E+03 0.  0.
         24    2    5    5    0    0 -0.31273097536E+02  0.12300919386E+03 -0.16273721928E+03  0.22099553679E+03  0.79033893592E+02 0.  0.
          5    1    5    5  501    0  0.19716776333E+02 -0.33143516400E+02 -0.12911972642E+02  0.40939626108E+02  0.47000000000E+01 0. -1.
        -13    1    6    6    0    0 -0.25065628906E+02  0.69620801478E+02 -0.33889767249E+02  0.81387087889E+02  0.00000000000E+00 0.  1.
         14    1    6    6    0    0 -0.62074686303E+01  0.53388392382E+02 -0.12884745204E+03  0.13960844890E+03  0.00000000000E+00 0. -1.
         -5    1    3    3    0  503  0.64224365146E+02 -0.27087299347E+01 -0.96323713907E+03  0.96539110332E+03  0.47000000000E+01 0.  1.
         13    1    4    4    0    0 -0.51980184799E+02 -0.14028352999E+02 -0.51841258830E+03  0.52120086916E+03  0.00000000000E+00 0. -1.
        -14    1    4    4    0    0 -0.68785914392E+00 -0.73128594526E+02 -0.98623922207E+03  0.98894694885E+03  0.00000000000E+00 0.  1.
</event>
<event>
12    1  0.8453150E-002  0.1808180E+03  0.7818608E-02  0.1167471E+00
         21   -1    0    0  503  502  0.00000000000E+00  0.00000000000E+00  0.10618090637E+03  0.10618090637E+03  0.00000000000E+00 0. -1.
         21   -1    0    0  501  503 -0.00000000000E+00 -0.00000000000E+00 -0.65708648017E+03  0.65708648017E+03  0.00000000000E+00 0. -1.
          6    2    1    2  501    0 -0.44121831286E+02  0.31047081412E+02 -0.55425232856E+03  0.58241841231E+03  0.17060160030E+03 0.  0.
         24    2    3    3    0    0  0.39706148154E+02  0.34943993843E+02 -0.27635974934E+03  0.29209326415E+03  0.78397085438E+02 0.  0.
         -6    2    1    2    0  502  0.44121831286E+02 -0.31047081412E+02  0.33467547645E+01  0.18084897423E+03  0.17258184567E+03 0.  0.
        -24    2    5    5    0    0  0.76565640341E+01 -0.74316333068E+02  0.34244944192E+02  0.11620586196E+03  0.82155619511E+02 0.  0.
          5    1    3    3  501    0 -0.83827979440E+02 -0.38969124316E+01 -0.27789257923E+03  0.29032514816E+03  0.47000000000E+01 0. -1.
        -11    1    4    4    0    0  0.42775412825E+02  0.46666383124E+02 -0.12373861277E+03  0.13899183986E+03  0.00000000000E+00 0.  1.
         12    1    4    4    0    0 -0.30692646710E+01 -0.11722389281E+02 -0.15262113656E+03  0.15310142430E+03  0.00000000000E+00 0. -1.
         -5    1    5    5    0  502  0.36465267252E+02  0.43269251657E+02 -0.30898189428E+02  0.64643112275E+02  0.47000000000E+01 0.  1.
         11    1    6    6    0    0 -0.28218918450E+02 -0.56613179501E+02  0.41352515094E+02  0.75573738536E+02  0.00000000000E+00 0. -1.
        -12    1    6    6    0    0  0.35875482484E+02 -0.17703153567E+02 -0.71075709023E+01  0.40632123422E+02  0.00000000000E+00 0.  1.
</event>
<event>
12    1  0.8453150E-002  0.2243696E+03  0.7818608E-02  0.1131762E+00
         21   -1    0    0  501  502  0.00000000000E+00  0.00000000000E+00  0.99162195278E+03  0.99162195278E+03  0.00000000000E+00 0.  1.
         21   -1    0    0  502  503 -0.00000000000E+00 -0.00000000000E+00 -0.26492015622E+03  0.26492015622E+03  0.00000000000E+00 0.  1.
         -6    2    1    2    0  503 -0.67276104016E+02 -0.11617529147E+03 -0.20236295437E+03  0.30214645243E+03  0.17977469482E+03 0.  0.
        -24    2    3    3    0    0 -0.27268918241E+02 -0.13264797384E+03 -0.89524962655E+02  0.18120668829E+03  0.80511279197E+02 0.  0.
          6    2    1    2  501    0  0.67276104016E+02  0.11617529147E+03  0.92906475092E+03  0.95439565657E+03  0.17229911594E+03 0.  0.
         24    2    5    5    0    0  0.43861134100E+02  0.14972390426E+03  0.65856555083E+03  0.68077972596E+03  0.73562245345E+02 0.  0.
          5    1    5    5  501    0  0.23414969916E+02 -0.33548612784E+02  0.27049920009E+03  0.27361593061E+03  0.47000000000E+01 0. -1.
        -11    1    6    6    0    0  0.56263198276E+02  0.83268774707E+02  0.31555667937E+03  0.33117254448E+03  0.00000000000E+00 0.  1.
         12    1    6    6    0    0 -0.12402064175E+02  0.66455129551E+02  0.34300887146E+03  0.34960718148E+03  0.00000000000E+00 0. -1.
         -5    1    3    3    0  503 -0.40007185775E+02  0.16472682362E+02 -0.11283799171E+03  0.12093976414E+03  0.47000000000E+01 0.  1.
         13    1    4    4    0    0  0.19993582966E+02 -0.69146002997E+02 -0.68357994498E+02  0.99265948352E+02  0.00000000000E+00 0. -1.
        -14    1    4    4    0    0 -0.47262501207E+02 -0.63501970838E+02 -0.21166968156E+02  0.81940739938E+02  0.00000000000E+00 0.  1.
</event>
<event>
12    1  0.8453150E-002  0.1882503E+03  0.7818608E-02  0.1161529E+00
         21   -1    0    0  501  502  0.00000000000E+00  0.00000000000E+00  0.56760431330E+02  0.56760431330E+02  0.00000000000E+00 0.  1.
         21   -1    0    0  502  503 -0.00000000000E+00 -0.00000000000E+00 -0.62123372489E+03  0.62123372489E+03  0.00000000000E+00 0.  1.
         -6    2    1    2    0  503  0.33266004261E+02  0.62293437453E+02 -0.33493121723E+03  0.38113099032E+03  0.16761507127E+03 0.  0.
        -24    2    3    3    0    0  0.69648360108E+02  0.22160753946E+02 -0.29216761451E+03  0.31195640091E+03  0.81319665625E+02 0.  0.
          6    2    1    2  501    0 -0.33266004261E+02 -0.62293437453E+02 -0.22954207632E+03  0.29686316590E+03  0.17450236409E+03 0.  0.
         24    2    5    5    0    0  0.47336473319E+01 -0.66733280729E+02 -0.58456768096E+02  0.12148939813E+03  0.82865806868E+02 0.  0.
          5    1    5    5  501    0 -0.37999651593E+02  0.44398432758E+01 -0.17108530823E+03  0.17537376777E+03  0.47000000000E+01 0. -1.
        -13    1    6    6    0    0 -0.20079495031E+02 -0.58502616196E+02 -0.69563697620E+02  0.93085177386E+02  0.00000000000E+00 0.  1.
         14    1    6    6    0    0  0.24813142363E+02 -0.82306645328E+01  0.11106929524E+02  0.28404220743E+02  0.00000000000E+00 0. -1.
         -5    1    3    3    0  503 -0.36382355847E+02  0.40132683507E+02 -0.42763602721E+02  0.69174589411E+02  0.47000000000E+01 0.  1.
         11    1    4    4    0    0  0.22951224321E+02 -0.29376301703E+02 -0.13573168225E+03  0.14075800285E+03  0.00000000000E+00 0. -1.
        -12    1    4    4    0    0  0.46697135788E+02  0.51537055649E+02 -0.15643593226E+03  0.17119839806E+03  0.00000000000E+00 0.  1.
</event>
<event>
12    1  0.8453150E-002  0.2035749E+03  0.7818608E-02  0.1150966E+00
         21   -1    0    0  501  502  0.00000000000E+00  0.00000000000E+00  0.22091755967E+03  0.22091755967E+03  0.00000000000E+00 0.  1.
         21   -1    0    0  502  503 -0.00000000000E+00 -0.00000000000E+00 -0.20033248988E+03  0.20033248988E+03  0.00000000000E+00 0.  1.
         -6    2    1    2    0  503  0.61773378256E+02 -0.42908627883E+01  0.92356671115E+02  0.22354527314E+03  0.19392878250E+03 0.  0.
        -24    2    3    3    0    0  0.91037975526E+02 -0.38840556426E+02  0.11793883846E+03  0.17132807990E+03  0.75148117309E+02 0.  0.
          6    2    1    2  501    0 -0.61773378256E+02  0.42908627883E+01 -0.71771601329E+02  0.19770477640E+03  0.17349828267E+03 0.  0.
         24    2    5    5    0    0 -0.75437736015E+02  0.44820546981E+02 -0.91912116251E+02  0.15019582656E+03  0.80070067793E+02 0.  0.
          5    1    5    5  501    0  0.13664357759E+02 -0.40529684192E+02  0.20140514922E+02  0.47508949841E+02  0.47000000000E+01 0. -1.
        -13    1    6    6    0    0 -0.22089231280E+02 -0.18885083166E+02 -0.48258876713E+02  0.56333823643E+02  0.00000000000E+00 0.  1.
         14    1    6    6    0    0 -0.53348504735E+02  0.63705630146E+02 -0.43653239539E+02  0.93862002919E+02  0.00000000000E+00 0. -1.
         -5    1    3    3    0  503 -0.29264597270E+02  0.34549693638E+02 -0.25582167343E+02  0.52217193240E+02  0.47000000000E+01 0.  1.
         11    1    4    4    0    0 -0.78075074735E+01  0.83045722724E+01  0.25817395738E+02  0.28221640921E+02  0.00000000000E+00 0. -1.
        -12    1    4    4    0    0  0.98845483000E+02 -0.47145128699E+02  0.92121442720E+02  0.14310643898E+03  0.00000000000E+00 0.  1.
</event>
<event>
12    1  0.8453150E-002  0.1726847E+03  0.7818608E-02  0.1175157E+00
         21   -1    0    0  503  502  0.00000000000E+00  0.00000000000E+00  0.61286682567E+03  0.61286682567E+03  0.00000000000E+00 0. -1.
         21   -1    0    0  501  503 -0.00000000000E+00 -0.00000000000E+00 -0.70416228688E+02  0.70416228688E+02  0.00000000000E+00 0. -1.
          6    2    1    2  501    0 -0.12864457270E+01 -0.18981249227E+01  0.81095546121E+02  0.19077861849E+03  0.17266944099E+03 0.  0.
         24    2    3    3    0    0 -0.19515988439E+02  0.54025526568E+01  0.12110556792E+03  0.14596223795E+03  0.78919927449E+02 0.  0.
         -6    2    1    2    0  502  0.12864457270E+01  0.18981249227E+01  0.46135505086E+03  0.49250443587E+03  0.17235683500E+03 0.  0.
        -24    2    5    5    0    0 -0.40815535687E+02  0.50524148139E+02  0.22031042342E+03  0.24298155237E+03  0.79276444312E+02 0.  0.
          5    1    3    3  501    0  0.18229542712E+02 -0.73006775794E+01 -0.40010021794E+02  0.44816380538E+02  0.47000000000E+01 0. -1.
        -11    1    4    4    0    0 -0.50204630737E+02  0.29619271681E+01  0.67974714924E+02  0.84556725510E+02  0.00000000000E+00 0.  1.
         12    1    4    4    0    0  0.30688642299E+02  0.24406254886E+01  0.53130852991E+02  0.61405512444E+02  0.00000000000E+00 0. -1.
         -5    1    5    5    0  502  0.42101981414E+02 -0.48626023217E+02  0.24104462744E+03  0.24952288350E+03  0.47000000000E+01 0.  1.
         11    1    6    6    0    0 -0.64911472653E+01  0.64264177393E+02  0.15523504387E+03  0.16813666564E+03  0.00000000000E+00 0. -1.
        -12    1    6    6    0    0 -0.34324388422E+02 -0.13740029253E+02  0.65075379554E+02  0.74844886722E+02  0.00000000000E+00 0.  1.
</event>
<event>
12    1  0.8453150E-002  0.2683859E+03  0.7818608E-02  0.1102349E+00
         21   -1    0    0  501  502  0.00000000000E+00  0.00000000000E+00  0.13193938134E+04  0.13193938134E+04  0.00000000000E+00 0. -1.
         21   -1    0    0  502  503 -0.00000000000E+00 -0.00000000000E+00 -0.10221239734E+03  0.10221239734E+03  0.00000000000E+00 0.  1.
         -6    2    1    2    0  503 -0.13932631330E+03  0.15047573520E+03  0.12301021960E+03  0.29523296258E+03  0.17313641906E+03 0.  0.
        -24    2    3    3    0    0  0.98565071852E+00  0.17503315225E+02  0.57006635682E+02  0.90910485082E+02  0.68612114345E+02 0.  0.
          6    2    1    2  501    0  0.13932631330E+03 -0.15047573520E+03  0.10941711965E+04  0.11263732482E+04  0.17161386468E+03 0.  0.
         24    2    5    5    0    0  0.61516448423E+02 -0.58283808426E+01  0.35071376704E+03  0.36497435694E+03  0.79924285308E+02 0.  0.
          5    1    5    5  501    0  0.77809864876E+02 -0.14464735436E+03  0.74345742946E+03  0.76139889126E+03  0.47000000000E+01 0. -1.
        -11    1    6    6    0    0  0.56920801656E+02  0.17353501802E+01  0.10795558564E+03  0.12205489573E+03  0.00000000000E+00 0.  1.
         12    1    6    6    0    0  0.45956467670E+01 -0.75637310229E+01  0.24275818140E+03  0.24291946121E+03  0.00000000000E+00 0. -1.
         -5    1    3    3    0  503 -0.14031196402E+03  0.13297241998E+03  0.66003583917E+02  0.20432247750E+03  0.47000000000E+01 0.  1.
         11    1    4    4    0    0  0.45043057078E+01 -0.23541731264E+02  0.39383156413E+02  0.46103523617E+02  0.00000000000E+00 0. -1.
        -12    1    4    4    0    0 -0.35186549893E+01  0.41045046489E+02  0.17623479269E+02  0.44806961465E+02  0.00000000000E+00 0.  1.
</event>
<event>
12    1  0.8453150E-002  0.1963811E+03  0.7818608E-02  0.1153167E+00
         21   -1    0    0  503  502  0.00000000000E+00  0.00000000000E+00  0.52639849361E+03  0.52639849361E+03  0.00000000000E+00 0.  1.
         21   -1    0    0  501  503 -0.00000000000E+00 -0.00000000000E+00 -0.14661833305E+03  0.14661833305E+03  0.00000000000E+00 0.  1.
          6    2    1    2  501    0 -0.44562107674E+02  0.82206632708E+02 -0.49445430045E+02  0.20099971555E+03  0.17091612913E+03 0.  0.
         24    2    3    3    0    0 -0.20930468476E+02 -0.12220888405E+02  0.26351884894E+02  0.77539867557E+02  0.68779172714E+02 0.  0.
         -6    2    1    2    0  502  0.44562107674E+02 -0.82206632708E+02  0.42922559061E+03  0.47201711111E+03  0.17268999290E+03 0.  0.
        -24    2    5    5    0    0 -0.27016332909E+02 -0.84118975467E+02  0.20400678439E+03  0.23564297782E+03  0.78121448044E+02 0.  0.
          5    1    3    3  501    0 -0.23631639198E+02  0.94427521113E+02 -0.75797314939E+02  0.12345984799E+03  0.47000000000E+01 0. -1.
        -13    1    4    4    0    0  0.74613102605E+00  0.79679988052E+01 -0.20557635283E+02  0.22060418965E+02  0.00000000000E+00 0.  1.
         14    1    4    4    0    0 -0.21676599502E+02 -0.20188887211E+02  0.46909520177E+02  0.55479448592E+02  0.00000000000E+00 0. -1.
         -5    1    5    5    0  502  0.71578440583E+02  0.19123427596E+01  0.22521880622E+03  0.23637413329E+03  0.47000000000E+01 0.  1.
         13    1    6    6    0    0 -0.32186661439E+00 -0.15239419529E+02 -0.32755725846E+01  0.15590794766E+02  0.00000000000E+00 0. -1.
        -14    1    6    6    0    0 -0.26694466294E+02 -0.68879555939E+02  0.20728235697E+03  0.22005218306E+03  0.00000000000E+00 0.  1.
</event>
<event>
12    1  0.8453150E-002  0.1930491E+03  0.7818608E-02  0.1155773E+00
         21   -1    0    0  501  502  0.00000000000E+00  0.00000000000E+00  0.75238440561E+03  0.75238440561E+03  0.00000000000E+00 0.  1.
         21   -1    0    0  502  503 -0.00000000000E+00 -0.00000000000E+00 -0.68561674887E+02  0.68561674887E+02  0.00000000000E+00 0.  1.
         -6    2    1    2    0  503 -0.85844746266E+02  0.71469384103E+01  0.12554135161E+03  0.23027937880E+03  0.17276447014E+03 0.  0.
        -24    2    3    3    0    0 -0.11351944166E+02  0.36032579348E+02  0.87751728300E+01  0.88716713082E+02  0.79789962470E+02 0.  0.
          6    2    1    2  501    0  0.85844746266E+02 -0.71469384103E+01  0.55828137912E+03  0.59066670170E+03  0.17259390210E+03 0.  0.
         24    2    5    5    0    0  0.12601448683E+03 -0.14080750598E+02  0.47665722679E+03  0.49930873515E+03  0.77647812098E+02 0.  0.
          5    1    5    5  501    0 -0.40169740567E+02  0.69338121878E+01  0.81624152329E+02  0.91357966550E+02  0.47000000000E+01 0. -1.
        -13    1    6    6    0    0  0.10533632679E+03  0.20556486750E+02  0.37103581500E+03  0.38624588917E+03  0.00000000000E+00 0.  1.
         14    1    6    6    0    0  0.20678160046E+02 -0.34637237348E+02  0.10562141179E+03  0.11306284599E+03  0.00000000000E+00 0. -1.
         -5    1    3    3    0  503 -0.74492802100E+02 -0.28885640938E+02  0.11676617878E+03  0.14156266571E+03  0.47000000000E+01 0.  1.
         13    1    4    4    0    0  0.11287170800E+02 -0.37497597124E+01  0.34303026447E+02  0.36306453228E+02  0.00000000000E+00 0. -1.
        -14    1    4    4    0    0 -0.22639114966E+02  0.39782339061E+02 -0.25527853617E+02  0.52410259853E+02  0.00000000000E+00 0.  1.
</event>
<event>
12    1  0.8453150E-002  0.2660237E+03  0.7818608E-02  0.1103630E+00
         21   -1    0    0  503  502  0.00000000000E+00  0.00000000000E+00  0.62498634338E+03  0.62498634338E+03  0.00000000000E+00 0.  1.
         21   -1    0    0  501  503 -0.00000000000E+00 -0.00000000000E+00 -0.11309013854E+03  0.11309013854E+03  0.00000000000E+00 0.  1.
          6    2    1    2  501    0  0.19768643853E+03  0.45719387532E+02  0.25184410522E+03  0.36606071709E+03  0.17147829276E+03 0.  0.
         24    2    3    3    0    0  0.17134134231E+03  0.92141489244E+02  0.21864373532E+03  0.30302556671E+03  0.78558904398E+02 0.  0.
         -6    2    1    2    0  502 -0.19768643853E+03 -0.45719387532E+02  0.26005209962E+03  0.37201576483E+03  0.17204198438E+03 0.  0.
        -24    2    5    5    0    0 -0.52384119412E+02 -0.62002818867E+02  0.74487255113E+02  0.13572290503E+03  0.79271118704E+02 0.  0.
          5    1    3    3  501    0  0.26345096218E+02 -0.46422101712E+02  0.33200369902E+02  0.63035150382E+02  0.47000000000E+01 0. -1.
        -13    1    4    4    0    0  0.55105200360E+02  0.44729698778E+01  0.24794347026E+02  0.60591667832E+02  0.00000000000E+00 0.  1.
         14    1    4    4    0    0  0.11623614196E+03  0.87668519366E+02  0.19384938829E+03  0.24243389888E+03  0.00000000000E+00 0. -1.
         -5    1    5    5    0  502 -0.14530231912E+03  0.16283431335E+02  0.18556484450E+03  0.23629285980E+03  0.47000000000E+01 0.  1.
         11    1    6    6    0    0 -0.23635027797E+02 -0.41895328092E+02 -0.54652789208E+01  0.48411799477E+02  0.00000000000E+00 0. -1.
        -12    1    6    6    0    0 -0.28749091615E+02 -0.20107490775E+02  0.79952534033E+02  0.87311105550E+02  0.00000000000E+00 0.  1.
</event>
<event>
12    1  0.8453150E-002  0.2296067E+03  0.7818608E-02  0.1127161E+00
         21   -1    0    0  501  502  0.00000000000E+00  0.00000000000E+00  0.15967139836E+03  0.15967139836E+03  0.00000000000E+00 0. -1.
         21   -1    0    0  502  503 -0.00000000000E+00 -0.00000000000E+00 -0.32824631313E+03  0.32824631313E+03  0.00000000000E+00 0.  1.
         -6    2    1    2    0  503  0.13960660725E+03 -0.59209070543E+02 -0.87573960145E+02  0.24574059343E+03  0.17240510996E+03 0.  0.
        -24    2    3    3    0    0  0.92446366308E+01  0.16271444703E+02 -0.35609974712E+02  0.86323225028E+02  0.76376735077E+02 0.  0.
          6    2    1    2  501    0 -0.13960660725E+03  0.59209070543E+02 -0.81000954620E+02  0.24217711806E+03  0.17056635963E+03 0.  0.
         24    2    5    5    0    0 -0.51542434065E+02  0.91770980827E+02 -0.60887044574E+02  0.14604056945E+03  0.80883127396E+02 0.  0.
          5    1    5    5  501    0 -0.88064173187E+02 -0.32561910284E+02 -0.20113910045E+02  0.96136548605E+02  0.47000000000E+01 0. -1.
        -13    1    6    6    0    0  0.11077047186E+02  0.70356174160E+01 -0.35236341875E+02  0.37600540894E+02  0.00000000000E+00 0.  1.
         14    1    6    6    0    0 -0.62619481251E+02  0.84735363411E+02 -0.25650702699E+02  0.10844002856E+03  0.00000000000E+00 0. -1.
         -5    1    3    3    0  503  0.13036197062E+03 -0.75480515246E+02 -0.51963985433E+02  0.15941736840E+03  0.47000000000E+01 0.  1.
         13    1    4    4    0    0  0.17652535861E+02 -0.26767098002E+02 -0.41013989274E+01  0.32325083619E+02  0.00000000000E+00 0. -1.
        -14    1    4    4    0    0 -0.84078992302E+01  0.43038542706E+02 -0.31508575784E+02  0.53998141409E+02  0.00000000000E+00 0.  1.
</event>
<event>
12    1  0.8453150E-002  0.2376422E+03  0.7818608E-02  0.1124402E+00
         21   -1    0    0  501  502  0.00000000000E+00  0.00000000000E+00  0.49233041815E+03  0.49233041815E+03  0.00000000000E+00 0. -1.
         21   -1    0    0  502  503 -0.00000000000E+00 -0.00000000000E+00 -0.23717095339E+03  0.23717095339E+03  0.00000000000E+00 0. -1.
         -6    2    1    2    0  503 -0.13684860643E+03 -0.33529262087E+01 -0.14519831597E+03  0.26392629108E+03  0.17273028965E+03 0.  0.
        -24    2    3    3    0    0 -0.13360280001E+03  0.45844073325E+02 -0.14050717714E+03  0.21417715233E+03  0.78601517300E+02 0.  0.
          6    2    1    2  501    0  0.13684860643E+03  0.33529262087E+01  0.40035778073E+03  0.46557508046E+03  0.19425503792E+03 0.  0.
         24    2    5    5    0    0  0.83683506958E+02  0.19766568835E+02  0.81980205150E+02  0.14233785164E+03  0.78394281625E+02 0.  0.
          5    1    5    5  501    0  0.53165099476E+02 -0.16413642626E+02  0.31837757558E+03  0.32323722883E+03  0.47000000000E+01 0. -1.
        -13    1    6    6    0    0 -0.13002777661E+02 -0.80635169884E+01  0.15288404696E+02  0.21629328498E+02  0.00000000000E+00 0.  1.
         14    1    6    6    0    0  0.96686284618E+02  0.27830085823E+02  0.66691800455E+02  0.12070852314E+03  0.00000000000E+00 0. -1.
         -5    1    3    3    0  503 -0.32458064218E+01 -0.49196999534E+02 -0.46911388273E+01  0.49749138746E+02  0.47000000000E+01 0.  1.
         13    1    4    4    0    0 -0.13457485588E+03  0.21301414663E+02 -0.12639942439E+03  0.18585197493E+03  0.00000000000E+00 0. -1.
        -14    1    4    4    0    0  0.97205586607E+00  0.24542658663E+02 -0.14107752759E+02  0.28325177400E+02  0.00000000000E+00 0.  1.
</event>
<event>
12    1  0.8453150E-002  0.2050367E+03  0.7818608E-02  0.1145613E+00
         21   -1    0    0  501  502  0.00000000000E+00  0.00000000000E+00  0.65649639892E+03  0.65649639892E+03  0.00000000000E+00 0. -1.
         21   -1    0    0  502  503 -0.00000000000E+00 -0.00000000000E+00 -0.10185104378E+03  0.10185104378E+03  0.00000000000E+00 0. -1.
         -6    2    1    2    0  503 -0.11040492164E+03  0.22447779508E+02  0.46142472215E+02  0.21016460921E+03  0.17130932752E+03 0.  0.
        -24    2    3    3    0    0 -0.93746428776E+02  0.60948644715E+02  0.76947642228E+02  0.15790687767E+03  0.80687744860E+02 0.  0.
          6    2    1    2  501    0  0.11040492164E+03 -0.22447779508E+02  0.50850288292E+03  0.54818283348E+03  0.17098563523E+03 0.  0.
         24    2    5    5    0    0  0.10718744577E+02 -0.55765217767E+02  0.26792218999E+03  0.28560228317E+03  0.81004402747E+02 0.  0.
          5    1    5    5  501    0  0.99686177068E+02  0.33317438259E+02  0.24058069293E+03  0.26258055031E+03  0.47000000000E+01 0. -1.
        -13    1    6    6    0    0 -0.10795783375E+02  0.16838571443E+02  0.31179449444E+02  0.37043818574E+02  0.00000000000E+00 0.  1.
         14    1    6    6    0    0  0.21514527952E+02 -0.72603789209E+02  0.23674274055E+03  0.24855846459E+03  0.00000000000E+00 0. -1.
         -5    1    3    3    0  503 -0.16658492869E+02 -0.38500865208E+02 -0.30805170013E+02  0.52257731542E+02  0.47000000000E+01 0.  1.
         11    1    4    4    0    0 -0.10183587028E+03  0.41903311127E+02  0.43138382536E+02  0.11826813606E+03  0.00000000000E+00 0. -1.
        -12    1    4    4    0    0  0.80894415081E+01  0.19045333589E+02  0.33809259693E+02  0.39638741609E+02  0.00000000000E+00 0.  1.
</event>
<event>
12    1  0.8453150E-002  0.3275185E+03  0.7818608E-02  0.1072339E+00
         21   -1    0    0  503  502  0.00000000000E+00  0.00000000000E+00  0.13493198868E+03  0.13493198868E+03  0.00000000000E+00 0. -1.
         21   -1    0    0  501  503 -0.00000000000E+00 -0.00000000000E+00 -0.19806683683E+04  0.19806683683E+04  0.00000000000E+00 0.  1.
          6    2    1    2  501    0  0.25530958917E+03  0.10942509487E+03 -0.17415414209E+04  0.17719072688E+04  0.17184880199E+03 0.  0.
         24    2    3    3    0    0  0.65621943457E+02  0.30914503223E+02 -0.85572416822E+03  0.86260005388E+03  0.80950941294E+02 0.  0.
         -6    2    1    2    0  502 -0.25530958917E+03 -0.10942509487E+03 -0.10419495871E+03  0.34369308818E+03  0.17352668881E+03 0.  0.
        -24    2    5    5    0    0 -0.20990926616E+03 -0.14680149128E+03 -0.90519997995E+02  0.28313502604E+03  0.79743307384E+02 0.  0.
          5    1    3    3  501    0  0.18968764572E+03  0.78510591643E+02 -0.88581725265E+03  0.90930721488E+03  0.47000000000E+01 0. -1.
        -13    1    4    4    0    0  0.38336347046E+01  0.44969204490E+02 -0.38186172280E+03  0.38451957225E+03  0.00000000000E+00 0.  1.
         14    1    4    4    0    0  0.61788308752E+02 -0.14054701268E+02 -0.47386244543E+03  0.47808048163E+03  0.00000000000E+00 0. -1.
         -5    1    5    5    0  502 -0.45400323014E+02  0.37376396417E+02 -0.13674960711E+02  0.60558062133E+02  0.47000000000E+01 0.  1.
         13    1    6    6    0    0 -0.79237635985E+02 -0.38569355449E+02  0.52799365002E+01  0.88284063487E+02  0.00000000000E+00 0. -1.
        -14    1    6    6    0    0 -0.13067163017E+03 -0.10823213583E+03 -0.95799934495E+02  0.19485096256E+03  0.00000000000E+00 0.  1.
</event>
<event>
12    1  0.8453150E-002  0.2893833E+03  0.7818608E-02  0.1091157E+00
         21   -1    0    0  501  502  0.00000000000E+00  0.00000000000E+00  0.99463926072E+03  0.99463926072E+03  0.00000000000E+00 0.  1.
         21   -1    0    0  502  503 -0.00000000000E+00 -0.00000000000E+00 -0.12187133133E+03  0.12187133133E+03  0.00000000000E+00 0.  1.
         -6    2    1    2    0  503 -0.22893870225E+03 -0.44822322073E+02  0.11971312802E+03  0.30976761522E+03  0.16493263011E+03 0.  0.
        -24    2    3    3    0    0 -0.24804634442E+03 -0.42365441106E+02  0.10061332469E+03  0.28223525714E+03  0.78815478721E+02 0.  0.
          6    2    1    2  501    0  0.22893870225E+03  0.44822322073E+02  0.75305480137E+03  0.80674297684E+03  0.17123296086E+03 0.  0.
         24    2    5    5    0    0  0.16023486674E+03  0.95304543459E+02  0.55543611305E+03  0.59146662501E+03  0.81026688761E+02 0.  0.
          5    1    5    5  501    0  0.68703835501E+02 -0.50482221385E+02  0.19761868832E+03  0.21527635184E+03  0.47000000000E+01 0. -1.
        -13    1    6    6    0    0  0.33200314980E+02 -0.10250231841E+02  0.14363086037E+03  0.14777399033E+03  0.00000000000E+00 0.  1.
         14    1    6    6    0    0  0.12703455176E+03  0.10555477530E+03  0.41180525268E+03  0.44369263467E+03  0.00000000000E+00 0. -1.
         -5    1    3    3    0  503  0.19107642179E+02 -0.24568809676E+01  0.19099803335E+02  0.27532358075E+02  0.47000000000E+01 0.  1.
         11    1    4    4    0    0 -0.14055443826E+03 -0.42228865049E+02  0.20528092997E+02  0.14818984365E+03  0.00000000000E+00 0. -1.
        -12    1    4    4    0    0 -0.10749190617E+03 -0.13657605727E+00  0.80085231691E+02  0.13404541350E+03  0.00000000000E+00 0.  1.
</event>
<event>
12    1  0.8453150E-002  0.2429768E+03  0.7818608E-02  0.1120632E+00
         21   -1    0    0  501  502  0.00000000000E+00  0.00000000000E+00  0.64435341754E+03  0.64435341754E+03  0.00000000000E+00 0. -1.
         21   -1    0    0  502  503 -0.00000000000E+00 -0.00000000000E+00 -0.12587067275E+03  0.12587067275E+03  0.00000000000E+00 0. -1.
         -6    2    1    2    0  503  0.13924030867E+03 -0.44437725976E+02  0.35074087708E+02  0.22918649782E+03  0.17301353736E+03 0.  0.
        -24    2    3    3    0    0  0.58401890991E+02 -0.87704253475E+02  0.33394850877E+01  0.13204733385E+03  0.79514333720E+02 0.  0.
          6    2    1    2  501    0 -0.13924030867E+03  0.44437725976E+02  0.48340865708E+03  0.54103759247E+03  0.19410093166E+03 0.  0.
         24    2    5    5    0    0 -0.72598421848E+02 -0.48943127357E+02  0.33028169688E+03  0.34964511407E+03  0.74160271881E+02 0.  0.
          5    1    5    5  501    0 -0.66641886818E+02  0.93380853332E+02  0.15312696020E+03  0.19139247840E+03  0.47000000000E+01 0. -1.
        -11    1    6    6    0    0 -0.22612603915E+01  0.36869385124E+01 -0.28140221626E+01  0.51599936903E+01  0.00000000000E+00 0.  1.
         12    1    6    6    0    0 -0.70337161457E+02 -0.52630065869E+02  0.33309571905E+03  0.34448512038E+03  0.00000000000E+00 0. -1.
         -5    1    3    3    0  503  0.80838417675E+02  0.43266527499E+02  0.31734602620E+02  0.97139163974E+02  0.47000000000E+01 0.  1.
         11    1    4    4    0    0  0.76172408305E+02 -0.55006662676E+02  0.90704530135E+01  0.94394077376E+02  0.00000000000E+00 0. -1.
        -12    1    4    4    0    0 -0.17770517314E+02 -0.32697590799E+02 -0.57309679259E+01  0.37653256473E+02  0.00000000000E+00 0.  1.
</event>
<event>
12    1  0.8453150E-002  0.2093589E+03  0.7818608E-02  0.1142119E+00
         21   -1    0    0  501  502  0.00000000000E+00  0.00000000000E+00  0.53776364043E+02  0.53776364043E+02  0.00000000000E+00 0. -1.
         21   -1    0    0  502  503 -0.00000000000E+00 -0.00000000000E+00 -0.82005876234E+03  0.82005876234E+03  0.00000000000E+00 0. -1.
         -6    2    1    2    0  503 -0.10811877962E+03 -0.47966187123E+02 -0.34600202191E+03  0.40429626543E+03  0.17247505752E+03 0.  0.
        -24    2    3    3    0    0 -0.91409343524E+02 -0.17870651723E+02 -0.34890298580E+03  0.36943293087E+03  0.77925404296E+02 0.  0.
          6    2    1    2  501    0  0.10811877962E+03  0.47966187123E+02 -0.42028037639E+03  0.46953886095E+03  0.17274467155E+03 0.  0.
         24    2    5    5    0    0  0.47669962547E+02  0.88645175072E+02 -0.32528767088E+03  0.34972841213E+03  0.79796622938E+02 0.  0.
          5    1    5    5  501    0  0.60448817072E+02 -0.40678987949E+02 -0.94992705505E+02  0.11981044881E+03  0.47000000000E+01 0. -1.
        -11    1    6    6    0    0  0.35164248608E+01  0.73923338886E+02 -0.25424434077E+03  0.26479654470E+03  0.00000000000E+00 0.  1.
         12    1    6    6    0    0  0.44153537686E+02  0.14721836186E+02 -0.71043330115E+02  0.84931867427E+02  0.00000000000E+00 0. -1.
         -5    1    3    3    0  503 -0.16709436094E+02 -0.30095535401E+02  0.29009638886E+01  0.34863334567E+02  0.47000000000E+01 0.  1.
         13    1    4    4    0    0 -0.10236720938E+03 -0.54103884716E+01 -0.27002101431E+03  0.28882462850E+03  0.00000000000E+00 0. -1.
        -14    1    4    4    0    0  0.10957865860E+02 -0.12460263251E+02 -0.78881971484E+02  0.80608302362E+02  0.00000000000E+00 0.  1.
</event>
<event>
12    1  0.8453150E-002  0.1795915E+03  0.7818608E-02  0.1168229E+00
         21   -1    0    0  503  502  0.00000000000E+00  0.00000000000E+00  0.12849095423E+03  0.12849095423E+03  0.00000000000E+00 0. -1.
         21   -1    0    0  501  503 -0.00000000000E+00 -0.00000000000E+00 -0.25649249429E+03  0.25649249429E+03  0.00000000000E+00 0. -1.
          6    2    1    2  501    0  0.81086234562E+01 -0.52775975226E+02 -0.92597799075E+02  0.20205805067E+03  0.17147026013E+03 0.  0.
         24    2    3    3    0    0 -0.46063310091E+02  0.12997443152E+02 -0.47212800708E+02  0.10540077455E+03  0.81175813273E+02 0.  0.
         -6    2    1    2    0  502 -0.81086234562E+01  0.52775975226E+02 -0.35403740980E+02  0.18292539785E+03  0.17133949623E+03 0.  0.
        -24    2    5    5    0    0 -0.65981100457E+02  0.57506282013E+02 -0.11544701128E+02  0.11997348621E+03  0.81239640456E+02 0.  0.
          5    1    3    3  501    0  0.54171933547E+02 -0.65773418377E+02 -0.45384998367E+02  0.96657276115E+02  0.47000000000E+01 0. -1.
        -13    1    4    4    0    0  0.51171449894E+01  0.24468274718E+02 -0.46675419118E+02  0.52947864833E+02  0.00000000000E+00 0.  1.
         14    1    4    4    0    0 -0.51180455080E+02 -0.11470831566E+02 -0.53738158967E+00  0.52452909719E+02  0.00000000000E+00 0. -1.
         -5    1    5    5    0  502  0.57872477001E+02 -0.47303067870E+01 -0.23859039852E+02  0.62951911640E+02  0.47000000000E+01 0.  1.
         13    1    6    6    0    0  0.12887694330E+02  0.33756962162E+02 -0.10393268069E+02  0.37598473117E+02  0.00000000000E+00 0. -1.
        -14    1    6    6    0    0 -0.78868794786E+02  0.23749319851E+02 -0.11514330590E+01  0.82375013096E+02  0.00000000000E+00 0.  1.
</event>
<event>
12    1  0.8453150E-002  0.2181570E+03  0.7818608E-02  0.1137427E+00
         21   -1    0    0  501  502  0.00000000000E+00  0.00000000000E+00  0.16770957205E+03  0.16770957205E+03  0.00000000000E+00 0.  1.
         21   -1    0    0  502  503 -0.00000000000E+00 -0.00000000000E+00 -0.34863681022E+03  0.34863681022E+03  0.00000000000E+00 0.  1.
         -6    2    1    2    0  503 -0.11575426519E+03  0.11021899456E+02  0.30710287199E+02  0.22030796072E+03  0.18458587064E+03 0.  0.
        -24    2    3    3    0    0 -0.13883377459E+03 -0.27028190850E+02  0.52303063244E+02  0.17062082854E+03  0.79815516283E+02 0.  0.
          6    2    1    2  501    0  0.11575426519E+03 -0.11021899456E+02 -0.21163752538E+03  0.29603842155E+03  0.17125353342E+03 0.  0.
         24    2    5    5    0    0 -0.68414146859E+01  0.91619389943E+01 -0.56937732386E+02  0.97566247154E+02  0.78399752126E+02 0.  0.
          5    1    5    5  501    0  0.12259567987E+03 -0.20183838450E+02 -0.15469979299E+03  0.19847217440E+03  0.47000000000E+01 0. -1.
        -11    1    6    6    0    0 -0.93653708308E+01  0.14569652164E+02 -0.75814949402E+02  0.77768190720E+02  0.00000000000E+00 0.  1.
         12    1    6    6    0    0  0.25239561450E+01 -0.54077131693E+01  0.18877217016E+02  0.19798056435E+02  0.00000000000E+00 0. -1.
         -5    1    3    3    0  503  0.23079509405E+02  0.38050090306E+02 -0.21592776046E+02  0.49687132177E+02  0.47000000000E+01 0.  1.
         11    1    4    4    0    0 -0.35194348309E+02 -0.25537221576E+01 -0.21256449508E+02  0.41194663434E+02  0.00000000000E+00 0. -1.
        -12    1    4    4    0    0 -0.10363942628E+03 -0.24474468692E+02  0.73559512753E+02  0.12942616511E+03  0.00000000000E+00 0.  1.
</event>
<event>
12    1  0.8453150E-002  0.2012180E+03  0.7818608E-02  0.1148990E+00
         21   -1    0    0  501  502  0.00000000000E+00  0.00000000000E+00  0.14416974802E+03  0.14416974802E+03  0.00000000000E+00 0.  1.
         21   -1    0    0  502  503 -0.00000000000E+00 -0.00000000000E+00 -0.28378682878E+03  0.28378682878E+03  0.00000000000E+00 0.  1.
         -6    2    1    2    0  503 -0.87299659265E+02  0.57724987700E+02 -0.41840968441E+02  0.20424052852E+03  0.17032358068E+03 0.  0.
        -24    2    3    3    0    0  0.10317812387E+02  0.64686091307E+01  0.11124916750E+02  0.81831941770E+02  0.80152372171E+02 0.  0.
          6    2    1    2  501    0  0.87299659265E+02 -0.57724987700E+02 -0.97776112319E+02  0.22371604828E+03  0.17185836437E+03 0.  0.
         24    2    5    5    0    0  0.10607273790E+03 -0.38847445394E+01 -0.10344889802E+03  0.16622282465E+03  0.75245172383E+02 0.  0.
          5    1    5    5  501    0 -0.18773078639E+02 -0.53840243161E+02  0.56727857038E+01  0.57493223626E+02  0.47000000000E+01 0. -1.
        -13    1    6    6    0    0  0.79074598197E+02 -0.30901116346E+02 -0.94420951749E+02  0.12697632535E+03  0.00000000000E+00 0.  1.
         14    1    6    6    0    0  0.26998139707E+02  0.27016371807E+02 -0.90279462745E+01  0.39246499299E+02  0.00000000000E+00 0. -1.
         -5    1    3    3    0  503 -0.97617471652E+02  0.51256378570E+02 -0.52965885191E+02  0.12240858675E+03  0.47000000000E+01 0.  1.
         11    1    4    4    0    0 -0.16427231781E+02 -0.24650253969E+02  0.24744852834E+02  0.38597884742E+02  0.00000000000E+00 0. -1.
        -12    1    4    4    0    0  0.26745044168E+02  0.31118863100E+02 -0.13619936085E+02  0.43234057028E+02  0.00000000000E+00 0.  1.
</event>
<event>
12    1  0.8453150E-002  0.1949036E+03  0.7818608E-02  0.1154270E+00
         21   -1    0    0  503  502  0.00000000000E+00  0.00000000000E+00  0.14609381886E+03  0.14609381886E+03  0.00000000000E+00 0. -1.
         21   -1    0    0  501  503 -0.00000000000E+00 -0.00000000000E+00 -0.30159780452E+03  0.30159780452E+03  0.00000000000E+00 0. -1.
          6    2    1    2  501    0  0.56509053543E+02 -0.69183397455E+02 -0.16170055121E+03  0.25268949641E+03  0.17241025989E+03 0.  0.
         24    2    3    3    0    0  0.69834478155E+01 -0.35412540776E+02 -0.17036355898E+03  0.19194088254E+03  0.80713961457E+02 0.  0.
         -6    2    1    2    0  502 -0.56509053543E+02  0.69183397455E+02  0.61965655428E+01  0.19500212697E+03  0.17322764353E+03 0.  0.
        -24    2    5    5    0    0 -0.16180049539E+02  0.10668480740E+03 -0.14838326050E+02  0.13586380626E+03  0.81211795941E+02 0.  0.
          5    1    3    3  501    0  0.49525605728E+02 -0.33770856679E+02  0.86630077672E+01  0.60748613870E+02  0.47000000000E+01 0. -1.
        -13    1    4    4    0    0  0.17070509602E+02  0.12858975411E+02 -0.89639381262E+01  0.23175584856E+02  0.00000000000E+00 0.  1.
         14    1    4    4    0    0 -0.10087061786E+02 -0.48271516187E+02 -0.16139962085E+03  0.16876529768E+03  0.00000000000E+00 0. -1.
         -5    1    5    5    0  502 -0.40329004004E+02 -0.37501409944E+02  0.21034891593E+02  0.59138320707E+02  0.47000000000E+01 0.  1.
         13    1    6    6    0    0 -0.51523906455E+01  0.89988380253E+02 -0.44154655491E+02  0.10036976293E+03  0.00000000000E+00 0. -1.
        -14    1    6    6    0    0 -0.11027658894E+02  0.16696427146E+02  0.29316329440E+02  0.35494043331E+02  0.00000000000E+00 0.  1.
</event>
<event>
12    1  0.8453150E-002  0.2843655E+03  0.7818608E-02  0.1093534E+00
         21   -1    0    0  503  502  0.00000000000E+00  0.00000000000E+00  0.26219292585E+03  0.26219292585E+03  0.00000000000E+00 0.  1.
         21   -1    0    0  501  503 -0.00000000000E+00 -0.00000000000E+00 -0.30819364606E+03  0.30819364606E+03  0.00000000000E+00 0.  1.
          6    2    1    2  501    0 -0.80338536589E+01 -0.22593996606E+03 -0.34190289534E+01  0.28285059237E+03  0.16993927380E+03 0.  0.
         24    2    3    3    0    0  0.14103961654E+02 -0.34234447871E+02 -0.95061024223E+01  0.89717915090E+02  0.81166613515E+02 0.  0.
         -6    2    1    2    0  502  0.80338536589E+01  0.22593996606E+03 -0.42581691262E+02  0.28753597954E+03  0.17248283401E+03 0.  0.
        -24    2    5    5    0    0  0.17610922698E+02  0.17622641414E+03 -0.92923080728E+02  0.21598527731E+03  0.81541691440E+02 0.  0.
          5    1    3    3  501    0 -0.22137815313E+02 -0.19170551819E+03  0.60870734689E+01  0.19313267728E+03  0.47000000000E+01 0. -1.
        -13    1    4    4    0    0  0.98657920186E+01 -0.57793486800E+02 -0.22116391890E+02  0.62662235508E+02  0.00000000000E+00 0.  1.
         14    1    4    4    0    0  0.42381696356E+01  0.23559038929E+02  0.12610289468E+02  0.27055679581E+02  0.00000000000E+00 0. -1.
         -5    1    5    5    0  502 -0.95770690389E+01  0.49713551922E+02  0.50341389467E+02  0.71550702229E+02  0.47000000000E+01 0.  1.
         11    1    6    6    0    0  0.18570488210E+02  0.27226793800E+02  0.10520193178E+02  0.34595314675E+02  0.00000000000E+00 0. -1.
        -12    1    6    6    0    0 -0.95956551175E+00  0.14899962034E+03 -0.10344327391E+03  0.18138996263E+03  0.00000000000E+00 0.  1.
</event>
<event>
12    1  0.8453150E-002  0.2052473E+03  0.7818608E-02  0.1148399E+00
         21   -1    0    0  501  502  0.00000000000E+00  0.00000000000E+00  0.33540494909E+03  0.33540494909E+03  0.00000000000E+00 0. -1.
         21   -1    0    0  502  503 -0.00000000000E+00 -0.00000000000E+00 -0.15707582506E+03  0.15707582506E+03  0.00000000000E+00 0.  1.
         -6    2    1    2    0  503  0.63686307277E+02  0.25741162009E+02 -0.32696440929E+02  0.20783528746E+03  0.19341121040E+03 0.  0.
        -24    2    3    3    0    0  0.11389882778E+03  0.50359818935E+02 -0.36022557550E+02  0.15161670925E+03  0.78619002411E+02 0.  0.
          6    2    1    2  501    0 -0.63686307277E+02 -0.25741162009E+02  0.21102556496E+03  0.28464548669E+03  0.17824901366E+03 0.  0.
         24    2    5    5    0    0 -0.91914745720E+02 -0.21172142907E+02  0.22168749604E+03  0.25376689464E+03  0.79722711924E+02 0.  0.
          5    1    5    5  501    0  0.28228438442E+02 -0.45690191023E+01 -0.10661931086E+02  0.30878592049E+02  0.47000000000E+01 0. -1.
        -13    1    6    6    0    0 -0.57069947095E+02 -0.27777707273E+02  0.57015470003E+02  0.85319069981E+02  0.00000000000E+00 0.  1.
         14    1    6    6    0    0 -0.34844798625E+02  0.66055643657E+01  0.16467202604E+03  0.16844782466E+03  0.00000000000E+00 0. -1.
         -5    1    3    3    0  503 -0.50212520499E+02 -0.24618656925E+02  0.33261166210E+01  0.56218578205E+02  0.47000000000E+01 0.  1.
         13    1    4    4    0    0  0.63670268338E+01  0.36636981724E+02  0.60826331574E+00  0.37191093622E+02  0.00000000000E+00 0. -1.
        -14    1    4    4    0    0  0.10753180094E+03  0.13722837211E+02 -0.36630820866E+02  0.11442561563E+03  0.00000000000E+00 0.  1.
</event>
<event>
12    1  0.8453150E-002  0.2678119E+03  0.7818608E-02  0.1102613E+00
         21   -1    0    0  501  502  0.00000000000E+00  0.00000000000E+00  0.35843681833E+03  0.35843681833E+03  0.00000000000E+00 0. -1.
         21   -1    0    0  502  503 -0.00000000000E+00 -0.00000000000E+00 -0.70290977958E+03  0.70290977958E+03  0.00000000000E+00 0. -1.
         -6    2    1    2    0  503 -0.17145476924E+03 -0.11279749072E+03 -0.62128354051E+03  0.67654746734E+03  0.17205588060E+03 0.  0.
        -24    2    3    3    0    0 -0.11740932762E+03 -0.21396447112E+01 -0.38163394305E+03  0.40706632105E+03  0.79176984999E+02 0.  0.
          6    2    1    2  501    0  0.17145476924E+03  0.11279749072E+03  0.27681057927E+03  0.38479913056E+03  0.17124912344E+03 0.  0.
         24    2    5    5    0    0  0.15437546393E+03  0.32962428436E+02  0.23100319351E+03  0.29106681794E+03  0.80244074799E+02 0.  0.
          5    1    5    5  501    0  0.17079305310E+02  0.79835062283E+02  0.45807385756E+02  0.93732312622E+02  0.47000000000E+01 0. -1.
        -13    1    6    6    0    0  0.11415997296E+01  0.89624895209E+01 -0.36846674240E+01  0.97573686197E+01  0.00000000000E+00 0.  1.
         14    1    6    6    0    0  0.15323386420E+03  0.23999938915E+02  0.23468786093E+03  0.28130944932E+03  0.00000000000E+00 0. -1.
         -5    1    3    3    0  503 -0.54045441613E+02 -0.11065784601E+03 -0.23964959747E+03  0.26948114629E+03  0.47000000000E+01 0.  1.
         13    1    4    4    0    0 -0.80932902212E+02 -0.11280347514E+02 -0.34508041717E+03  0.35462356833E+03  0.00000000000E+00 0. -1.
        -14    1    4    4    0    0 -0.36476425413E+02  0.91407028024E+01 -0.36553525875E+02  0.52442752717E+02  0.00000000000E+00 0.  1.
</event>
<event>
12    1  0.8453150E-002  0.1776236E+03  0.7818608E-02  0.1170339E+00
         21   -1    0    0  503  502  0.00000000000E+00  0.00000000000E+00  0.44315504660E+02  0.44315504660E+02  0.00000000000E+00 0.  1.
         21   -1    0    0  501  503 -0.00000000000E+00 -0.00000000000E+00 -0.72564889677E+03  0.72564889677E+03  0.00000000000E+00 0.  1.
          6    2    1    2  501    0  0.23832355490E+02  0.34372415051E+02 -0.40076930915E+03  0.43836761429E+03  0.17262874040E+03 0.  0.
         24    2    3    3    0    0 -0.45628845038E+02 -0.12790253952E+02 -0.19644793077E+03  0.21741854461E+03  0.80208802146E+02 0.  0.
         -6    2    1    2    0  502 -0.23832355490E+02 -0.34372415051E+02 -0.28056408296E+03  0.33159678714E+03  0.17172879931E+03 0.  0.
        -24    2    5    5    0    0 -0.40234151080E+02  0.86326208493E+01 -0.26970580765E+03  0.28407369640E+03  0.79141223433E+02 0.  0.
          5    1    3    3  501    0  0.69461200529E+02  0.47162669003E+02 -0.20432137838E+03  0.22094906968E+03  0.47000000000E+01 0. -1.
        -11    1    4    4    0    0 -0.71991269069E+01  0.25327477675E+02 -0.12521666862E+03  0.12795515877E+03  0.00000000000E+00 0.  1.
         12    1    4    4    0    0 -0.38429718131E+02 -0.38117731627E+02 -0.71231262146E+02  0.89463385846E+02  0.00000000000E+00 0. -1.
         -5    1    5    5    0  502  0.16401795590E+02 -0.43005035900E+02 -0.10858275302E+02  0.47523090744E+02  0.47000000000E+01 0.  1.
         11    1    6    6    0    0 -0.47293736576E+02  0.26274754114E+02 -0.10352137909E+03  0.11680640458E+03  0.00000000000E+00 0. -1.
        -12    1    6    6    0    0  0.70595854953E+01 -0.17642133265E+02 -0.16618442856E+03  0.16726729181E+03  0.00000000000E+00 0.  1.
</event>
<event>
12    1  0.8453150E-002  0.2261742E+03  0.7818608E-02  0.1129760E+00
         21   -1    0    0  503  502  0.00000000000E+00  0.00000000000E+00  0.21136336715E+04  0.21136336715E+04  0.00000000000E+00 0.  1.
         21   -1    0    0  501  503 -0.00000000000E+00 -0.00000000000E+00 -0.25593468958E+02  0.25593468958E+02  0.00000000000E+00 0.  1.
          6    2    1    2  501    0 -0.12820215274E+03  0.64577988001E+02  0.13088592650E+04  0.13278839981E+04  0.17192215768E+03 0.  0.
         24    2    3    3    0    0 -0.51022215363E+02  0.58228420359E+02  0.10922405049E+04  0.10977908931E+04  0.78496554066E+02 0.  0.
         -6    2    1    2    0  502  0.12820215274E+03 -0.64577988001E+02  0.77918093748E+03  0.81134314231E+03  0.17478172884E+03 0.  0.
        -24    2    5    5    0    0  0.11345041290E+03 -0.11074038535E+03  0.62693910677E+03  0.65150495609E+03  0.79193655490E+02 0.  0.
          5    1    3    3  501    0 -0.77179937380E+02  0.63495676417E+01  0.21661876014E+03  0.23009310504E+03  0.47000000000E+01 0. -1.
        -13    1    4    4    0    0 -0.72201871971E+02  0.47923488080E+02  0.84652823314E+03  0.85095230215E+03  0.00000000000E+00 0.  1.
         14    1    4    4    0    0  0.21179656609E+02  0.10304932279E+02  0.24571227174E+03  0.24683859092E+03  0.00000000000E+00 0. -1.
         -5    1    5    5    0  502  0.14751739843E+02  0.46162397351E+02  0.15224183071E+03  0.15983818623E+03  0.47000000000E+01 0.  1.
         13    1    6    6    0    0  0.30301331866E+02 -0.46074218431E+02  0.10054125395E+03  0.11467147886E+03  0.00000000000E+00 0. -1.
        -14    1    6    6    0    0  0.83149081034E+02 -0.64666166920E+02  0.52639785282E+03  0.53683347723E+03  0.00000000000E+00 0.  1.
</event>
<event>
12    1  0.8453150E-002  0.1996472E+03  0.7818608E-02  0.1150828E+00
         21   -1    0    0  503  502  0.00000000000E+00  0.00000000000E+00  0.16949105153E+02  0.16949105153E+02  0.00000000000E+00 0.  1.
         21   -1    0    0  501  503 -0.00000000000E+00 -0.00000000000E+00 -0.23490957321E+04  0.23490957321E+04  0.00000000000E+00 0.  1.
          6    2    1    2  501    0  0.78778126359E+02 -0.62577553258E+02 -0.99933612543E+03  0.10183643022E+04  0.16814046836E+03 0.  0.
         24    2    3    3    0    0  0.62620474190E+01 -0.40982152849E+02 -0.80023730667E+03  0.80532117830E+03  0.80272679878E+02 0.  0.
         -6    2    1    2    0  502 -0.78778126359E+02  0.62577553258E+02 -0.13328105015E+04  0.13476805350E+04  0.17244433351E+03 0.  0.
        -24    2    5    5    0    0  0.31407222463E+01  0.82961693142E+02 -0.81736770611E+03  0.82534962817E+03  0.78864028968E+02 0.  0.
          5    1    3    3  501    0  0.72516078940E+02 -0.21595400409E+02 -0.19909881876E+03  0.21304312394E+03  0.47000000000E+01 0. -1.
        -13    1    4    4    0    0  0.15432555708E+02 -0.14150687473E+02 -0.45888900505E+02  0.50440032922E+02  0.00000000000E+00 0.  1.
         14    1    4    4    0    0 -0.91705082886E+01 -0.26831465376E+02 -0.75434840617E+03  0.75488114537E+03  0.00000000000E+00 0. -1.
         -5    1    5    5    0  502 -0.81918848606E+02 -0.20384139885E+02 -0.51544279537E+03  0.52233090681E+03  0.47000000000E+01 0.  1.
         13    1    6    6    0    0 -0.85940339777E+01 -0.56405948233E+01 -0.16029016897E+02  0.19042140443E+02  0.00000000000E+00 0. -1.
        -14    1    6    6    0    0  0.11734756224E+02  0.88602287965E+02 -0.80133868921E+03  0.80630748773E+03  0.00000000000E+00 0.  1.
</event>
<event>
12    1  0.8453150E-002  0.1829180E+03  0.7818608E-02  0.1165187E+00
         21   -1    0    0  501  502  0.00000000000E+00  0.00000000000E+00  0.11103335098E+04  0.11103335098E+04  0.00000000000E+00 0. -1.
         21   -1    0    0  502  503 -0.00000000000E+00 -0.00000000000E+00 -0.39866834740E+02  0.39866834740E+02  0.00000000000E+00 0. -1.
         -6    2    1    2    0  503 -0.42342685107E+02 -0.45139035447E+02  0.24844573258E+03  0.30807361458E+03  0.17132902399E+03 0.  0.
        -24    2    3    3    0    0 -0.41637557557E+02 -0.11830708277E+02  0.44793360951E+02  0.10166062968E+03  0.80341686470E+02 0.  0.
          6    2    1    2  501    0  0.42342685107E+02  0.45139035447E+02  0.82202094243E+03  0.84212672991E+03  0.17212949756E+03 0.  0.
         24    2    5    5    0    0  0.55002461911E+02  0.62111880830E+02  0.33946451974E+03  0.35908311024E+03  0.82591545192E+02 0.  0.
          5    1    5    5  501    0 -0.12659776804E+02 -0.16972845383E+02  0.48255642269E+03  0.48304361968E+03  0.47000000000E+01 0. -1.
        -13    1    6    6    0    0 -0.10645072605E+02  0.43593983072E+02  0.18254896484E+03  0.18798371604E+03  0.00000000000E+00 0.  1.
         14    1    6    6    0    0  0.65647534516E+02  0.18517897758E+02  0.15691555490E+03  0.17109939420E+03  0.00000000000E+00 0. -1.
         -5    1    3    3    0  503 -0.70512755026E+00 -0.33308327169E+02  0.20365237163E+03  0.20641298490E+03  0.47000000000E+01 0.  1.
         11    1    4    4    0    0 -0.33462023988E+02 -0.61662668649E+01  0.68206526462E+02  0.76222438615E+02  0.00000000000E+00 0. -1.
        -12    1    4    4    0    0 -0.81755335684E+01 -0.56644414125E+01 -0.23413165511E+02  0.25438191069E+02  0.00000000000E+00 0.  1.
</event>
<event>
12    1  0.8453150E-002  0.1957076E+03  0.7818608E-02  0.1153577E+00
         21   -1    0    0  503  502  0.00000000000E+00  0.00000000000E+00  0.55472967920E+03  0.55472967920E+03  0.00000000000E+00 0.  1.
         21   -1    0    0  501  503 -0.00000000000E+00 -0.00000000000E+00 -0.78832583209E+02  0.78832583209E+02  0.00000000000E+00 0.  1.
          6    2    1    2  501    0  0.60428252834E+02 -0.70797843691E+02  0.12521922128E+03  0.23233883178E+03  0.17215565910E+03 0.  0.
         24    2    3    3    0    0  0.49680169495E+02 -0.69902214637E+02  0.12643141675E+02  0.11914966645E+03  0.81745673477E+02 0.  0.
         -6    2    1    2    0  502 -0.60428252834E+02  0.70797843691E+02  0.35067787471E+03  0.40122343063E+03  0.17129320204E+03 0.  0.
        -24    2    5    5    0    0 -0.83698056607E+02  0.79698686572E+02  0.17803934161E+03  0.22673313897E+03  0.79703599840E+02 0.  0.
          5    1    3    3  501    0  0.10748083340E+02 -0.89562905335E+00  0.11257607961E+03  0.11318916533E+03  0.47000000000E+01 0. -1.
        -11    1    4    4    0    0  0.25609952431E+02 -0.36019501444E+02 -0.34671457953E+02  0.56172806093E+02  0.00000000000E+00 0.  1.
         12    1    4    4    0    0  0.24070217064E+02 -0.33882713194E+02  0.47314599628E+02  0.62976860360E+02  0.00000000000E+00 0. -1.
         -5    1    5    5    0  502  0.23269803773E+02 -0.89008428809E+01  0.17263853311E+03  0.17449029166E+03  0.47000000000E+01 0.  1.
         13    1    6    6    0    0  0.73226286783E+01  0.26325949049E+02  0.11643375711E+02  0.29702603961E+02  0.00000000000E+00 0. -1.
        -14    1    6    6    0    0 -0.91020685285E+02  0.53372737522E+02  0.16639596589E+03  0.19703053501E+03  0.00000000000E+00 0.  1.
</event>
<event>
12    1  0.8453150E-002  0.1967433E+03  0.7818608E-02  0.1152585E+00
         21   -1    0    0  501  502  0.00000000000E+00  0.00000000000E+00  0.10344378900E+04  0.10344378900E+04  0.00000000000E+00 0.  1.
         21   -1    0    0  502  503 -0.00000000000E+00 -0.00000000000E+00 -0.80840478444E+02  0.80840478444E+02  0.00000000000E+00 0.  1.
         -6    2    1    2    0  503 -0.26081531071E+02  0.91270421958E+02  0.67649662994E+02  0.20774802015E+03  0.17196577213E+03 0.  0.
        -24    2    3    3    0    0 -0.16612344006E+02  0.98503404013E+02  0.10668129146E+03  0.16666834691E+03  0.80115849484E+02 0.  0.
          6    2    1    2  501    0  0.26081531071E+02 -0.91270421958E+02  0.88594774859E+03  0.90753034832E+03  0.17232928859E+03 0.  0.
         24    2    5    5    0    0  0.23203868402E+02  0.55028900165E+01  0.23488734346E+03  0.24929399564E+03  0.80042056700E+02 0.  0.
          5    1    5    5  501    0  0.28776626691E+01 -0.96773311975E+02  0.65106040513E+03  0.65823635268E+03  0.47000000000E+01 0. -1.
        -13    1    6    6    0    0  0.41397810998E+02 -0.19167836018E+02  0.18662179717E+03  0.19211683912E+03  0.00000000000E+00 0.  1.
         14    1    6    6    0    0 -0.18193942597E+02  0.24670726034E+02  0.48265546287E+02  0.57177156528E+02  0.00000000000E+00 0. -1.
         -5    1    3    3    0  503 -0.94691870648E+01 -0.72329820547E+01 -0.39031628464E+02  0.41079673242E+02  0.47000000000E+01 0.  1.
         13    1    4    4    0    0  0.29215779921E+02  0.57178093702E+02  0.69511560478E+02  0.94629557940E+02  0.00000000000E+00 0. -1.
        -14    1    4    4    0    0 -0.45828123927E+02  0.41325310311E+02  0.37169730981E+02  0.72038788969E+02  0.00000000000E+00 0.  1.
</event>
<event>
12    1  0.8453150E-002  0.2223132E+03  0.7818608E-02  0.1135461E+00
         21   -1    0    0  503  502  0.00000000000E+00  0.00000000000E+00  0.44074513861E+03  0.44074513861E+03  0.00000000000E+00 0.  1.
         21   -1    0    0  501  503 -0.00000000000E+00 -0.00000000000E+00 -0.12193138362E+03  0.12193138362E+03  0.00000000000E+00 0.  1.
          6    2    1    2  501    0  0.60506265566E+02 -0.91496946598E+02  0.45116161445E+02  0.21006690180E+03  0.17337801417E+03 0.  0.
         24    2    3    3    0    0  0.54093726280E+02 -0.27736802900E+02  0.86906670346E+02  0.13341826698E+03  0.80945680279E+02 0.  0.
         -6    2    1    2    0  502 -0.60506265566E+02  0.91496946598E+02  0.27369759354E+03  0.35260962043E+03  0.19336616121E+03 0.  0.
        -24    2    5    5    0    0 -0.15206920985E+02  0.49686330474E+02  0.27520755349E+03  0.29076685029E+03  0.78142061964E+02 0.  0.
          5    1    3    3  501    0  0.64125392864E+01 -0.63760143698E+02 -0.41790508901E+02  0.76648634813E+02  0.47000000000E+01 0. -1.
        -13    1    4    4    0    0  0.36912041852E+02 -0.23672815315E+02 -0.89398806163E+00  0.43860007219E+02  0.00000000000E+00 0.  1.
         14    1    4    4    0    0  0.17181684428E+02 -0.40639875851E+01  0.87800658408E+02  0.89558259763E+02  0.00000000000E+00 0. -1.
         -5    1    5    5    0  502 -0.45299344581E+02  0.41810616124E+02 -0.15099599471E+01  0.61842770144E+02  0.47000000000E+01 0.  1.
         11    1    6    6    0    0 -0.17964586224E+02  0.69122275336E+02  0.24063739246E+03  0.25101189206E+03  0.00000000000E+00 0. -1.
        -12    1    6    6    0    0  0.27576652392E+01 -0.19435944862E+02  0.34570161035E+02  0.39754958234E+02  0.00000000000E+00 0.  1.
</event>
<event>
12    1  0.8453150E-002  0.2156624E+03  0.7818608E-02  0.1137182E+00
         21   -1    0    0  503  502  0.00000000000E+00  0.00000000000E+00  0.77090771713E+02  0.77090771713E+02  0.00000000000E+00 0.  1.
         21   -1    0    0  501  503 -0.00000000000E+00 -0.00000000000E+00 -0.68860204513E+03  0.68860204513E+03  0.00000000000E+00 0.  1.
          6    2    1    2  501    0  0.12383813245E+03  0.43292420761E+02 -0.44068283494E+03  0.49056985776E+03  0.17101844224E+03 0.  0.
         24    2    3    3    0    0  0.34583418895E+02 -0.20717113277E+02 -0.29687537638E+03  0.30955521891E+03  0.77873184144E+02 0.  0.
         -6    2    1    2    0  502 -0.12383813245E+03 -0.43292420761E+02 -0.17082843848E+03  0.27512295908E+03  0.17117292565E+03 0.  0.
        -24    2    5    5    0    0 -0.13911085282E+03 -0.72383140498E+01 -0.86753328651E+02  0.18225817194E+03  0.79294884099E+02 0.  0.
          5    1    3    3  501    0  0.89254713558E+02  0.64009534038E+02 -0.14380745856E+03  0.18101463885E+03  0.47000000000E+01 0. -1.
        -13    1    4    4    0    0  0.12944305729E+02 -0.47250946458E+02 -0.12410950771E+03  0.13342929549E+03  0.00000000000E+00 0.  1.
         14    1    4    4    0    0  0.21639113166E+02  0.26533833181E+02 -0.17276586867E+03  0.17612592342E+03  0.00000000000E+00 0. -1.
         -5    1    5    5    0  502  0.15272720372E+02 -0.36054106711E+02 -0.84075109824E+02  0.92864787138E+02  0.47000000000E+01 0.  1.
         11    1    6    6    0    0 -0.32568827060E+02  0.32739917064E+02 -0.30257138813E+02  0.55209828061E+02  0.00000000000E+00 0. -1.
        -12    1    6    6    0    0 -0.10654202576E+03 -0.39978231113E+02 -0.56496189838E+02  0.12704834388E+03  0.00000000000E+00 0.  1.
</event>
<event>
12    1  0.8453150E-002  0.1908208E+03  0.7818608E-02  0.1159477E+00
         21   -1    0    0  501  502  0.00000000000E+00  0.00000000000E+00  0.28277562576E+02  0.28277562576E+02  0.00000000000E+00 0. -1.
         21   -1    0    0  502  503 -0.00000000000E+00 -0.00000000000E+00 -0.13367120976E+04  0.13367120976E+04  0.00000000000E+00 0.  1.
         -6    2    1    2    0  503 -0.29741507382E+02 -0.56159307859E+02 -0.47982084711E+03  0.51637255447E+03  0.17992816502E+03 0.  0.
        -24    2    3    3    0    0 -0.88977337469E+02 -0.23338349231E+02 -0.27823330216E+03  0.30366212414E+03  0.79594409855E+02 0.  0.
          6    2    1    2  501    0  0.29741507382E+02  0.56159307859E+02 -0.82861368795E+03  0.84861710574E+03  0.17179034658E+03 0.  0.
         24    2    5    5    0    0 -0.39122664718E+02  0.76859421918E+01 -0.28761189136E+03  0.30107991496E+03  0.79616948805E+02 0.  0.
          5    1    5    5  501    0  0.68864172100E+02  0.48473365667E+02 -0.54100179659E+03  0.54753719078E+03  0.47000000000E+01 0. -1.
        -13    1    6    6    0    0 -0.28399613616E+02  0.43061090548E+02 -0.15165269806E+03  0.16018531894E+03  0.00000000000E+00 0.  1.
         14    1    6    6    0    0 -0.10723051102E+02 -0.35375148356E+02 -0.13595919330E+03  0.14089459602E+03  0.00000000000E+00 0. -1.
         -5    1    3    3    0  503  0.59235830087E+02 -0.32820958628E+02 -0.20158754495E+03  0.21271043033E+03  0.47000000000E+01 0.  1.
         11    1    4    4    0    0  0.63764330196E+01  0.68201880080E+01 -0.15571679714E+01  0.94656555298E+01  0.00000000000E+00 0. -1.
        -12    1    4    4    0    0 -0.95353770489E+02 -0.30158537239E+02 -0.27667613419E+03  0.29419646861E+03  0.00000000000E+00 0.  1.
</event>
<event>
12    1  0.8453150E-002  0.1966888E+03  0.7818608E-02  0.1154282E+00
         21   -1    0    0  501  502  0.00000000000E+00  0.00000000000E+00  0.11837302801E+03  0.11837302801E+03  0.00000000000E+00 0. -1.
         21   -1    0    0  502  503 -0.00000000000E+00 -0.00000000000E+00 -0.31524771884E+03  0.31524771884E+03  0.00000000000E+00 0.  1.
         -6    2    1    2    0  503 -0.36628350166E+02 -0.83430444137E+02 -0.82695116952E+02  0.20619279451E+03  0.16545304801E+03 0.  0.
        -24    2    3    3    0    0 -0.31698816152E+02 -0.41525536254E+02  0.18592790172E+02  0.96367243115E+02  0.78814773949E+02 0.  0.
          6    2    1    2  501    0  0.36628350166E+02  0.83430444137E+02 -0.11417957387E+03  0.22742795234E+03  0.17431070928E+03 0.  0.
         24    2    5    5    0    0 -0.49878860035E+02  0.25753097469E+02 -0.56527032519E+02  0.10844862951E+03  0.73584489734E+02 0.  0.
          5    1    5    5  501    0  0.86507210202E+02  0.57677346668E+02 -0.57652541356E+02  0.11897932283E+03  0.47000000000E+01 0. -1.
        -13    1    6    6    0    0  0.19342781833E+02  0.48697508957E+01 -0.15936472260E+02  0.25530938700E+02  0.00000000000E+00 0.  1.
         14    1    6    6    0    0 -0.69221641868E+02  0.20883346574E+02 -0.40590560259E+02  0.82917690809E+02  0.00000000000E+00 0. -1.
         -5    1    3    3    0  503 -0.49295340140E+01 -0.41904907883E+02 -0.10128790712E+03  0.10982555140E+03  0.47000000000E+01 0.  1.
         13    1    4    4    0    0  0.50572329663E+01  0.20645041433E+02  0.10453438476E+02  0.23686868029E+02  0.00000000000E+00 0. -1.
        -14    1    4    4    0    0 -0.36756049119E+02 -0.62170577687E+02  0.81393516954E+01  0.72680375087E+02  0.00000000000E+00 0.  1.
</event>
<event>
12    1  0.8453150E-002  0.1994276E+03  0.7818608E-02  0.1150311E+00
         21   -1    0    0  503  502  0.00000000000E+00  0.00000000000E+00  0.26517569565E+02  0.26517569565E+02  0.00000000000E+00 0.  1.
         21   -1    0    0  501  503 -0.00000000000E+00 -0.00000000000E+00 -0.18827798324E+04  0.18827798324E+04  0.00000000000E+00 0.  1.
          6    2    1    2  501    0  0.12097442786E+01  0.10062879796E+03 -0.13596626787E+04  0.13741502038E+04  0.17169322771E+03 0.  0.
         24    2    3    3    0    0 -0.36532010403E+02  0.82098930312E+02 -0.12617011884E+04  0.12674434111E+04  0.80299995879E+02 0.  0.
         -6    2    1    2    0  502 -0.12097442786E+01 -0.10062879796E+03 -0.49659958412E+03  0.53514719809E+03  0.17217362812E+03 0.  0.
        -24    2    5    5    0    0  0.27316823372E+02 -0.26339129097E+02 -0.39748289052E+03  0.40795077947E+03  0.83613585332E+02 0.  0.
          5    1    3    3  501    0  0.37741754682E+02  0.18529867645E+02 -0.97961490251E+02  0.10670679272E+03  0.47000000000E+01 0. -1.
        -13    1    4    4    0    0  0.20647006215E+02  0.51810935895E+02 -0.59869976065E+03  0.60129200506E+03  0.00000000000E+00 0.  1.
         14    1    4    4    0    0 -0.57179016618E+02  0.30287994417E+02 -0.66300142777E+03  0.66615140605E+03  0.00000000000E+00 0. -1.
         -5    1    5    5    0  502 -0.28526567651E+02 -0.74289668859E+02 -0.99116693597E+02  0.12719641862E+03  0.47000000000E+01 0.  1.
         11    1    6    6    0    0 -0.11110316780E+02  0.21072883225E+02 -0.53055802486E+02  0.58158608338E+02  0.00000000000E+00 0. -1.
        -12    1    6    6    0    0  0.38427140152E+02 -0.47412012322E+02 -0.34442708803E+03  0.34979217113E+03  0.00000000000E+00 0.  1.
</event>
<event>
12    1  0.8453150E-002  0.1740283E+03  0.7818608E-02  0.1174334E+00
         21   -1    0    0  503  502  0.00000000000E+00  0.00000000000E+00  0.47199192732E+03  0.47199192732E+03  0.00000000000E+00 0.  1.
         21   -1    0    0  501  503 -0.00000000000E+00 -0.00000000000E+00 -0.17765871387E+03  0.17765871387E+03  0.00000000000E+00 0.  1.
          6    2    1    2  501    0 -0.19604810190E+02  0.17005119652E+02 -0.11310738313E+03  0.20755510091E+03  0.17208229752E+03 0.  0.
         24    2    3    3    0    0  0.43756875801E+02  0.35120446265E+02 -0.25659843864E+02  0.97955691999E+02  0.76084033030E+02 0.  0.
         -6    2    1    2    0  502  0.19604810190E+02 -0.17005119652E+02  0.40744059658E+03  0.44209554028E+03  0.16960867995E+03 0.  0.
        -24    2    5    5    0    0 -0.43475798096E+02 -0.35657180454E+01  0.32102218220E+03  0.33416031433E+03  0.81884155002E+02 0.  0.
          5    1    3    3  501    0 -0.63361685991E+02 -0.18115326614E+02 -0.87447539268E+02  0.10959940891E+03  0.47000000000E+01 0. -1.
        -13    1    4    4    0    0  0.50636591319E+02  0.65406912279E+01 -0.40365666444E+02  0.65086343034E+02  0.00000000000E+00 0.  1.
         14    1    4    4    0    0 -0.68797155177E+01  0.28579755038E+02  0.14705822580E+02  0.32869348965E+02  0.00000000000E+00 0. -1.
         -5    1    5    5    0  502  0.63080608286E+02 -0.13439401606E+02  0.86418414376E+02  0.10793522595E+03  0.47000000000E+01 0.  1.
         13    1    6    6    0    0  0.61081706252E+01  0.85064733991E+01  0.14890550898E+01  0.10577670969E+02  0.00000000000E+00 0. -1.
        -14    1    6    6    0    0 -0.49583968721E+02 -0.12072191445E+02  0.31953312712E+03  0.32358264336E+03  0.00000000000E+00 0.  1.
</event>
<event>
12    1  0.8453150E-002  0.1975059E+03  0.7818608E-02  0.1152130E+00
         21   -1    0    0  503  502  0.00000000000E+00  0.00000000000E+00  0.10107328229E+03  0.10107328229E+03  0.00000000000E+00 0.  1.
         21   -1    0    0  501  503 -0.00000000000E+00 -0.00000000000E+00 -0.38639973138E+03  0.38639973138E+03  0.00000000000E+00 0.  1.
          6    2    1    2  501    0  0.88880168895E+02  0.39254167107E+02 -0.16422610697E+03  0.25686334073E+03  0.17195344586E+03 0.  0.
         24    2    3    3    0    0  0.10166152877E+02  0.61616277012E+02 -0.13810126931E+03  0.17083684818E+03  0.78824817500E+02 0.  0.
         -6    2    1    2    0  502 -0.88880168895E+02 -0.39254167107E+02 -0.12110034213E+03  0.23060967294E+03  0.17051379514E+03 0.  0.
        -24    2    5    5    0    0 -0.18932492814E+02 -0.37130034095E+02 -0.13205187992E+03  0.15962224089E+03  0.79400768748E+02 0.  0.
          5    1    3    3  501    0  0.78714016018E+02 -0.22362109905E+02 -0.26124837653E+02  0.86026492544E+02  0.47000000000E+01 0. -1.
        -11    1    4    4    0    0  0.12040685038E+02  0.94278827351E+01 -0.11091088110E+03  0.11196020104E+03  0.00000000000E+00 0.  1.
         12    1    4    4    0    0 -0.18745321607E+01  0.52188394277E+02 -0.27190388208E+02  0.58876647144E+02  0.00000000000E+00 0. -1.
         -5    1    5    5    0  502 -0.69947676081E+02 -0.21241330115E+01  0.10951537795E+02  0.70987432058E+02  0.47000000000E+01 0.  1.
         11    1    6    6    0    0  0.13111045457E+02  0.19484718231E+02 -0.24588388131E+02  0.34002096824E+02  0.00000000000E+00 0. -1.
        -12    1    6    6    0    0 -0.32043538270E+02 -0.56614752326E+02 -0.10746349179E+03  0.12562014406E+03  0.00000000000E+00 0.  1.
</event>
<event>
12    1  0.8453150E-002  0.2118024E+03  0.7818608E-02  0.1141032E+00
         21   -1    0    0  501  502  0.00000000000E+00  0.00000000000E+00  0.52840279547E+03  0.52840279547E+03  0.00000000000E+00 0.  1.
         21   -1    0    0  502  503 -0.00000000000E+00 -0.00000000000E+00 -0.93843458456E+02  0.93843458456E+02  0.00000000000E+00 0.  1.
         -6    2    1    2    0  503 -0.14318165794E+02 -0.11434847276E+03  0.32452153980E+03  0.38752355673E+03  0.17770676445E+03 0.  0.
        -24    2    3    3    0    0  0.61418445970E+02 -0.40412510060E+02  0.16633746321E+03  0.19713749361E+03  0.76089705257E+02 0.  0.
          6    2    1    2  501    0  0.14318165794E+02  0.11434847276E+03  0.11003779722E+03  0.23472269720E+03  0.17235383567E+03 0.  0.
         24    2    5    5    0    0  0.70277430940E+02  0.70448864349E+02  0.38995546955E+02  0.13408619142E+03  0.80972182007E+02 0.  0.
          5    1    5    5  501    0 -0.55959265146E+02  0.43899608409E+02  0.71042250261E+02  0.10063650578E+03  0.47000000000E+01 0. -1.
        -13    1    6    6    0    0  0.76209436620E+02  0.81361803753E+02  0.45087347841E+02  0.12025177868E+03  0.00000000000E+00 0.  1.
         14    1    6    6    0    0 -0.59320056797E+01 -0.10912939404E+02 -0.60918008861E+01  0.13834412740E+02  0.00000000000E+00 0. -1.
         -5    1    3    3    0  503 -0.75736611764E+02 -0.73935962698E+02  0.15818407659E+03  0.19038606312E+03  0.47000000000E+01 0.  1.
         13    1    4    4    0    0  0.49275176529E+01  0.21386258783E+02  0.38669081809E+02  0.44462910194E+02  0.00000000000E+00 0. -1.
        -14    1    4    4    0    0  0.56490928317E+02 -0.61798768843E+02  0.12766838140E+03  0.15267458342E+03  0.00000000000E+00 0.  1.
</event>
<event>
12    1  0.8453150E-002  0.2295575E+03  0.7818608E-02  0.1127252E+00
         21   -1    0    0  503  502  0.00000000000E+00  0.00000000000E+00  0.20269463251E+03  0.20269463251E+03  0.00000000000E+00 0.  1.
         21   -1    0    0  501  503 -0.00000000000E+00 -0.00000000000E+00 -0.26718079842E+03  0.26718079842E+03  0.00000000000E+00 0. -1.
          6    2    1    2  501    0 -0.69106857267E+02 -0.13467487011E+03  0.11036845893E+02  0.22982263142E+03  0.17257911689E+03 0.  0.
         24    2    3    3    0    0 -0.29397159767E+02  0.11472994703E+02  0.62757061251E+01  0.78228380485E+02  0.71305486578E+02 0.  0.
         -6    2    1    2    0  502  0.69106857267E+02  0.13467487011E+03 -0.75523011803E+02  0.24005279952E+03  0.17031894458E+03 0.  0.
        -24    2    5    5    0    0  0.24230967989E+02  0.14788567029E+03 -0.88437250899E+02  0.19129586923E+03  0.79471069885E+02 0.  0.
          5    1    3    3  501    0 -0.39709697500E+02 -0.14614786481E+03  0.47611397679E+01  0.15159425094E+03  0.47000000000E+01 0. -1.
        -11    1    4    4    0    0 -0.45603953484E+02  0.16191797647E+02 -0.15373461394E+02  0.50776354730E+02  0.00000000000E+00 0.  1.
         12    1    4    4    0    0  0.16206793717E+02 -0.47188029441E+01  0.21649167519E+02  0.27452025755E+02  0.00000000000E+00 0. -1.
         -5    1    5    5    0  502  0.44875889278E+02 -0.13210800180E+02  0.12914239096E+02  0.48756930290E+02  0.47000000000E+01 0.  1.
         13    1    6    6    0    0  0.11992415547E+02 -0.64138214991E+01 -0.14087701197E+02  0.19581074074E+02  0.00000000000E+00 0. -1.
        -14    1    6    6    0    0  0.12238552442E+02  0.15429949179E+03 -0.74349549702E+02  0.17171479515E+03  0.00000000000E+00 0.  1.
</event>
<event>
12    1  0.8453150E-002  0.1831688E+03  0.7818608E-02  0.1165169E+00
         21   -1    0    0  503  502  0.00000000000E+00  0.00000000000E+00  0.15065636978E+03  0.15065636978E+03  0.00000000000E+00 0. -1.
         21   -1    0    0  501  503 -0.00000000000E+00 -0.00000000000E+00 -0.40126122435E+03  0.40126122435E+03  0.00000000000E+00 0. -1.
          6    2    1    2  501    0 -0.43736282092E+02 -0.39066008115E+02 -0.31011787771E+03  0.35932322017E+03  0.17175873520E+03 0.  0.
         24    2    3    3    0    0  0.27968859396E+02  0.19675410207E+02 -0.17381162754E+03  0.19441820091E+03  0.80116016589E+02 0.  0.
         -6    2    1    2    0  502  0.43736282092E+02  0.39066008115E+02  0.59513023151E+02  0.19259437395E+03  0.17352745487E+03 0.  0.
        -24    2    5    5    0    0 -0.39675014897E+02  0.43924653006E+02  0.39148991233E+02  0.10646752163E+03  0.79367548144E+02 0.  0.
          5    1    3    3  501    0 -0.71705141488E+02 -0.58741418322E+02 -0.13630625018E+03  0.16490501927E+03  0.47000000000E+01 0. -1.
        -13    1    4    4    0    0  0.15985398637E+02  0.58983391693E+01  0.24492914215E+01  0.17214017632E+02  0.00000000000E+00 0.  1.
         14    1    4    4    0    0  0.11983460758E+02  0.13777071038E+02 -0.17626091896E+03  0.17720418328E+03  0.00000000000E+00 0. -1.
         -5    1    5    5    0  502  0.83411296989E+02 -0.48586448909E+01  0.20364031919E+02  0.86126852326E+02  0.47000000000E+01 0.  1.
         11    1    6    6    0    0 -0.17562671026E+02  0.56658410046E+02 -0.49667448857E+00  0.59320060082E+02  0.00000000000E+00 0. -1.
        -12    1    6    6    0    0 -0.22112343871E+02 -0.12733757040E+02  0.39645665721E+02  0.47147461547E+02  0.00000000000E+00 0.  1.
</event>
<event>
12    1  0.8453150E-002  0.2092585E+03  0.7818608E-02  0.1142389E+00
         21   -1    0    0  501  502  0.00000000000E+00  0.00000000000E+00  0.22082092828E+04  0.22082092828E+04  0.00000000000E+00 0. -1.
         21   -1    0    0  502  503 -0.00000000000E+00 -0.00000000000E+00 -0.29580561381E+02  0.29580561381E+02  0.00000000000E+00 0. -1.
         -6    2    1    2    0  503  0.99444939312E+00 -0.11471192210E+03  0.44531906637E+03  0.49203475501E+03  0.17501232890E+03 0.  0.
        -24    2    3    3    0    0  0.25596675861E+02 -0.25067952471E+01  0.11877957763E+03  0.14584782900E+03  0.80632048981E+02 0.  0.
          6    2    1    2  501    0 -0.99444939312E+00  0.11471192210E+03  0.17333096550E+04  0.17457550891E+04  0.17360488782E+03 0.  0.
         24    2    5    5    0    0  0.45662720288E+02  0.16443385805E+02  0.10239545831E+04  0.10280920033E+04  0.78324389906E+02 0.  0.
          5    1    5    5  501    0 -0.46657169682E+02  0.98268536292E+02  0.70935507193E+03  0.71766308584E+03  0.47000000000E+01 0. -1.
        -13    1    6    6    0    0 -0.60694349771E+00 -0.23708343760E+02  0.13809793177E+03  0.14011956574E+03  0.00000000000E+00 0.  1.
         14    1    6    6    0    0  0.46269663786E+02  0.40151729565E+02  0.88585665131E+03  0.88797243755E+03  0.00000000000E+00 0. -1.
         -5    1    3    3    0  503 -0.24602226468E+02 -0.11220512685E+03  0.32653948874E+03  0.34618692602E+03  0.47000000000E+01 0.  1.
         11    1    4    4    0    0  0.20003978890E+02 -0.34839541797E+02  0.27065411126E+02  0.48440575176E+02  0.00000000000E+00 0. -1.
        -12    1    4    4    0    0  0.55926969716E+01  0.32332746549E+02  0.91714166505E+02  0.97407253819E+02  0.00000000000E+00 0.  1.
</event>
<event>
12    1  0.8453150E-002  0.2135640E+03  0.7818608E-02  0.1139173E+00
         21   -1    0    0  503  502  0.00000000000E+00  0.00000000000E+00  0.40320827760E+03  0.40320827760E+03  0.00000000000E+00 0.  1.
         21   -1    0    0  501  503 -0.00000000000E+00 -0.00000000000E+00 -0.50567273543E+03  0.50567273543E+03  0.00000000000E+00 0.  1.
          6    2    1    2  501    0 -0.12926939318E+03  0.16677133914E+02 -0.45223616677E+03  0.50012713661E+03  0.16917712442E+03 0.  0.
         24    2    3    3    0    0 -0.69311011892E+01 -0.16390599435E+02 -0.22298988205E+03  0.23814224824E+03  0.81673441120E+02 0.  0.
         -6    2    1    2    0  502  0.12926939318E+03 -0.16677133914E+02  0.34977170894E+03  0.40875387643E+03  0.16658565458E+03 0.  0.
        -24    2    5    5    0    0  0.94482184290E+02  0.51123440659E+02  0.19597994603E+03  0.23705336929E+03  0.79029559722E+02 0.  0.
          5    1    3    3  501    0 -0.12233829199E+03  0.33067733349E+02 -0.22924628472E+03  0.26198488837E+03  0.47000000000E+01 0. -1.
        -13    1    4    4    0    0 -0.37770263589E+02  0.28398486554E+01 -0.16807515892E+03  0.17229021040E+03  0.00000000000E+00 0.  1.
         14    1    4    4    0    0  0.30839162399E+02 -0.19230448091E+02 -0.54914723130E+02  0.65852037840E+02  0.00000000000E+00 0. -1.
         -5    1    5    5    0  502  0.34787208892E+02 -0.67800574573E+02  0.15379176291E+03  0.17170050714E+03  0.47000000000E+01 0.  1.
         13    1    6    6    0    0  0.18167533979E+02 -0.72577771196E+01  0.88833315599E+00  0.19583762545E+02  0.00000000000E+00 0. -1.
        -14    1    6    6    0    0  0.76314650311E+02  0.58381217779E+02  0.19509161288E+03  0.21746960674E+03  0.00000000000E+00 0.  1.
</event>
<event>
12    1  0.8453150E-002  0.1815088E+03  0.7818608E-02  0.1166937E+00
         21   -1    0    0  501  502  0.00000000000E+00  0.00000000000E+00  0.41926786769E+03  0.41926786769E+03  0.00000000000E+00 0.  1.
         21   -1    0    0  502  503 -0.00000000000E+00 -0.00000000000E+00 -0.31978190888E+03  0.31978190888E+03  0.00000000000E+00 0.  1.
         -6    2    1    2    0  503  0.51603598733E+02 -0.40473052095E+00 -0.27180003754E+03  0.32683437463E+03  0.17401825429E+03 0.  0.
        -24    2    3    3    0    0  0.66295276616E+02  0.11655563390E+02 -0.77918426136E+02  0.13196655962E+03  0.82540752765E+02 0.  0.
          6    2    1    2  501    0 -0.51603598733E+02  0.40473052095E+00  0.37128599636E+03  0.41221540193E+03  0.17147930281E+03 0.  0.
         24    2    5    5    0    0  0.31203977183E+02  0.28760047070E+01  0.25472883504E+03  0.26913897593E+03  0.81037333170E+02 0.  0.
          5    1    5    5  501    0 -0.82807575916E+02 -0.24712741861E+01  0.11655716132E+03  0.14307642601E+03  0.47000000000E+01 0. -1.
        -13    1    6    6    0    0 -0.15018539810E+02 -0.25561216976E+02  0.12594885996E+03  0.12939106491E+03  0.00000000000E+00 0.  1.
         14    1    6    6    0    0  0.46222516993E+02  0.28437221683E+02  0.12877997507E+03  0.13974791102E+03  0.00000000000E+00 0. -1.
         -5    1    3    3    0  503 -0.14691677883E+02 -0.12060293911E+02 -0.19388161140E+03  0.19486781501E+03  0.47000000000E+01 0.  1.
         13    1    4    4    0    0  0.54572833102E+02 -0.27301541542E+02 -0.26830335732E+02  0.66659096895E+02  0.00000000000E+00 0. -1.
        -14    1    4    4    0    0  0.11722443514E+02  0.38957104931E+02 -0.51088090404E+02  0.65307462726E+02  0.00000000000E+00 0.  1.
</event>
<event>
12    1  0.8453150E-002  0.2366205E+03  0.7818608E-02  0.1122179E+00
         21   -1    0    0  501  502  0.00000000000E+00  0.00000000000E+00  0.29569156881E+04  0.29569156881E+04  0.00000000000E+00 0. -1.
         21   -1    0    0  502  503 -0.00000000000E+00 -0.00000000000E+00 -0.47967795377E+02  0.47967795377E+02  0.00000000000E+00 0. -1.
         -6    2    1    2    0  503 -0.10537808144E+03  0.12240363512E+03  0.28371228627E+03  0.36900578396E+03  0.17200411995E+03 0.  0.
        -24    2    3    3    0    0 -0.12092881416E+03  0.11415782125E+03  0.16756973111E+03  0.25144302688E+03  0.86534355795E+02 0.  0.
          6    2    1    2  501    0  0.10537808144E+03 -0.12240363512E+03  0.26252356065E+04  0.26358776995E+04  0.17292214277E+03 0.  0.
         24    2    5    5    0    0  0.10465583863E+03 -0.83841211712E+02  0.11922639929E+04  0.12023794200E+04  0.78997769072E+02 0.  0.
          5    1    5    5  501    0  0.72224281423E+00 -0.38562423408E+02  0.14329716136E+04  0.14334982796E+04  0.47000000000E+01 0. -1.
        -13    1    6    6    0    0 -0.87756552096E+01 -0.10114130527E+01  0.21852438804E+02  0.23570408618E+02  0.00000000000E+00 0.  1.
         14    1    6    6    0    0  0.11343149384E+03 -0.82829798660E+02  0.11704115541E+04  0.11788090113E+04  0.00000000000E+00 0. -1.
         -5    1    3    3    0  503  0.15550732721E+02  0.82458138659E+01  0.11614255516E+03  0.11756275708E+03  0.47000000000E+01 0.  1.
         11    1    4    4    0    0  0.20579335899E+01  0.16848025250E+02  0.57215900942E+02  0.59680401859E+02  0.00000000000E+00 0. -1.
        -12    1    4    4    0    0 -0.12298674775E+03  0.97309796005E+02  0.11035383017E+03  0.19176262502E+03  0.00000000000E+00 0.  1.
</event>
<event>
12    1  0.8453150E-002  0.1882127E+03  0.7818608E-02  0.1160336E+00
         21   -1    0    0  501  502  0.00000000000E+00  0.00000000000E+00  0.92815221327E+03  0.92815221327E+03  0.00000000000E+00 0.  1.
         21   -1    0    0  502  503 -0.00000000000E+00 -0.00000000000E+00 -0.68340405384E+02  0.68340405384E+02  0.00000000000E+00 0. -1.
         -6    2    1    2    0  503  0.48615725696E+02  0.57003587132E+02  0.76149962961E+03  0.78415015512E+03  0.17145518994E+03 0.  0.
        -24    2    3    3    0    0  0.94813647786E+02  0.19025545236E+02  0.49889230459E+03  0.51477815060E+03  0.82166985901E+02 0.  0.
          6    2    1    2  501    0 -0.48615725696E+02 -0.57003587132E+02  0.98312178285E+02  0.21234246354E+03  0.17265902725E+03 0.  0.
         24    2    5    5    0    0  0.16944331270E+02 -0.27026834389E+02 -0.44212118836E+01  0.86751993237E+02  0.80553094769E+02 0.  0.
          5    1    5    5  501    0 -0.65560056966E+02 -0.29976752743E+02  0.10273339017E+03  0.12559047030E+03  0.47000000000E+01 0. -1.
        -11    1    6    6    0    0  0.83278195283E+01  0.24708444221E+02  0.15860575805E+02  0.30519135944E+02  0.00000000000E+00 0.  1.
         12    1    6    6    0    0  0.86165117415E+01 -0.51735278610E+02 -0.20281787688E+02  0.56232857293E+02  0.00000000000E+00 0. -1.
         -5    1    3    3    0  503 -0.46197922090E+02  0.37978041896E+02  0.26260732501E+03  0.26937200452E+03  0.47000000000E+01 0.  1.
         11    1    4    4    0    0 -0.72915284384E+01  0.21049772993E+02  0.56094766399E+02  0.60356293353E+02  0.00000000000E+00 0. -1.
        -12    1    4    4    0    0  0.10210517622E+03 -0.20242277573E+01  0.44279753820E+03  0.45442185725E+03  0.00000000000E+00 0.  1.
</event>
<event>
12    1  0.8453150E-002  0.2429611E+03  0.7818608E-02  0.1117947E+00
         21   -1    0    0  501  502  0.00000000000E+00  0.00000000000E+00  0.21552111643E+03  0.21552111643E+03  0.00000000000E+00 0.  1.
         21   -1    0    0  502  503 -0.00000000000E+00 -0.00000000000E+00 -0.36442972533E+03  0.36442972533E+03  0.00000000000E+00 0. -1.
         -6    2    1    2    0  503  0.26622396821E+02  0.16911946563E+03 -0.21951468317E+03  0.32693839802E+03  0.17144058535E+03 0.  0.
        -24    2    3    3    0    0 -0.44215236526E+02  0.62667945321E+02 -0.12917009729E+03  0.17030465111E+03  0.80227810907E+02 0.  0.
          6    2    1    2  501    0 -0.26622396821E+02 -0.16911946563E+03  0.70606074258E+02  0.25301244375E+03  0.17239470207E+03 0.  0.
         24    2    5    5    0    0 -0.35453612405E+02 -0.19523634734E+03  0.54777411454E+02  0.22087650677E+03  0.80072944764E+02 0.  0.
          5    1    5    5  501    0  0.88312155848E+01  0.26116881712E+02  0.15828662804E+02  0.32135936975E+02  0.47000000000E+01 0. -1.
        -11    1    6    6    0    0  0.14821462830E+01 -0.16421608385E+03  0.53170680554E+02  0.17261587477E+03  0.00000000000E+00 0.  1.
         12    1    6    6    0    0 -0.36935758688E+02 -0.31020263488E+02  0.16067308993E+01  0.48260631999E+02  0.00000000000E+00 0. -1.
         -5    1    3    3    0  503  0.70837633346E+02  0.10645152030E+03 -0.90344585871E+02  0.15663374691E+03  0.47000000000E+01 0.  1.
         11    1    4    4    0    0 -0.38851732152E-01  0.55092894861E+02 -0.10688696902E+03  0.12024995934E+03  0.00000000000E+00 0. -1.
        -12    1    4    4    0    0 -0.44176384794E+02  0.75750504600E+01 -0.22283128271E+02  0.50054691773E+02  0.00000000000E+00 0.  1.
</event>
<event>
12    1  0.8453150E-002  0.1972268E+03  0.7818608E-02  0.1152263E+00
         21   -1    0    0  501  502  0.00000000000E+00  0.00000000000E+00  0.74237377809E+02  0.74237377809E+02  0.00000000000E+00 0. -1.
         21   -1    0    0  502  503 -0.00000000000E+00 -0.00000000000E+00 -0.58056838857E+03  0.58056838857E+03  0.00000000000E+00 0. -1.
         -6    2    1    2    0  503  0.83055265908E+02 -0.47572828101E+02 -0.35674893467E+03  0.40727150721E+03  0.17157775795E+03 0.  0.
        -24    2    3    3    0    0  0.95109881978E+02 -0.36833324538E+01 -0.14803590428E+03  0.19360162011E+03  0.80669088036E+02 0.  0.
          6    2    1    2  501    0 -0.83055265908E+02  0.47572828101E+02 -0.14958207609E+03  0.24753425917E+03  0.17244437019E+03 0.  0.
         24    2    5    5    0    0 -0.16431430348E+02 -0.34787350840E+02 -0.86971948395E+02  0.12439185125E+03  0.80181426575E+02 0.  0.
          5    1    5    5  501    0 -0.66623835560E+02  0.82360178942E+02 -0.62610127693E+02  0.12314240793E+03  0.47000000000E+01 0. -1.
        -13    1    6    6    0    0 -0.13706217734E+02  0.21127722455E+02 -0.58935497787E+01  0.25864550831E+02  0.00000000000E+00 0.  1.
         14    1    6    6    0    0 -0.27252126140E+01 -0.55915073295E+02 -0.81078398616E+02  0.98527300417E+02  0.00000000000E+00 0. -1.
         -5    1    3    3    0  503 -0.12054616070E+02 -0.43889495648E+02 -0.20871303039E+03  0.21366988710E+03  0.47000000000E+01 0.  1.
         11    1    4    4    0    0  0.98279680915E+02 -0.20139532866E+02 -0.95696151430E+02  0.13864432864E+03  0.00000000000E+00 0. -1.
        -12    1    4    4    0    0 -0.31697989367E+01  0.16456200412E+02 -0.52339752853E+02  0.54957291473E+02  0.00000000000E+00 0.  1.
</event>
<event>
12    1  0.8453150E-002  0.2433261E+03  0.7818608E-02  0.1117649E+00
         21   -1    0    0  501  502  0.00000000000E+00  0.00000000000E+00  0.10674539313E+04  0.10674539313E+04  0.00000000000E+00 0. -1.
         21   -1    0    0  502  503 -0.00000000000E+00 -0.00000000000E+00 -0.13109962130E+03  0.13109962130E+03  0.00000000000E+00 0. -1.
         -6    2    1    2    0  503 -0.16975859390E+03  0.24197203641E+02  0.12908241541E+02  0.24366826878E+03  0.17263869103E+03 0.  0.
        -24    2    3    3    0    0 -0.51008681610E+02 -0.85473205110E+01  0.57432934851E+02  0.11260231650E+03  0.81888933250E+02 0.  0.
          6    2    1    2  501    0  0.16975859390E+03 -0.24197203641E+02  0.92344606846E+03  0.95488528381E+03  0.17219111193E+03 0.  0.
         24    2    5    5    0    0  0.14428028887E+03 -0.35400889491E+02  0.48564289918E+03  0.51617310980E+03  0.92280165892E+02 0.  0.
          5    1    5    5  501    0  0.25478305028E+02  0.11203685850E+02  0.43780316927E+03  0.43871217401E+03  0.47000000000E+01 0. -1.
        -13    1    6    6    0    0  0.10495144731E+02 -0.11796583662E+02  0.47929321322E+01  0.16500898383E+02  0.00000000000E+00 0.  1.
         14    1    6    6    0    0  0.13378514414E+03 -0.23604305829E+02  0.48084996705E+03  0.49967221141E+03  0.00000000000E+00 0. -1.
         -5    1    3    3    0  503 -0.11874991229E+03  0.32744524152E+02 -0.44524693310E+02  0.13106595227E+03  0.47000000000E+01 0.  1.
         13    1    4    4    0    0 -0.48134566770E+02  0.19810935088E+02  0.42032313593E+01  0.52221421093E+02  0.00000000000E+00 0. -1.
        -14    1    4    4    0    0 -0.28741148400E+01 -0.28358255599E+02  0.53229703492E+02  0.60380895410E+02  0.00000000000E+00 0.  1.
</event>
<event>
12    1  0.8453150E-002  0.2445164E+03  0.7818608E-02  0.1116947E+00
         21   -1    0    0  501  502  0.00000000000E+00  0.00000000000E+00  0.39522615748E+03  0.39522615748E+03  0.00000000000E+00 0. -1.
         21   -1    0    0  502  503 -0.00000000000E+00 -0.00000000000E+00 -0.15941405155E+03  0.15941405155E+03  0.00000000000E+00 0. -1.
         -6    2    1    2    0  503 -0.13816233685E+03 -0.10376874442E+03  0.53240336929E+02  0.24948334745E+03  0.17190294802E+03 0.  0.
        -24    2    3    3    0    0  0.12238588961E+02 -0.53423567611E+02  0.17839723614E+02  0.86909152895E+02  0.65046786871E+02 0.  0.
          6    2    1    2  501    0  0.13816233685E+03  0.10376874442E+03  0.18257176901E+03  0.30515686158E+03  0.17300715501E+03 0.  0.
         24    2    5    5    0    0  0.79280989752E+02 -0.11559459592E+02  0.11247662373E+03  0.15783738877E+03  0.76436600956E+02 0.  0.
          5    1    5    5  501    0  0.58881347097E+02  0.11532820401E+03  0.70095145276E+02  0.14731947281E+03  0.47000000000E+01 0. -1.
        -13    1    6    6    0    0  0.51061856390E+02  0.81346685106E+01  0.14067699728E+02  0.53585316883E+02  0.00000000000E+00 0.  1.
         14    1    6    6    0    0  0.28219133363E+02 -0.19694128102E+02  0.98408924004E+02  0.10425207189E+03  0.00000000000E+00 0. -1.
         -5    1    3    3    0  503 -0.15040092581E+03 -0.50345176808E+02  0.35400613315E+02  0.16257419456E+03  0.47000000000E+01 0.  1.
         13    1    4    4    0    0  0.21371598165E+02 -0.65094876343E+02  0.21189571155E+02  0.71715312591E+02  0.00000000000E+00 0. -1.
        -14    1    4    4    0    0 -0.91330092041E+01  0.11671308732E+02 -0.33498475405E+01  0.15193840304E+02  0.00000000000E+00 0.  1.
</event>
<event>
12    1  0.8453150E-002  0.2607559E+03  0.7818608E-02  0.1106957E+00
         21   -1    0    0  501  502  0.00000000000E+00  0.00000000000E+00  0.86476242413E+02  0.86476242413E+02  0.00000000000E+00 0. -1.
         21   -1    0    0  502  503 -0.00000000000E+00 -0.00000000000E+00 -0.78091302248E+03  0.78091302248E+03  0.00000000000E+00 0.  1.
         -6    2    1    2    0  503 -0.17931370674E+03 -0.81093637631E+02 -0.34882055111E+03  0.43551052544E+03  0.17106740603E+03 0.  0.
        -24    2    3    3    0    0 -0.17844477411E+03 -0.28725700885E+02 -0.21964040720E+03  0.29603739031E+03  0.82027584909E+02 0.  0.
          6    2    1    2  501    0  0.17931370674E+03  0.81093637631E+02 -0.34561622895E+03  0.43187873945E+03  0.16834216460E+03 0.  0.
         24    2    5    5    0    0  0.11569506871E+03  0.11109567024E+03 -0.29522807256E+03  0.34522708413E+03  0.79338060950E+02 0.  0.
          5    1    5    5  501    0  0.63618638031E+02 -0.30002032610E+02 -0.50388156388E+02  0.86651655321E+02  0.47000000000E+01 0. -1.
        -11    1    6    6    0    0  0.10587644657E+03  0.53870834864E+02 -0.17236721883E+03  0.20933787740E+03  0.00000000000E+00 0.  1.
         12    1    6    6    0    0  0.98186221380E+01  0.57224835377E+02 -0.12286085374E+03  0.13588920673E+03  0.00000000000E+00 0. -1.
         -5    1    3    3    0  503 -0.86893262277E+00 -0.52367936746E+02 -0.12918014391E+03  0.13947313513E+03  0.47000000000E+01 0.  1.
         13    1    4    4    0    0 -0.72103911661E+02 -0.14551408568E+02 -0.15294495425E+03  0.16971410254E+03  0.00000000000E+00 0. -1.
        -14    1    4    4    0    0 -0.10634086245E+03 -0.14174292317E+02 -0.66695452947E+02  0.12632328777E+03  0.00000000000E+00 0.  1.
</event>
<event>
12    1  0.8453150E-002  0.2788164E+03  0.7818608E-02  0.1096342E+00
         21   -1    0    0  503  502  0.00000000000E+00  0.00000000000E+00  0.55728888011E+03  0.55728888011E+03  0.00000000000E+00 0.  1.
         21   -1    0    0  501  503 -0.00000000000E+00 -0.00000000000E+00 -0.13973241951E+03  0.13973241951E+03  0.00000000000E+00 0.  1.
          6    2    1    2  501    0  0.43318073159E+02  0.21464843285E+03  0.22365419429E+03  0.35743504399E+03  0.17259260372E+03 0.  0.
         24    2    3    3    0    0  0.34649072098E+02  0.17077402110E+03  0.82978156904E+02  0.20974634069E+03  0.82120816077E+02 0.  0.
         -6    2    1    2    0  502 -0.43318073159E+02 -0.21464843285E+03  0.19390226631E+03  0.33958625562E+03  0.17254080949E+03 0.  0.
        -24    2    5    5    0    0  0.12925206977E+02 -0.20569680785E+03  0.16358393091E+03  0.27489676952E+03  0.79563142906E+02 0.  0.
          5    1    3    3  501    0  0.86690010613E+01  0.43874411757E+02  0.14067603739E+03  0.14768870330E+03  0.47000000000E+01 0. -1.
        -11    1    4    4    0    0  0.61832666867E+01  0.32408264356E+02  0.57370086190E+02  0.66180474273E+02  0.00000000000E+00 0.  1.
         12    1    4    4    0    0  0.28465805411E+02  0.13836575674E+03  0.25608070713E+02  0.14356586642E+03  0.00000000000E+00 0. -1.
         -5    1    5    5    0  502 -0.56243280136E+02 -0.89516250076E+01  0.30318335399E+02  0.64689486102E+02  0.47000000000E+01 0.  1.
         11    1    6    6    0    0  0.27478422350E+02 -0.68644416012E+02  0.96623989858E+02  0.12166887425E+03  0.00000000000E+00 0. -1.
        -12    1    6    6    0    0 -0.14553215373E+02 -0.13705239183E+03  0.66959941048E+02  0.15322789527E+03  0.00000000000E+00 0.  1.
</event>
<event>
12    1  0.8453150E-002  0.1837441E+03  0.7818608E-02  0.1164990E+00
         21   -1    0    0  503  502  0.00000000000E+00  0.00000000000E+00  0.25604633125E+02  0.25604633125E+02  0.00000000000E+00 0.  1.
         21   -1    0    0  501  503 -0.00000000000E+00 -0.00000000000E+00 -0.13100574902E+04  0.13100574902E+04  0.00000000000E+00 0.  1.
          6    2    1    2  501    0  0.44140384383E+02  0.39111886972E+02 -0.70658211022E+03  0.72928230421E+03  0.17063495395E+03 0.  0.
         24    2    3    3    0    0  0.83189261212E+02  0.55103514384E+02 -0.61722574173E+03  0.63035203827E+03  0.80120068749E+02 0.  0.
         -6    2    1    2    0  502 -0.44140384383E+02 -0.39111886972E+02 -0.57787074684E+03  0.60637981911E+03  0.17402233111E+03 0.  0.
        -24    2    5    5    0    0 -0.20173007694E+02 -0.92538272452E+02 -0.43157099716E+03  0.44872665368E+03  0.78305823711E+02 0.  0.
          5    1    3    3  501    0 -0.39048876830E+02 -0.15991627412E+02 -0.89356368489E+02  0.98930265938E+02  0.47000000000E+01 0. -1.
        -11    1    4    4    0    0  0.47264182669E+02  0.12485402162E+02 -0.47632012335E+03  0.47882214667E+03  0.00000000000E+00 0.  1.
         12    1    4    4    0    0  0.35925078543E+02  0.42618112222E+02 -0.14090561838E+03  0.15152989160E+03  0.00000000000E+00 0. -1.
         -5    1    5    5    0  502 -0.23967376689E+02  0.53426385480E+02 -0.14629974968E+03  0.15765316542E+03  0.47000000000E+01 0.  1.
         13    1    6    6    0    0  0.13548054050E+02 -0.12895415186E+02 -0.21066245405E+03  0.21149116068E+03  0.00000000000E+00 0. -1.
        -14    1    6    6    0    0 -0.33721061744E+02 -0.79642857266E+02 -0.22090854311E+03  0.23723549300E+03  0.00000000000E+00 0.  1.
</event>
<event>
12    1  0.8453150E-002  0.2978801E+03  0.7818608E-02  0.1086332E+00
         21   -1    0    0  503  502  0.00000000000E+00  0.00000000000E+00  0.22919788796E+03  0.22919788796E+03  0.00000000000E+00 0. -1.
         21   -1    0    0  501  503 -0.00000000000E+00 -0.00000000000E+00 -0.59516208983E+03  0.59516208983E+03  0.00000000000E+00 0. -1.
          6    2    1    2  501    0 -0.15344039547E+03 -0.18895209465E+03 -0.42677941725E+03  0.52033524328E+03  0.17135123395E+03 0.  0.
         24    2    3    3    0    0 -0.17172872362E+03 -0.19372394094E+03 -0.41847843786E+03  0.49916380681E+03  0.83788920862E+02 0.  0.
         -6    2    1    2    0  502  0.15344039547E+03  0.18895209465E+03  0.60815215372E+02  0.30402473451E+03  0.17171400566E+03 0.  0.
        -24    2    5    5    0    0  0.17361216898E+03  0.17199645480E+03  0.82468497726E+02  0.26959583959E+03  0.78465902954E+02 0.  0.
          5    1    3    3  501    0  0.18288328149E+02  0.47718462909E+01 -0.83009793839E+01  0.21171436471E+02  0.47000000000E+01 0. -1.
        -13    1    4    4    0    0 -0.68414559949E+02 -0.11349677982E+03 -0.14764404197E+03  0.19839565059E+03  0.00000000000E+00 0.  1.
         14    1    4    4    0    0 -0.10331416367E+03 -0.80227161117E+02 -0.27083439589E+03  0.30076815622E+03  0.00000000000E+00 0. -1.
         -5    1    5    5    0  502 -0.20171773506E+02  0.16955639851E+02 -0.21653282354E+02  0.34428894926E+02  0.47000000000E+01 0.  1.
         11    1    6    6    0    0  0.58809949479E+02  0.10950886082E+03  0.24889176729E+02  0.12676857605E+03  0.00000000000E+00 0. -1.
        -12    1    6    6    0    0  0.11480221950E+03  0.62487593975E+02  0.57579320997E+02  0.14282726354E+03  0.00000000000E+00 0.  1.
</event>
<event>
12    1  0.8453150E-002  0.2217735E+03  0.7818608E-02  0.1133365E+00
         21   -1    0    0  503  502  0.00000000000E+00  0.00000000000E+00  0.15995597879E+04  0.15995597879E+04  0.00000000000E+00 0. -1.
         21   -1    0    0  501  503 -0.00000000000E+00 -0.00000000000E+00 -0.47034000133E+02  0.47034000133E+02  0.00000000000E+00 0.  1.
          6    2    1    2  501    0  0.84931275081E+02 -0.96871592343E+02  0.27827600760E+03  0.35318897567E+03  0.17523552504E+03 0.  0.
         24    2    3    3    0    0  0.42666855172E+02  0.15907576248E+02  0.15636449271E+03  0.18175406230E+03  0.80691840162E+02 0.  0.
         -6    2    1    2    0  502 -0.84931275081E+02  0.96871592343E+02  0.12742497802E+04  0.12934048124E+04  0.18051614753E+03 0.  0.
        -24    2    5    5    0    0 -0.12704286742E+03  0.88091049009E+02  0.89490178184E+03  0.91159664328E+03  0.79115850617E+02 0.  0.
          5    1    3    3  501    0  0.42264419909E+02 -0.11277916859E+03  0.12191151489E+03  0.17143491337E+03  0.47000000000E+01 0. -1.
        -13    1    4    4    0    0  0.53866870922E+02  0.33333312662E+01  0.48428834280E+02  0.72512777288E+02  0.00000000000E+00 0.  1.
         14    1    4    4    0    0 -0.11200015750E+02  0.12574244981E+02  0.10793565843E+03  0.10924128501E+03  0.00000000000E+00 0. -1.
         -5    1    5    5    0  502  0.42111592340E+02  0.87805433345E+01  0.37934799836E+03  0.38180816912E+03  0.47000000000E+01 0.  1.
         11    1    6    6    0    0 -0.11320165560E+03  0.65075883850E+02  0.84403516098E+03  0.85407542902E+03  0.00000000000E+00 0. -1.
        -12    1    6    6    0    0 -0.13841211817E+02  0.23015165158E+02  0.50866620868E+02  0.57521214263E+02  0.00000000000E+00 0.  1.
</event>
<event>
12    1  0.8453150E-002  0.2086948E+03  0.7818608E-02  0.1143418E+00
         21   -1    0    0  501  502  0.00000000000E+00  0.00000000000E+00  0.14127035295E+04  0.14127035295E+04  0.00000000000E+00 0.  1.
         21   -1    0    0  502  503 -0.00000000000E+00 -0.00000000000E+00 -0.90877199724E+02  0.90877199724E+02  0.00000000000E+00 0.  1.
         -6    2    1    2    0  503  0.71975577002E+01  0.11047722254E+03  0.48952566253E+02  0.21435923073E+03  0.17690818104E+03 0.  0.
        -24    2    3    3    0    0 -0.19844774346E+02  0.11838763296E+03  0.86284626388E+02  0.16735247558E+03  0.78437029674E+02 0.  0.
          6    2    1    2  501    0 -0.71975577002E+01 -0.11047722254E+03  0.12728737635E+04  0.12892214985E+04  0.17212621179E+03 0.  0.
         24    2    5    5    0    0  0.15522846311E+01 -0.10179423869E+03  0.12680017433E+04  0.12751580519E+04  0.88516437051E+02 0.  0.
          5    1    5    5  501    0 -0.87498423312E+01 -0.86829838426E+01  0.48720201878E+01  0.14063446588E+02  0.47000000000E+01 0. -1.
        -13    1    6    6    0    0 -0.35528717523E+02 -0.72898298672E+02  0.59272236850E+03  0.59824431284E+03  0.00000000000E+00 0.  1.
         14    1    6    6    0    0  0.37081002154E+02 -0.28895940022E+02  0.67527937484E+03  0.67691373908E+03  0.00000000000E+00 0. -1.
         -5    1    3    3    0  503  0.27042332047E+02 -0.79104104261E+01 -0.37332060135E+02  0.47006755148E+02  0.47000000000E+01 0.  1.
         11    1    4    4    0    0 -0.18016591224E+02  0.74310930499E+02  0.95445236158E+02  0.12229679087E+03  0.00000000000E+00 0. -1.
        -12    1    4    4    0    0 -0.18281831226E+01  0.44076702464E+02 -0.91606097693E+01  0.45055684713E+02  0.00000000000E+00 0.  1.
</event>
<event>
12    1  0.8453150E-002  0.2033467E+03  0.7818608E-02  0.1148024E+00
         21   -1    0    0  503  502  0.00000000000E+00  0.00000000000E+00  0.18093693937E+02  0.18093693937E+02  0.00000000000E+00 0.  1.
         21   -1    0    0  501  503 -0.00000000000E+00 -0.00000000000E+00 -0.22448291295E+04  0.22448291295E+04  0.00000000000E+00 0. -1.
          6    2    1    2  501    0 -0.98751816932E+02 -0.20531783694E+02 -0.10290010715E+04  0.10489008936E+04  0.17656841173E+03 0.  0.
         24    2    3    3    0    0 -0.34330231949E+02  0.24319970586E+02 -0.25707985757E+03  0.27298448641E+03  0.81611585321E+02 0.  0.
         -6    2    1    2    0  502  0.98751816932E+02  0.20531783694E+02 -0.11977343640E+04  0.12140219298E+04  0.17061114766E+03 0.  0.
        -24    2    5    5    0    0  0.64658222768E+02  0.55312638318E+02 -0.10837471410E+04  0.10899765428E+04  0.79377733234E+02 0.  0.
          5    1    3    3  501    0 -0.64421584983E+02 -0.44851754281E+02 -0.77192121394E+03  0.77591640722E+03  0.47000000000E+01 0. -1.
        -11    1    4    4    0    0 -0.14419299499E+02 -0.28202729951E+02 -0.57457357218E+02  0.65609893104E+02  0.00000000000E+00 0.  1.
         12    1    4    4    0    0 -0.19910932451E+02  0.52522700537E+02 -0.19962250035E+03  0.20737459331E+03  0.00000000000E+00 0. -1.
         -5    1    5    5    0  502  0.34093594164E+02 -0.34780854624E+02 -0.11398722301E+03  0.12404538694E+03  0.47000000000E+01 0.  1.
         11    1    6    6    0    0  0.38792239146E+02  0.40005697177E+02 -0.27080612723E+03  0.27648011170E+03  0.00000000000E+00 0. -1.
        -12    1    6    6    0    0  0.25865983622E+02  0.15306941142E+02 -0.81294101378E+03  0.81349643112E+03  0.00000000000E+00 0.  1.
</event>
<event>
12    1  0.8453150E-002  0.1887541E+03  0.7818608E-02  0.1160017E+00
         21   -1    0    0  503  502  0.00000000000E+00  0.00000000000E+00  0.23641885366E+04  0.23641885366E+04  0.00000000000E+00 0. -1.
         21   -1    0    0  501  503 -0.00000000000E+00 -0.00000000000E+00 -0.21726919206E+02  0.21726919206E+02  0.00000000000E+00 0. -1.
          6    2    1    2  501    0 -0.20532558816E+02  0.73763534182E+02  0.49955259323E+03  0.53336537549E+03  0.17047928151E+03 0.  0.
         24    2    3    3    0    0 -0.77759347119E+02  0.66293380182E+02  0.32103357741E+03  0.34569055697E+03  0.77447240290E+02 0.  0.
         -6    2    1    2    0  502  0.20532558816E+02 -0.73763534182E+02  0.18429090241E+04  0.18525500803E+04  0.17252676250E+03 0.  0.
        -24    2    5    5    0    0  0.43423813506E+02  0.10260145791E+02  0.12357555258E+04  0.12391648433E+04  0.80292535792E+02 0.  0.
          5    1    3    3  501    0  0.57226788303E+02  0.74701539992E+01  0.17851901581E+03  0.18767481852E+03  0.47000000000E+01 0. -1.
        -13    1    4    4    0    0 -0.67313395538E+02  0.10900692710E+02  0.13408232604E+03  0.15042602327E+03  0.00000000000E+00 0.  1.
         14    1    4    4    0    0 -0.10445951582E+02  0.55392687473E+02  0.18695125137E+03  0.19526453370E+03  0.00000000000E+00 0. -1.
         -5    1    5    5    0  502 -0.22891254690E+02 -0.84023679973E+02  0.60715349838E+03  0.61338523697E+03  0.47000000000E+01 0.  1.
         13    1    6    6    0    0 -0.40553949214E+01  0.21459277306E+02  0.85732401914E+03  0.85760213421E+03  0.00000000000E+00 0. -1.
        -14    1    6    6    0    0  0.47479208427E+02 -0.11199131515E+02  0.37843150662E+03  0.38156270911E+03  0.00000000000E+00 0.  1.
</event>
<event>
12    1  0.8453150E-002  0.1797335E+03  0.7818608E-02  0.1170929E+00
         21   -1    0    0  501  502  0.00000000000E+00  0.00000000000E+00  0.54575155284E+03  0.54575155284E+03  0.00000000000E+00 0.  1.
         21   -1    0    0  502  503 -0.00000000000E+00 -0.00000000000E+00 -0.69477387410E+02  0.69477387410E+02  0.00000000000E+00 0. -1.
         -6    2    1    2    0  503  0.26077980982E+02  0.45255870462E+02  0.93929775618E+02  0.19274655958E+03  0.16000087056E+03 0.  0.
        -24    2    3    3    0    0  0.57522402946E+01 -0.20339955836E+02  0.80409221977E+01  0.82678701859E+02  0.79525525710E+02 0.  0.
          6    2    1    2  501    0 -0.26077980982E+02 -0.45255870462E+02  0.38234438982E+03  0.42248238067E+03  0.17197666891E+03 0.  0.
         24    2    5    5    0    0 -0.58675694682E+02  0.22325251468E+02  0.17908727428E+03  0.20576744349E+03  0.79540775663E+02 0.  0.
          5    1    5    5  501    0  0.32597713700E+02 -0.67581121931E+02  0.20325711554E+03  0.21671493718E+03  0.47000000000E+01 0. -1.
        -13    1    6    6    0    0 -0.64661369361E+02  0.22738295064E+02  0.18503308141E+03  0.19732046008E+03  0.00000000000E+00 0.  1.
         14    1    6    6    0    0  0.59856746795E+01 -0.41304359559E+00 -0.59458071290E+01  0.84469834140E+01  0.00000000000E+00 0. -1.
         -5    1    3    3    0  503  0.20325740687E+02  0.65595826298E+02  0.85888853420E+02  0.11006785772E+03  0.47000000000E+01 0.  1.
         11    1    4    4    0    0 -0.30955926238E+02 -0.17842484353E+02 -0.15555549628E+02  0.38969202472E+02  0.00000000000E+00 0. -1.
        -12    1    4    4    0    0  0.36708166532E+02 -0.24974714828E+01  0.23596471826E+02  0.43709499386E+02  0.00000000000E+00 0.  1.
</event>
<event>
12    1  0.8453150E-002  0.1734208E+03  0.7818608E-02  0.1174535E+00
         21   -1    0    0  503  502  0.00000000000E+00  0.00000000000E+00  0.92974997462E+03  0.92974997462E+03  0.00000000000E+00 0.  1.
         21   -1    0    0  501  503 -0.00000000000E+00 -0.00000000000E+00 -0.37895035048E+02  0.37895035048E+02  0.00000000000E+00 0.  1.
          6    2    1    2  501    0 -0.76911194577E+01 -0.12842311473E+02  0.25917857155E+03  0.31184660855E+03  0.17277354262E+03 0.  0.
         24    2    3    3    0    0 -0.58509508026E+02  0.38888891685E+02  0.15637252743E+03  0.18595062488E+03  0.72038594742E+02 0.  0.
         -6    2    1    2    0  502  0.76911194577E+01  0.12842311473E+02  0.63267636802E+03  0.65579840111E+03  0.17195370881E+03 0.  0.
        -24    2    5    5    0    0  0.51677811681E+01 -0.18964969070E+02  0.14476957151E+03  0.16682682484E+03  0.80539335949E+02 0.  0.
          5    1    3    3  501    0  0.50818388568E+02 -0.51731203158E+02  0.10280604412E+03  0.12589598367E+03  0.47000000000E+01 0. -1.
        -11    1    4    4    0    0 -0.18404845577E+02  0.12426463109E+02  0.12849664179E+03  0.13040146578E+03  0.00000000000E+00 0.  1.
         12    1    4    4    0    0 -0.40104662449E+02  0.26462428576E+02  0.27875885636E+02  0.55549159096E+02  0.00000000000E+00 0. -1.
         -5    1    5    5    0  502  0.25233382896E+01  0.31807280542E+02  0.48790679650E+03  0.48897157628E+03  0.47000000000E+01 0.  1.
         11    1    6    6    0    0 -0.30793571457E+02  0.11837808320E+02  0.39966552379E+02  0.51823769237E+02  0.00000000000E+00 0. -1.
        -12    1    6    6    0    0  0.35961352625E+02 -0.30802777389E+02  0.10480301914E+03  0.11500305560E+03  0.00000000000E+00 0.  1.
</event>
<event>
12    1  0.8453150E-002  0.1766439E+03  0.7818608E-02  0.1171248E+00
         21   -1    0    0  501  502  0.00000000000E+00  0.00000000000E+00  0.15801641706E+03  0.15801641706E+03  0.00000000000E+00 0.  1.
         21   -1    0    0  502  503 -0.00000000000E+00 -0.00000000000E+00 -0.52551832294E+03  0.52551832294E+03  0.00000000000E+00 0.  1.
         -6    2    1    2    0  503  0.13239157268E+02 -0.40588607041E+02 -0.45419089385E+03  0.48733196622E+03  0.17140702126E+03 0.  0.
        -24    2    3    3    0    0  0.31767474453E+01 -0.46177783475E+02 -0.11561603261E+03  0.14852890005E+03  0.80940025589E+02 0.  0.
          6    2    1    2  501    0 -0.13239157268E+02  0.40588607041E+02  0.86688987963E+02  0.19620277378E+03  0.17075666165E+03 0.  0.
         24    2    5    5    0    0  0.43702909766E+02  0.32631732521E+02  0.11890277435E+02  0.10174300485E+03  0.85061660274E+02 0.  0.
          5    1    5    5  501    0 -0.56942067035E+02  0.79568745200E+01  0.74798710528E+02  0.94459768933E+02  0.47000000000E+01 0. -1.
        -13    1    6    6    0    0  0.25989996060E+02  0.72619724536E+01  0.47462029721E+02  0.54597256381E+02  0.00000000000E+00 0.  1.
         14    1    6    6    0    0  0.17712913706E+02  0.25369760067E+02 -0.35571752286E+02  0.47145748467E+02  0.00000000000E+00 0. -1.
         -5    1    3    3    0  503  0.10062409823E+02  0.55891764343E+01 -0.33857486123E+03  0.33880306616E+03  0.47000000000E+01 0.  1.
         11    1    4    4    0    0  0.31418370074E+02 -0.40546930080E+02 -0.10668893366E+03  0.11837945803E+03  0.00000000000E+00 0. -1.
        -12    1    4    4    0    0 -0.28241622628E+02 -0.56308533950E+01 -0.89270989502E+01  0.30149442023E+02  0.00000000000E+00 0.  1.
</event>
<event>
12    1  0.8453150E-002  0.2493834E+03  0.7818608E-02  0.1113738E+00
         21   -1    0    0  503  502  0.00000000000E+00  0.00000000000E+00  0.12631511930E+03  0.12631511930E+03  0.00000000000E+00 0. -1.
         21   -1    0    0  501  503 -0.00000000000E+00 -0.00000000000E+00 -0.49183101853E+03  0.49183101853E+03  0.00000000000E+00 0.  1.
          6    2    1    2  501    0  0.18045315637E+03 -0.16654340130E+02 -0.18174909609E+03  0.30858518459E+03  0.17132242566E+03 0.  0.
         24    2    3    3    0    0  0.39878055338E+02 -0.40820307745E+02 -0.33803652531E+02  0.10302425132E+03  0.78833702268E+02 0.  0.
         -6    2    1    2    0  502 -0.18045315637E+03  0.16654340130E+02 -0.18376680315E+03  0.30956095324E+03  0.17092991881E+03 0.  0.
        -24    2    5    5    0    0 -0.74474687320E+02  0.69328567033E+02 -0.98325399596E+02  0.16351872126E+03  0.81960714599E+02 0.  0.
          5    1    3    3  501    0  0.14057510103E+03  0.24165967614E+02 -0.14794544356E+03  0.20556093327E+03  0.47000000000E+01 0. -1.
        -11    1    4    4    0    0  0.19946035169E+02  0.22991180169E+02 -0.11788929985E+02  0.32640734592E+02  0.00000000000E+00 0.  1.
         12    1    4    4    0    0  0.19932020169E+02 -0.63811487914E+02 -0.22014722546E+02  0.70383516725E+02  0.00000000000E+00 0. -1.
         -5    1    5    5    0  502 -0.10597846905E+03 -0.52674226903E+02 -0.85441403551E+02  0.14604223198E+03  0.47000000000E+01 0.  1.
         11    1    6    6    0    0 -0.90261235768E+02  0.70414353240E+02 -0.82252517020E+02  0.14096364205E+03  0.00000000000E+00 0. -1.
        -12    1    6    6    0    0  0.15786548449E+02 -0.10857862066E+01 -0.16072882577E+02  0.22555079205E+02  0.00000000000E+00 0.  1.
</event>
<event>
12    1  0.8453150E-002  0.1865820E+03  0.7818608E-02  0.1161635E+00
         21   -1    0    0  501  502  0.00000000000E+00  0.00000000000E+00  0.92141287050E+02  0.92141287050E+02  0.00000000000E+00 0.  1.
         21   -1    0    0  502  503 -0.00000000000E+00 -0.00000000000E+00 -0.44750532770E+03  0.44750532770E+03  0.00000000000E+00 0.  1.
         -6    2    1    2    0  503  0.68350869696E+02 -0.15324606891E+02 -0.28442682850E+03  0.34003464402E+03  0.17267962647E+03 0.  0.
        -24    2    3    3    0    0  0.51959958697E+02  0.33997074342E+02 -0.78215564464E+02  0.12732247789E+03  0.78979114204E+02 0.  0.
          6    2    1    2  501    0 -0.68350869696E+02  0.15324606891E+02 -0.70937212148E+02  0.19961197073E+03  0.17293399269E+03 0.  0.
         24    2    5    5    0    0 -0.45557546029E+02  0.40346422872E+02  0.22004398132E+02  0.10058742933E+03  0.77008529154E+02 0.  0.
          5    1    5    5  501    0 -0.22793323667E+02 -0.25021815981E+02 -0.92941610280E+02  0.99024541403E+02  0.47000000000E+01 0. -1.
        -13    1    6    6    0    0 -0.46282529218E+02  0.12965636719E+02 -0.18659293050E+02  0.51559184084E+02  0.00000000000E+00 0.  1.
         14    1    6    6    0    0  0.72498318817E+00  0.27380786153E+02  0.40663691182E+02  0.49028245242E+02  0.00000000000E+00 0. -1.
         -5    1    3    3    0  503  0.16390910999E+02 -0.49321681233E+02 -0.20621126404E+03  0.21271216613E+03  0.47000000000E+01 0.  1.
         11    1    4    4    0    0 -0.50450167308E+01  0.14203049607E+02  0.11668402441E+02  0.19061228383E+02  0.00000000000E+00 0. -1.
        -12    1    4    4    0    0  0.57004975428E+02  0.19794024735E+02 -0.89883966904E+02  0.10826124951E+03  0.00000000000E+00 0.  1.
</event>
<event>
12    1  0.8453150E-002  0.1854514E+03  0.7818608E-02  0.1162850E+00
         21   -1    0    0  503  502  0.00000000000E+00  0.00000000000E+00  0.11814730696E+04  0.11814730696E+04  0.00000000000E+00 0. -1.
         21   -1    0    0  501  503 -0.00000000000E+00 -0.00000000000E+00 -0.29025767690E+02  0.29025767690E+02  0.00000000000E+00 0.  1.
          6    2    1    2  501    0  0.23542193710E+02  0.65815052010E+02  0.60630021649E+03  0.63402852992E+03  0.17177417813E+03 0.  0.
         24    2    3    3    0    0  0.81064058216E+02  0.53762522441E+02  0.44082297305E+03  0.45836169622E+03  0.79427706973E+02 0.  0.
         -6    2    1    2    0  502 -0.23542193710E+02 -0.65815052010E+02  0.54614708543E+03  0.57647030739E+03  0.17074987678E+03 0.  0.
        -24    2    5    5    0    0 -0.10505087543E+02 -0.11076517849E+03  0.43251438513E+03  0.45348672887E+03  0.78754290598E+02 0.  0.
          5    1    3    3  501    0 -0.57521864505E+02  0.12052529569E+02  0.16547724344E+03  0.17566683370E+03  0.47000000000E+01 0. -1.
        -11    1    4    4    0    0  0.35795165064E+02  0.26660878722E+00  0.51114495044E+02  0.62402375963E+02  0.00000000000E+00 0.  1.
         12    1    4    4    0    0  0.45268893151E+02  0.53495913653E+02  0.38970847801E+03  0.39595932026E+03  0.00000000000E+00 0. -1.
         -5    1    5    5    0  502 -0.13037106168E+02  0.44950126476E+02  0.11363270030E+03  0.12298357851E+03  0.47000000000E+01 0.  1.
         11    1    6    6    0    0 -0.24963097919E+02 -0.45282023000E+02  0.84459600245E+02  0.99030510138E+02  0.00000000000E+00 0. -1.
        -12    1    6    6    0    0  0.14458010376E+02 -0.65483155486E+02  0.34805478489E+03  0.35445621873E+03  0.00000000000E+00 0.  1.
</event>
<event>
12    1  0.8453150E-002  0.2812861E+03  0.7818608E-02  0.1095232E+00
         21   -1    0    0  503  502  0.00000000000E+00  0.00000000000E+00  0.22135624888E+03  0.22135624888E+03  0.00000000000E+00 0.  1.
         21   -1    0    0  501  503 -0.00000000000E+00 -0.00000000000E+00 -0.35541637736E+03  0.35541637736E+03  0.00000000000E+00 0. -1.
          6    2    1    2  501    0 -0.18969842740E+03 -0.11389421810E+03 -0.59740393382E+02  0.28756000611E+03  0.17367917618E+03 0.  0.
         24    2    3    3    0    0 -0.55236575837E+02 -0.10278188389E+03 -0.17639520463E+01  0.14063542938E+03  0.78485778993E+02 0.  0.
         -6    2    1    2    0  502  0.18969842740E+03  0.11389421810E+03 -0.74319735099E+02  0.28921262014E+03  0.17077215917E+03 0.  0.
        -24    2    5    5    0    0  0.16097666767E+03  0.38485986012E+02 -0.93278228938E+02  0.20618939786E+03  0.80116047969E+02 0.  0.
          5    1    3    3  501    0 -0.13446185156E+03 -0.11112334215E+02 -0.57976441336E+02  0.14692457673E+03  0.47000000000E+01 0. -1.
        -13    1    4    4    0    0 -0.41376150602E+02 -0.52030578772E+01  0.40984956535E+01  0.41902927303E+02  0.00000000000E+00 0.  1.
         14    1    4    4    0    0 -0.13860425235E+02 -0.97578826010E+02 -0.58624476997E+01  0.98732502076E+02  0.00000000000E+00 0. -1.
         -5    1    5    5    0  502  0.28721759731E+02  0.75408232091E+02  0.18958493839E+02  0.83023222280E+02  0.47000000000E+01 0.  1.
         13    1    6    6    0    0  0.12479221902E+03  0.62404007437E+02 -0.61819691484E+02  0.15260744519E+03  0.00000000000E+00 0. -1.
        -14    1    6    6    0    0  0.36184448646E+02 -0.23918021426E+02 -0.31458537455E+02  0.53581952666E+02  0.00000000000E+00 0.  1.
</event>
<event>
12    1  0.8453150E-002  0.2230834E+03  0.7818608E-02  0.1131807E+00
         21   -1    0    0  501  502  0.00000000000E+00  0.00000000000E+00  0.27706038917E+03  0.27706038917E+03  0.00000000000E+00 0.  1.
         21   -1    0    0  502  503 -0.00000000000E+00 -0.00000000000E+00 -0.26719523511E+03  0.26719523511E+03  0.00000000000E+00 0. -1.
         -6    2    1    2    0  503 -0.13374327079E+03 -0.47467101855E+02 -0.15163412802E+03  0.26973895108E+03  0.17212148243E+03 0.  0.
        -24    2    3    3    0    0 -0.31678125574E+02 -0.47611014942E+02 -0.13349139475E+03  0.16596726251E+03  0.80342189230E+02 0.  0.
          6    2    1    2  501    0  0.13374327079E+03  0.47467101855E+02  0.16149928208E+03  0.27451667319E+03  0.17069562826E+03 0.  0.
         24    2    5    5    0    0  0.70937214385E+02 -0.40847925050E+02  0.84930269544E+02  0.14174224652E+03  0.78594353470E+02 0.  0.
          5    1    5    5  501    0  0.62806056402E+02  0.88315026905E+02  0.76569012538E+02  0.13277442668E+03  0.47000000000E+01 0. -1.
        -11    1    6    6    0    0 -0.67352391996E+01 -0.34805414900E+02  0.23550739507E+02  0.42560752869E+02  0.00000000000E+00 0.  1.
         12    1    6    6    0    0  0.77672453585E+02 -0.60425101495E+01  0.61379530037E+02  0.99181493649E+02  0.00000000000E+00 0. -1.
         -5    1    3    3    0  503 -0.10206514521E+03  0.14391308636E+00 -0.18142733270E+02  0.10377168857E+03  0.47000000000E+01 0.  1.
         11    1    4    4    0    0 -0.46330187128E+01 -0.65261487117E+02 -0.78456685859E+02  0.10215663522E+03  0.00000000000E+00 0. -1.
        -12    1    4    4    0    0 -0.27045106861E+02  0.17650472175E+02 -0.55034708890E+02  0.63810627294E+02  0.00000000000E+00 0.  1.
</event>
<event>
12    1  0.8453150E-002  0.2014075E+03  0.7818608E-02  0.1148764E+00
         21   -1    0    0  501  502  0.00000000000E+00  0.00000000000E+00  0.41109282696E+03  0.41109282696E+03  0.00000000000E+00 0. -1.
         21   -1    0    0  502  503 -0.00000000000E+00 -0.00000000000E+00 -0.21699521448E+03  0.21699521448E+03  0.00000000000E+00 0. -1.
         -6    2    1    2    0  503 -0.36567094218E+02 -0.95679941762E+02 -0.13521268922E+03  0.24258497710E+03  0.17341625111E+03 0.  0.
        -24    2    3    3    0    0 -0.23595245409E+02 -0.11696894361E+03 -0.47481048582E+02  0.15125907042E+03  0.79914873664E+02 0.  0.
          6    2    1    2  501    0  0.36567094218E+02  0.95679941762E+02  0.32931030171E+03  0.38550306435E+03  0.17226588221E+03 0.  0.
         24    2    5    5    0    0  0.65884201876E+02  0.73155756328E+02  0.12489196545E+03  0.17771524486E+03  0.79323467391E+02 0.  0.
          5    1    5    5  501    0 -0.29317107657E+02  0.22524185434E+02  0.20441833626E+03  0.20778781949E+03  0.47000000000E+01 0. -1.
        -13    1    6    6    0    0 -0.44943503012E+01  0.52131998495E+02  0.43168319404E+02  0.67833975645E+02  0.00000000000E+00 0.  1.
         14    1    6    6    0    0  0.70378552177E+02  0.21023757834E+02  0.81723646050E+02  0.10988126921E+03  0.00000000000E+00 0. -1.
         -5    1    3    3    0  503 -0.12971848809E+02  0.21289001850E+02 -0.87731640642E+02  0.91325906681E+02  0.47000000000E+01 0.  1.
         13    1    4    4    0    0  0.82327512558E+01 -0.67790279347E+02 -0.60519064947E+02  0.91246136298E+02  0.00000000000E+00 0. -1.
        -14    1    4    4    0    0 -0.31827996665E+02 -0.49178664266E+02  0.13038016365E+02  0.60012934118E+02  0.00000000000E+00 0.  1.
</event>
<event>
12    1  0.8453150E-002  0.2441020E+03  0.7818608E-02  0.1117173E+00
         21   -1    0    0  503  502  0.00000000000E+00  0.00000000000E+00  0.84432410342E+03  0.84432410342E+03  0.00000000000E+00 0. -1.
         21   -1    0    0  501  503 -0.00000000000E+00 -0.00000000000E+00 -0.71956822097E+02  0.71956822097E+02  0.00000000000E+00 0.  1.
          6    2    1    2  501    0 -0.17189254347E+03  0.12743523481E+02  0.45341929217E+03  0.51495128823E+03  0.17284770999E+03 0.  0.
         24    2    3    3    0    0 -0.11183059204E+03 -0.58476573604E+02  0.25839664206E+03  0.29876695880E+03  0.81038756544E+02 0.  0.
         -6    2    1    2    0  502  0.17189254347E+03 -0.12743523481E+02  0.31894798916E+03  0.40132963729E+03  0.17212848134E+03 0.  0.
        -24    2    5    5    0    0  0.22934458626E+02  0.10806971526E+01  0.60928240335E+02  0.10304135240E+03  0.79863086192E+02 0.  0.
          5    1    3    3  501    0 -0.60061951431E+02  0.71220097085E+02  0.19502265010E+03  0.21618432943E+03  0.47000000000E+01 0. -1.
        -13    1    4    4    0    0 -0.10975131151E+03 -0.26915699028E+02  0.16360483827E+03  0.19883749228E+03  0.00000000000E+00 0.  1.
         14    1    4    4    0    0 -0.20792805354E+01 -0.31560874576E+02  0.94791803793E+02  0.99929466515E+02  0.00000000000E+00 0. -1.
         -5    1    5    5    0  502  0.14895808485E+03 -0.13824220634E+02  0.25801974883E+03  0.29828828489E+03  0.47000000000E+01 0.  1.
         11    1    6    6    0    0  0.14970373463E+02  0.15715938536E+02 -0.14298604383E+02  0.25991400366E+02  0.00000000000E+00 0. -1.
        -12    1    6    6    0    0  0.79640851634E+01 -0.14635241383E+02  0.75226844719E+02  0.77049952038E+02  0.00000000000E+00 0.  1.
</event>
<event>
12    1  0.8453150E-002  0.2215653E+03  0.7818608E-02  0.1133115E+00
         21   -1    0    0  501  502  0.00000000000E+00  0.00000000000E+00  0.70093799886E+02  0.70093799886E+02  0.00000000000E+00 0. -1.
         21   -1    0    0  502  503 -0.00000000000E+00 -0.00000000000E+00 -0.74049012376E+03  0.74049012376E+03  0.00000000000E+00 0. -1.
         -6    2    1    2    0  503  0.70963587660E+02 -0.11873295305E+03 -0.43559131273E+03  0.48774560226E+03  0.17036031196E+03 0.  0.
        -24    2    3    3    0    0  0.30663280612E+01 -0.12114971872E+03 -0.23920613052E+03  0.27988721680E+03  0.80191174928E+02 0.  0.
          6    2    1    2  501    0 -0.70963587660E+02  0.11873295305E+03 -0.23480501115E+03  0.32283832138E+03  0.17308334287E+03 0.  0.
         24    2    5    5    0    0 -0.76805346781E+02  0.11561066291E+03 -0.10231964464E+03  0.19010423690E+03  0.80033896161E+02 0.  0.
          5    1    5    5  501    0  0.58417591213E+01  0.31222901424E+01 -0.13248536651E+03  0.13273408449E+03  0.47000000000E+01 0. -1.
        -13    1    6    6    0    0 -0.72515614706E+01 -0.14779539835E+01  0.10780089505E+02  0.13075925262E+02  0.00000000000E+00 0.  1.
         14    1    6    6    0    0 -0.69553785311E+02  0.11708861689E+03 -0.11309973414E+03  0.17702831164E+03  0.00000000000E+00 0. -1.
         -5    1    3    3    0  503  0.67897259599E+02  0.24167656637E+01 -0.19638518221E+03  0.20785838546E+03  0.47000000000E+01 0.  1.
         13    1    4    4    0    0 -0.29536257965E+01 -0.49562984456E+02 -0.28451270338E+02  0.57224890715E+02  0.00000000000E+00 0. -1.
        -14    1    4    4    0    0  0.60199538577E+01 -0.71586734260E+02 -0.21075486018E+03  0.22266232609E+03  0.00000000000E+00 0.  1.
</event>
<event>
12    1  0.8453150E-002  0.2801997E+03  0.7818608E-02  0.1095934E+00
         21   -1    0    0  501  502  0.00000000000E+00  0.00000000000E+00  0.11351520674E+03  0.11351520674E+03  0.00000000000E+00 0. -1.
         21   -1    0    0  502  503 -0.00000000000E+00 -0.00000000000E+00 -0.72724596477E+03  0.72724596477E+03  0.00000000000E+00 0.  1.
         -6    2    1    2    0  503 -0.20717324551E+03  0.77386505237E+02 -0.20455166260E+03  0.34483839498E+03  0.16781749352E+03 0.  0.
        -24    2    3    3    0    0 -0.12949129369E+03  0.11023071332E+03 -0.17112481009E+03  0.25399417606E+03  0.79438879283E+02 0.  0.
          6    2    1    2  501    0  0.20717324551E+03 -0.77386505237E+02 -0.40917909543E+03  0.49592277653E+03  0.17205360587E+03 0.  0.
         24    2    5    5    0    0  0.20699252952E+03 -0.54442532155E+02 -0.41300032800E+03  0.47219198688E+03  0.81154820953E+02 0.  0.
          5    1    5    5  501    0  0.18071599565E+00 -0.22943973082E+02  0.38212325666E+01  0.23730789650E+02  0.47000000000E+01 0. -1.
        -13    1    6    6    0    0  0.13224859680E+03 -0.54097712390E+02 -0.19508857566E+03  0.24181771274E+03  0.00000000000E+00 0.  1.
         14    1    6    6    0    0  0.74743932715E+02 -0.34481976531E+00 -0.21791175234E+03  0.23037427414E+03  0.00000000000E+00 0. -1.
         -5    1    3    3    0  503 -0.77681951823E+02 -0.32844208083E+02 -0.33426852514E+02  0.90844218928E+02  0.47000000000E+01 0.  1.
         13    1    4    4    0    0 -0.16389210256E+02  0.52216492178E+02 -0.24559531446E+02  0.59986155512E+02  0.00000000000E+00 0. -1.
        -14    1    4    4    0    0 -0.11310208344E+03  0.58014221142E+02 -0.14656527864E+03  0.19400802054E+03  0.00000000000E+00 0.  1.
</event>
<event>
12    1  0.8453150E-002  0.2035553E+03  0.7818608E-02  0.1147183E+00
         21   -1    0    0  503  502  0.00000000000E+00  0.00000000000E+00  0.77299391140E+02  0.77299391140E+02  0.00000000000E+00 0.  1.
         21   -1    0    0  501  503 -0.00000000000E+00 -0.00000000000E+00 -0.53487683997E+03  0.53487683997E+03  0.00000000000E+00 0. -1.
          6    2    1    2  501    0 -0.43369675245E+02 -0.96816370166E+02 -0.25647999983E+03  0.32743967366E+03  0.17372510271E+03 0.  0.
         24    2    3    3    0    0 -0.18943560725E+02 -0.13503927643E+03 -0.20458317974E+03  0.25835280394E+03  0.79356343142E+02 0.  0.
         -6    2    1    2    0  502  0.43369675245E+02  0.96816370166E+02 -0.20109744900E+03  0.28473655745E+03  0.17140707363E+03 0.  0.
        -24    2    5    5    0    0  0.21476227461E+02  0.10650715851E+03 -0.21784305144E+03  0.25514365905E+03  0.76404767717E+02 0.  0.
          5    1    3    3  501    0 -0.24426114520E+02  0.38222906261E+02 -0.51896820084E+02  0.69086869726E+02  0.47000000000E+01 0. -1.
        -13    1    4    4    0    0 -0.43980360012E+02 -0.98298126263E+02 -0.11051116686E+03  0.15430331071E+03  0.00000000000E+00 0.  1.
         14    1    4    4    0    0  0.25036799287E+02 -0.36741150164E+02 -0.94072012881E+02  0.10404949323E+03  0.00000000000E+00 0. -1.
         -5    1    5    5    0  502  0.21893447784E+02 -0.96907883482E+01  0.16745602440E+02  0.29592898401E+02  0.47000000000E+01 0.  1.
         11    1    6    6    0    0 -0.17607969020E+02  0.66692382939E+02 -0.16261373477E+03  0.17663844783E+03  0.00000000000E+00 0. -1.
        -12    1    6    6    0    0  0.39084196481E+02  0.39814775575E+02 -0.55229316672E+02  0.78505211220E+02  0.00000000000E+00 0.  1.
</event>
<event>
12    1  0.8453150E-002  0.1831782E+03  0.7818608E-02  0.1165293E+00
         21   -1    0    0  503  502  0.00000000000E+00  0.00000000000E+00  0.15911107782E+03  0.15911107782E+03  0.00000000000E+00 0.  1.
         21   -1    0    0  501  503 -0.00000000000E+00 -0.00000000000E+00 -0.20833565739E+03  0.20833565739E+03  0.00000000000E+00 0.  1.
          6    2    1    2  501    0 -0.53570623734E+02 -0.21167249578E+02 -0.23534094644E+02  0.18468379582E+03  0.17388613126E+03 0.  0.
         24    2    3    3    0    0 -0.42699117231E+02 -0.68098547610E+02 -0.56881915894E+02  0.12590536805E+03  0.78460069773E+02 0.  0.
         -6    2    1    2    0  502  0.53570623734E+02  0.21167249578E+02 -0.25690484925E+02  0.18276293939E+03  0.17153549725E+03 0.  0.
        -24    2    5    5    0    0  0.59120758320E+02  0.75877882653E+02 -0.12425863004E+02  0.12599941625E+03  0.80428438270E+02 0.  0.
          5    1    3    3  501    0 -0.10871506504E+02  0.46931298032E+02  0.33347821250E+02  0.58778427767E+02  0.47000000000E+01 0. -1.
        -11    1    4    4    0    0  0.47749461500E+01 -0.39193514231E+02  0.81934270953E+01  0.40324482837E+02  0.00000000000E+00 0.  1.
         12    1    4    4    0    0 -0.47474063381E+02 -0.28905033380E+02 -0.65075342989E+02  0.85580885212E+02  0.00000000000E+00 0. -1.
         -5    1    5    5    0  502 -0.55501345862E+01 -0.54710633075E+02 -0.13264621921E+02  0.56763523147E+02  0.47000000000E+01 0.  1.
         11    1    6    6    0    0  0.14569570291E+02  0.65836595387E+02  0.19600197368E+02  0.70220348956E+02  0.00000000000E+00 0. -1.
        -12    1    6    6    0    0  0.44551188029E+02  0.10041287266E+02 -0.32026060372E+02  0.55779067290E+02  0.00000000000E+00 0.  1.
</event>
<event>
12    1  0.8453150E-002  0.1748404E+03  0.7818608E-02  0.1173822E+00
         21   -1    0    0  503  502  0.00000000000E+00  0.00000000000E+00  0.10568365509E+04  0.10568365509E+04  0.00000000000E+00 0. -1.
         21   -1    0    0  501  503 -0.00000000000E+00 -0.00000000000E+00 -0.30184602529E+02  0.30184602529E+02  0.00000000000E+00 0. -1.
          6    2    1    2  501    0 -0.21625089824E+02 -0.17393771565E+02  0.37325862516E+03  0.41063961278E+03  0.16891625893E+03 0.  0.
         24    2    3    3    0    0 -0.57509313203E+02 -0.45273432479E+02  0.33030096342E+03  0.34793073237E+03  0.81240773623E+02 0.  0.
         -6    2    1    2    0  502  0.21625089824E+02  0.17393771565E+02  0.65339332319E+03  0.67638154063E+03  0.17262376983E+03 0.  0.
        -24    2    5    5    0    0 -0.34062939333E+02  0.80887910124E+01  0.56606521058E+03  0.57228529426E+03  0.76517468774E+02 0.  0.
          5    1    3    3  501    0  0.35884223379E+02  0.27879660914E+02  0.42957661741E+02  0.62708880411E+02  0.47000000000E+01 0. -1.
        -13    1    4    4    0    0 -0.14945880289E+02  0.23820535144E+02  0.90762030491E+02  0.95018647701E+02  0.00000000000E+00 0.  1.
         14    1    4    4    0    0 -0.42563432914E+02 -0.69093967623E+02  0.23953893293E+03  0.25291208467E+03  0.00000000000E+00 0. -1.
         -5    1    5    5    0  502  0.55688029157E+02  0.93049805525E+01  0.87328112615E+02  0.10409624637E+03  0.47000000000E+01 0.  1.
         13    1    6    6    0    0  0.19093099426E+02 -0.16209946964E+02  0.20423906519E+03  0.20576905641E+03  0.00000000000E+00 0. -1.
        -14    1    6    6    0    0 -0.53156038760E+02  0.24298737977E+02  0.36182614539E+03  0.36651623786E+03  0.00000000000E+00 0.  1.
</event>
<event>
12    1  0.8453150E-002  0.1833166E+03  0.7818608E-02  0.1165741E+00
         21   -1    0    0  503  502  0.00000000000E+00  0.00000000000E+00  0.10172378567E+03  0.10172378567E+03  0.00000000000E+00 0. -1.
         21   -1    0    0  501  503 -0.00000000000E+00 -0.00000000000E+00 -0.35377666372E+03  0.35377666372E+03  0.00000000000E+00 0. -1.
          6    2    1    2  501    0  0.47217783408E+02 -0.15902544154E+01 -0.19568580827E+03  0.26813784673E+03  0.17712402805E+03 0.  0.
         24    2    3    3    0    0 -0.41441414640E+01 -0.54899082529E+02 -0.61197085950E+02  0.11455013592E+03  0.79659068150E+02 0.  0.
         -6    2    1    2    0  502 -0.47217783408E+02  0.15902544154E+01 -0.56367069780E+02  0.18736260266E+03  0.17232367899E+03 0.  0.
        -24    2    5    5    0    0 -0.52325598280E+02 -0.54867511255E+02 -0.12162252703E+02  0.11532285717E+03  0.86040856392E+02 0.  0.
          5    1    3    3  501    0  0.51361924872E+02  0.53308828113E+02 -0.13448872232E+03  0.15358771082E+03  0.47000000000E+01 0. -1.
        -11    1    4    4    0    0 -0.11567364092E+02 -0.50369505191E+02 -0.79192368887E+02  0.94563852794E+02  0.00000000000E+00 0.  1.
         12    1    4    4    0    0  0.74232226276E+01 -0.45295773380E+01  0.17995282937E+02  0.19986283122E+02  0.00000000000E+00 0. -1.
         -5    1    5    5    0  502  0.51078148714E+01  0.56457765670E+02 -0.44204817076E+02  0.72039745488E+02  0.47000000000E+01 0.  1.
         13    1    6    6    0    0 -0.63229860483E+02 -0.94462290779E+01 -0.21953504956E+02  0.67595879167E+02  0.00000000000E+00 0. -1.
        -14    1    6    6    0    0  0.10904262203E+02 -0.45421282177E+02  0.97912522530E+01  0.47726978005E+02  0.00000000000E+00 0.  1.
</event>
<event>
12    1  0.8453150E-002  0.2289408E+03  0.7818608E-02  0.1127518E+00
         21   -1    0    0  501  502  0.00000000000E+00  0.00000000000E+00  0.31443062794E+03  0.31443062794E+03  0.00000000000E+00 0.  1.
         21   -1    0    0  502  503 -0.00000000000E+00 -0.00000000000E+00 -0.27188509034E+03  0.27188509034E+03  0.00000000000E+00 0. -1.
         -6    2    1    2    0  503 -0.65550305196E+02  0.13477916092E+03 -0.16155709090E+03  0.27960450115E+03  0.17209218086E+03 0.  0.
        -24    2    3    3    0    0 -0.10859958671E+03  0.12077910300E+03 -0.11562999882E+03  0.21494670929E+03  0.80313941845E+02 0.  0.
          6    2    1    2  501    0  0.65550305196E+02 -0.13477916092E+03  0.20410262850E+03  0.30671121714E+03  0.17306537213E+03 0.  0.
         24    2    5    5    0    0  0.30755588459E+02 -0.11522695133E+03  0.58696867223E+02  0.15585404421E+03  0.81375698711E+02 0.  0.
          5    1    5    5  501    0  0.34794716738E+02 -0.19552209590E+02  0.14540576127E+03  0.15085717293E+03  0.47000000000E+01 0. -1.
        -11    1    6    6    0    0  0.33028868911E+02 -0.20015594545E+02  0.45539851152E+02  0.59711039595E+02  0.00000000000E+00 0.  1.
         12    1    6    6    0    0 -0.22732804524E+01 -0.95211356781E+02  0.13157016070E+02  0.96143004613E+02  0.00000000000E+00 0. -1.
         -5    1    3    3    0  503  0.43049281510E+02  0.14000057915E+02 -0.45927092084E+02  0.64657791854E+02  0.47000000000E+01 0.  1.
         11    1    4    4    0    0  0.66676701492E+01 -0.10254060486E+01 -0.21720554031E+02  0.22744048677E+02  0.00000000000E+00 0. -1.
        -12    1    4    4    0    0 -0.11526725686E+03  0.12180450905E+03 -0.93909444787E+02  0.19220266062E+03  0.00000000000E+00 0.  1.
</event>
<event>
12    1  0.8453150E-002  0.1748245E+03  0.7818608E-02  0.1173059E+00
         21   -1    0    0  501  502  0.00000000000E+00  0.00000000000E+00  0.10479948005E+03  0.10479948005E+03  0.00000000000E+00 0.  1.
         21   -1    0    0  502  503 -0.00000000000E+00 -0.00000000000E+00 -0.31752571526E+03  0.31752571526E+03  0.00000000000E+00 0.  1.
         -6    2    1    2    0  503  0.23937193511E+00 -0.28391241996E+02 -0.16797833994E+03  0.24244652239E+03  0.17250354666E+03 0.  0.
        -24    2    3    3    0    0  0.15829454128E+02 -0.43993670045E+02 -0.34019931218E+02  0.10660311368E+03  0.89559217861E+02 0.  0.
          6    2    1    2  501    0 -0.23937193511E+00  0.28391241996E+02 -0.44747895278E+02  0.17987867292E+03  0.17189486007E+03 0.  0.
         24    2    5    5    0    0 -0.14024768635E+02  0.45260728842E+02 -0.89217713995E+02  0.13013662305E+03  0.82039700499E+02 0.  0.
          5    1    5    5  501    0  0.13785396700E+02 -0.16869486846E+02  0.44469818717E+02  0.49742049871E+02  0.47000000000E+01 0. -1.
        -11    1    6    6    0    0 -0.17177988056E+01  0.66479036574E+01  0.15985322166E+02  0.17397585479E+02  0.00000000000E+00 0.  1.
         12    1    6    6    0    0 -0.12306969830E+02  0.38612825185E+02 -0.10520303616E+03  0.11273903757E+03  0.00000000000E+00 0. -1.
         -5    1    3    3    0  503 -0.15590082193E+02  0.15602428049E+02 -0.13395840872E+03  0.13584340871E+03  0.47000000000E+01 0.  1.
         13    1    4    4    0    0  0.38686564916E+02 -0.53980190337E+02 -0.44077977287E+02  0.79708088269E+02  0.00000000000E+00 0. -1.
        -14    1    4    4    0    0 -0.22857110788E+02  0.99865202917E+01  0.10058046068E+02  0.26895025410E+02  0.00000000000E+00 0.  1.
</event>
<event>
12    1  0.8453150E-002  0.1989939E+03  0.7818608E-02  0.1150668E+00
         21   -1    0    0  503  502  0.00000000000E+00  0.00000000000E+00  0.34731023507E+03  0.34731023507E+03  0.00000000000E+00 0. -1.
         21   -1    0    0  501  503 -0.00000000000E+00 -0.00000000000E+00 -0.25105910305E+03  0.25105910305E+03  0.00000000000E+00 0. -1.
          6    2    1    2  501    0 -0.98249979996E+02  0.23080516541E+02 -0.17306860505E+03  0.26372582512E+03  0.17150160340E+03 0.  0.
         24    2    3    3    0    0 -0.79471459261E+02 -0.31351199621E+02 -0.16315276050E+03  0.20510962822E+03  0.90291338334E+02 0.  0.
         -6    2    1    2    0  502  0.98249979996E+02 -0.23080516541E+02  0.26931973707E+03  0.33464351299E+03  0.17107714984E+03 0.  0.
        -24    2    5    5    0    0 -0.14340249543E+02 -0.23549604805E+02  0.98275332749E+02  0.12981417407E+03  0.80208803259E+02 0.  0.
          5    1    3    3  501    0 -0.18778520735E+02  0.54431716162E+02 -0.99158445553E+01  0.58616196896E+02  0.47000000000E+01 0. -1.
        -11    1    4    4    0    0 -0.20921034736E+02 -0.25301359732E+02 -0.12673535322E+01  0.32855055680E+02  0.00000000000E+00 0.  1.
         12    1    4    4    0    0 -0.58550424525E+02 -0.60498398887E+01 -0.16188540696E+03  0.17225457254E+03  0.00000000000E+00 0. -1.
         -5    1    5    5    0  502  0.11259022954E+03  0.46908826338E+00  0.17104440433E+03  0.20482933892E+03  0.47000000000E+01 0.  1.
         11    1    6    6    0    0  0.32484094312E+02 -0.13806841207E+02  0.29264981738E+02  0.45850675061E+02  0.00000000000E+00 0. -1.
        -12    1    6    6    0    0 -0.46824343855E+02 -0.97427635976E+01  0.69010351011E+02  0.83963499013E+02  0.00000000000E+00 0.  1.
</event>
<event>
12    1  0.8453150E-002  0.2635626E+03  0.7818608E-02  0.1107248E+00
         21   -1    0    0  503  502  0.00000000000E+00  0.00000000000E+00  0.48709309057E+03  0.48709309057E+03  0.00000000000E+00 0. -1.
         21   -1    0    0  501  503 -0.00000000000E+00 -0.00000000000E+00 -0.13484927441E+03  0.13484927441E+03  0.00000000000E+00 0.  1.
          6    2    1    2  501    0  0.94754214475E+02 -0.15280301035E+03  0.17678468380E+03  0.30531773880E+03  0.17215973998E+03 0.  0.
         24    2    3    3    0    0  0.15534901730E+02 -0.47806614791E+02  0.28290191012E+02  0.10689231961E+03  0.89993485850E+02 0.  0.
         -6    2    1    2    0  502 -0.94754214475E+02  0.15280301035E+03  0.17545913236E+03  0.31662462617E+03  0.19271254666E+03 0.  0.
        -24    2    5    5    0    0 -0.13414774048E+03  0.13743572226E+03  0.10176754065E+03  0.23153323928E+03  0.79792321268E+02 0.  0.
          5    1    3    3  501    0  0.79219312745E+02 -0.10499639556E+03  0.14849449279E+03  0.19842541919E+03  0.47000000000E+01 0. -1.
        -13    1    4    4    0    0  0.16553267093E+02 -0.65614401149E+02 -0.63113487189E+01  0.67963912573E+02  0.00000000000E+00 0.  1.
         14    1    4    4    0    0 -0.10183653634E+01  0.17807786358E+02  0.34601539731E+02  0.38928407041E+02  0.00000000000E+00 0. -1.
         -5    1    5    5    0  502  0.39393526008E+02  0.15367288092E+02  0.73691591708E+02  0.85091386892E+02  0.47000000000E+01 0.  1.
         11    1    6    6    0    0 -0.98993861121E+02  0.13186348050E+03  0.10549289757E+03  0.19574604330E+03  0.00000000000E+00 0. -1.
        -12    1    6    6    0    0 -0.35153879362E+02  0.55722417551E+01 -0.37253569132E+01  0.35787195985E+02  0.00000000000E+00 0.  1.
</event>
<event>
12    1  0.8453150E-002  0.3355847E+03  0.7818608E-02  0.1068756E+00
         21   -1    0    0  501  502  0.00000000000E+00  0.00000000000E+00  0.17538452489E+03  0.17538452489E+03  0.00000000000E+00 0.  1.
         21   -1    0    0  502  503 -0.00000000000E+00 -0.00000000000E+00 -0.69892076453E+03  0.69892076453E+03  0.00000000000E+00 0. -1.
         -6    2    1    2    0  503  0.19335256260E+03 -0.21317610724E+03 -0.38783205383E+03  0.51286527063E+03  0.17259147628E+03 0.  0.
        -24    2    3    3    0    0  0.65373329327E+02 -0.17149355260E+03 -0.26465089217E+03  0.33035004361E+03  0.73534657220E+02 0.  0.
          6    2    1    2  501    0 -0.19335256260E+03  0.21317610724E+03 -0.13570418582E+03  0.36144001879E+03  0.17144677010E+03 0.  0.
         24    2    5    5    0    0 -0.81361431302E+02  0.55228552168E+02 -0.10725292685E+03  0.16568249588E+03  0.79231456149E+02 0.  0.
          5    1    5    5  501    0 -0.11199113130E+03  0.15794755507E+03 -0.28451258961E+02  0.19575752291E+03  0.47000000000E+01 0. -1.
        -11    1    6    6    0    0 -0.43205065969E+02  0.70172325542E+02 -0.54144758355E+02  0.98602676711E+02  0.00000000000E+00 0.  1.
         12    1    6    6    0    0 -0.38156365333E+02 -0.14943773374E+02 -0.53108168499E+02  0.67079819167E+02  0.00000000000E+00 0. -1.
         -5    1    3    3    0  503  0.12797923327E+03 -0.41682554637E+02 -0.12318116165E+03  0.18251522702E+03  0.47000000000E+01 0.  1.
         13    1    4    4    0    0  0.62107929630E+02 -0.79083011461E+02 -0.10187559215E+03  0.14314382243E+03  0.00000000000E+00 0. -1.
        -14    1    4    4    0    0  0.32653996972E+01 -0.92410541139E+02 -0.16277530003E+03  0.18720622118E+03  0.00000000000E+00 0.  1.
</event>
<event>
12    1  0.8453150E-002  0.2083834E+03  0.7818608E-02  0.1143053E+00
         21   -1    0    0  501  502  0.00000000000E+00  0.00000000000E+00  0.77414689867E+02  0.77414689867E+02  0.00000000000E+00 0.  1.
         21   -1    0    0  502  503 -0.00000000000E+00 -0.00000000000E+00 -0.58664922092E+03  0.58664922092E+03  0.00000000000E+00 0.  1.
         -6    2    1    2    0  503 -0.36970673742E+02 -0.11109252777E+03 -0.18095236071E+03  0.27522866917E+03  0.17116858078E+03 0.  0.
        -24    2    3    3    0    0  0.32323407793E+02 -0.10313232724E+03 -0.13187733004E+03  0.18981506859E+03  0.83408935214E+02 0.  0.
          6    2    1    2  501    0  0.36970673742E+02  0.11109252777E+03 -0.32828217035E+03  0.38883524162E+03  0.17238120928E+03 0.  0.
         24    2    5    5    0    0 -0.43586285414E+02  0.34613495697E+02 -0.13380413420E+03  0.16482126312E+03  0.78515247498E+02 0.  0.
          5    1    5    5  501    0  0.80556959156E+02  0.76479032071E+02 -0.19447803616E+03  0.22401397850E+03  0.47000000000E+01 0. -1.
        -13    1    6    6    0    0 -0.47090969222E+02  0.56691637429E+02 -0.98162165776E+02  0.12274897933E+03  0.00000000000E+00 0.  1.
         14    1    6    6    0    0  0.35046838084E+01 -0.22078141731E+02 -0.35641968420E+02  0.42072283795E+02  0.00000000000E+00 0. -1.
         -5    1    3    3    0  503 -0.69294081535E+02 -0.79602005272E+01 -0.49075030666E+02  0.85413600575E+02  0.47000000000E+01 0.  1.
         11    1    4    4    0    0  0.13660731285E+02 -0.10273422654E+03 -0.13571120308E+03  0.17075850644E+03  0.00000000000E+00 0. -1.
        -12    1    4    4    0    0  0.18662676509E+02 -0.39810070244E+00  0.38338730364E+01  0.19056562153E+02  0.00000000000E+00 0.  1.
</event>
<event>
12    1  0.8453150E-002  0.2074059E+03  0.7818608E-02  0.1145695E+00
         21   -1    0    0  503  502  0.00000000000E+00  0.00000000000E+00  0.83414434489E+03  0.83414434489E+03  0.00000000000E+00 0.  1.
         21   -1    0    0  501  503 -0.00000000000E+00 -0.00000000000E+00 -0.63016970825E+02  0.63016970825E+02  0.00000000000E+00 0.  1.
          6    2    1    2  501    0  0.52527057512E+02  0.79768469386E+02  0.16757750645E+03  0.25896884506E+03  0.17280202998E+03 0.  0.
         24    2    3    3    0    0  0.59984984105E+02  0.47067483660E+02  0.18945290470E+03  0.21865013742E+03  0.78114871560E+02 0.  0.
         -6    2    1    2    0  502 -0.52527057512E+02 -0.79768469386E+02  0.60354986761E+03  0.63819247065E+03  0.18410618248E+03 0.  0.
        -24    2    5    5    0    0 -0.95144094449E+02 -0.98988318030E+02  0.47478139215E+03  0.50111940732E+03  0.82778042047E+02 0.  0.
          5    1    3    3  501    0 -0.74579265926E+01  0.32700985726E+02 -0.21875398254E+02  0.40318707634E+02  0.47000000000E+01 0. -1.
        -11    1    4    4    0    0  0.36686678519E+02  0.32220866051E+02  0.31066717554E+02  0.57872597396E+02  0.00000000000E+00 0.  1.
         12    1    4    4    0    0  0.23298305586E+02  0.14846617609E+02  0.15838618715E+03  0.16077754003E+03  0.00000000000E+00 0. -1.
         -5    1    5    5    0  502  0.42617036937E+02  0.19219848644E+02  0.12876847546E+03  0.13707306334E+03  0.47000000000E+01 0.  1.
         13    1    6    6    0    0  0.36960659620E+01  0.11086124023E+02  0.48828099769E+02  0.50207035130E+02  0.00000000000E+00 0. -1.
        -14    1    6    6    0    0 -0.98840160411E+02 -0.11007444205E+03  0.42595329238E+03  0.45091237219E+03  0.00000000000E+00 0.  1.
</event>
<event>
12    1  0.8453150E-002  0.1976176E+03  0.7818608E-02  0.1152477E+00
         21   -1    0    0  503  502  0.00000000000E+00  0.00000000000E+00  0.12070300123E+04  0.12070300123E+04  0.00000000000E+00 0. -1.
         21   -1    0    0  501  503 -0.00000000000E+00 -0.00000000000E+00 -0.32026228230E+02  0.32026228230E+02  0.00000000000E+00 0.  1.
          6    2    1    2  501    0  0.88172510340E+02  0.25451311800E+02  0.54235612824E+03  0.57723728788E+03  0.17501587305E+03 0.  0.
         24    2    3    3    0    0  0.86143441277E+02  0.73640573438E+02  0.33345197874E+03  0.36278599798E+03  0.87062228745E+02 0.  0.
         -6    2    1    2    0  502 -0.88172510340E+02 -0.25451311800E+02  0.63264765585E+03  0.66181895267E+03  0.17128662766E+03 0.  0.
        -24    2    5    5    0    0  0.16437531649E+02 -0.22033237745E+02  0.36388465881E+03  0.37335650677E+03  0.78913751808E+02 0.  0.
          5    1    3    3  501    0  0.20290690625E+01 -0.48189261638E+02  0.20890414951E+03  0.21445128990E+03  0.47000000000E+01 0. -1.
        -11    1    4    4    0    0  0.87513892892E+02  0.21342725767E+02  0.19576912234E+03  0.21549882286E+03  0.00000000000E+00 0.  1.
         12    1    4    4    0    0 -0.13704516152E+01  0.52297847671E+02  0.13768285639E+03  0.14728717511E+03  0.00000000000E+00 0. -1.
         -5    1    5    5    0  502 -0.10461004199E+03 -0.34180740554E+01  0.26876299704E+03  0.28846244590E+03  0.47000000000E+01 0.  1.
         13    1    6    6    0    0 -0.22503481302E+02 -0.34019008055E+02  0.14111778984E+03  0.14689428236E+03  0.00000000000E+00 0. -1.
        -14    1    6    6    0    0  0.38941012950E+02  0.11985770310E+02  0.22276686896E+03  0.22646222441E+03  0.00000000000E+00 0.  1.
</event>
<event>
12    1  0.8453150E-002  0.2342267E+03  0.7818608E-02  0.1123747E+00
         21   -1    0    0  501  502  0.00000000000E+00  0.00000000000E+00  0.60917764994E+03  0.60917764994E+03  0.00000000000E+00 0.  1.
         21   -1    0    0  502  503 -0.00000000000E+00 -0.00000000000E+00 -0.16520576221E+03  0.16520576221E+03  0.00000000000E+00 0.  1.
         -6    2    1    2    0  503 -0.65818430435E+01  0.16009914304E+03 -0.39404873700E+02  0.23724728223E+03  0.17046545865E+03 0.  0.
        -24    2    3    3    0    0 -0.50512454657E+02  0.10920720853E+03  0.16198039697E+02  0.14987645407E+03  0.87879761743E+02 0.  0.
          6    2    1    2  501    0  0.65818430435E+01 -0.16009914304E+03  0.48337676143E+03  0.53713612993E+03  0.17084224396E+03 0.  0.
         24    2    5    5    0    0  0.14990585699E+02 -0.17944481679E+03  0.34822784789E+03  0.40027020693E+03  0.80798790704E+02 0.  0.
          5    1    5    5  501    0 -0.84087426554E+01  0.19345673750E+02  0.13514891354E+03  0.13686592300E+03  0.47000000000E+01 0. -1.
        -13    1    6    6    0    0 -0.29729300542E+02 -0.35175801713E+02  0.72772117510E+02  0.86121712848E+02  0.00000000000E+00 0.  1.
         14    1    6    6    0    0  0.44719886241E+02 -0.14426901508E+03  0.27545573038E+03  0.31414849408E+03  0.00000000000E+00 0. -1.
         -5    1    3    3    0  503  0.43930611614E+02  0.50891934508E+02 -0.55602913397E+02  0.87370828158E+02  0.47000000000E+01 0.  1.
         13    1    4    4    0    0 -0.31234135394E+02 -0.13818424650E+01 -0.13039050762E+02  0.33874733168E+02  0.00000000000E+00 0. -1.
        -14    1    4    4    0    0 -0.19278319263E+02  0.11058905100E+03  0.29237090460E+02  0.11600172090E+03  0.00000000000E+00 0.  1.
</event>
<event>
12    1  0.8453150E-002  0.2028787E+03  0.7818608E-02  0.1147581E+00
         21   -1    0    0  501  502  0.00000000000E+00  0.00000000000E+00  0.14577911739E+03  0.14577911739E+03  0.00000000000E+00 0. -1.
         21   -1    0    0  502  503 -0.00000000000E+00 -0.00000000000E+00 -0.39937552353E+03  0.39937552353E+03  0.00000000000E+00 0.  1.
         -6    2    1    2    0  503 -0.42352653828E+02  0.96208540697E+02 -0.27566082942E+03  0.34226987833E+03  0.17352217767E+03 0.  0.
        -24    2    3    3    0    0 -0.95301518174E+02  0.59396314247E+02 -0.17684430067E+03  0.22417873299E+03  0.79824157589E+02 0.  0.
          6    2    1    2  501    0  0.42352653828E+02 -0.96208540697E+02  0.22064423281E+02  0.20288476259E+03  0.17212076436E+03 0.  0.
         24    2    5    5    0    0  0.16919441822E+02  0.16078293262E+02 -0.11328696676E+02  0.82916550904E+02  0.78753006417E+02 0.  0.
          5    1    5    5  501    0  0.25433212006E+02 -0.11228683396E+03  0.33393119957E+02  0.11996821168E+03  0.47000000000E+01 0. -1.
        -11    1    6    6    0    0  0.31482712565E+02  0.41836930401E+02 -0.45281849199E+01  0.52554680044E+02  0.00000000000E+00 0.  1.
         12    1    6    6    0    0 -0.14563270743E+02 -0.25758637139E+02 -0.68005117562E+01  0.30361870860E+02  0.00000000000E+00 0. -1.
         -5    1    3    3    0  503  0.52948864346E+02  0.36812226450E+02 -0.98816528757E+02  0.11809114534E+03  0.47000000000E+01 0.  1.
         11    1    4    4    0    0 -0.50821524540E+02  0.18778018120E+02 -0.22809815597E+02  0.58785448954E+02  0.00000000000E+00 0. -1.
        -12    1    4    4    0    0 -0.44479993634E+02  0.40618296127E+02 -0.15403448507E+03  0.16539328404E+03  0.00000000000E+00 0.  1.
</event>
<event>
12    1  0.8453150E-002  0.2416897E+03  0.7818608E-02  0.1118676E+00
         21   -1    0    0  501  502  0.00000000000E+00  0.00000000000E+00  0.30319983487E+04  0.30319983487E+04  0.00000000000E+00 0.  1.
         21   -1    0    0  502  503 -0.00000000000E+00 -0.00000000000E+00 -0.27502245757E+02  0.27502245757E+02  0.00000000000E+00 0. -1.
         -6    2    1    2    0  503 -0.88565251745E+02  0.14400309973E+03  0.23394428802E+04  0.23518921725E+04  0.17269367383E+03 0.  0.
        -24    2    3    3    0    0 -0.10536507645E+03  0.12368566277E+03  0.14002844116E+04  0.14123519917E+04  0.86843378845E+02 0.  0.
          6    2    1    2  501    0  0.88565251745E+02 -0.14400309973E+03  0.66505322273E+03  0.70760842191E+03  0.17272287961E+03 0.  0.
         24    2    5    5    0    0  0.31068542134E+02 -0.74771269979E+02  0.55048091456E+03  0.56184209635E+03  0.77982734058E+02 0.  0.
          5    1    5    5  501    0  0.57496709611E+02 -0.69231829753E+02  0.11457230818E+03  0.14576632556E+03  0.47000000000E+01 0. -1.
        -11    1    6    6    0    0  0.37839004900E+02 -0.79481707545E+02  0.54470647133E+03  0.55177375077E+03  0.00000000000E+00 0.  1.
         12    1    6    6    0    0 -0.67704627657E+01  0.47104375658E+01  0.57744432246E+01  0.10068345578E+02  0.00000000000E+00 0. -1.
         -5    1    3    3    0  503  0.16799824704E+02  0.20317436965E+02  0.93915846852E+03  0.93954018080E+03  0.47000000000E+01 0.  1.
         11    1    4    4    0    0  0.14207462355E+02  0.33624357137E+01  0.11059139843E+03  0.11155095413E+03  0.00000000000E+00 0. -1.
        -12    1    4    4    0    0 -0.11957253880E+03  0.12032322705E+03  0.12896930132E+04  0.13008010376E+04  0.00000000000E+00 0.  1.
</event>
<event>
12    1  0.8453150E-002  0.1730581E+03  0.7818608E-02  0.1175017E+00
         21   -1    0    0  501  502  0.00000000000E+00  0.00000000000E+00  0.40279146126E+03  0.40279146126E+03  0.00000000000E+00 0. -1.
         21   -1    0    0  502  503 -0.00000000000E+00 -0.00000000000E+00 -0.33691252983E+03  0.33691252983E+03  0.00000000000E+00 0. -1.
         -6    2    1    2    0  503 -0.18533231430E+02  0.46541471980E+00 -0.29386777554E+03  0.34103869358E+03  0.17206226705E+03 0.  0.
        -24    2    3    3    0    0  0.21620548887E+02  0.52280272613E+02 -0.22706717156E+03  0.24732894882E+03  0.80071427386E+02 0.  0.
          6    2    1    2  501    0  0.18533231430E+02 -0.46541471980E+00  0.35974670697E+03  0.39866529751E+03  0.17079996775E+03 0.  0.
         24    2    5    5    0    0  0.30191237311E+02  0.50072864507E+02  0.13233714232E+03  0.16536886191E+03  0.80093312337E+02 0.  0.
          5    1    5    5  501    0 -0.11658005881E+02 -0.50538279227E+02  0.22740956465E+03  0.23329643560E+03  0.47000000000E+01 0. -1.
        -11    1    6    6    0    0  0.50053686265E+02  0.14226671164E+02  0.10156919399E+03  0.11412305135E+03  0.00000000000E+00 0.  1.
         12    1    6    6    0    0 -0.19862448955E+02  0.35846193343E+02  0.30767948333E+02  0.51245810563E+02  0.00000000000E+00 0. -1.
         -5    1    3    3    0  503 -0.40153780316E+02 -0.51814857893E+02 -0.66800603981E+02  0.93709744768E+02  0.47000000000E+01 0.  1.
         13    1    4    4    0    0 -0.29155831361E+02  0.32185531002E+02 -0.10189363495E+03  0.11076228488E+03  0.00000000000E+00 0. -1.
        -14    1    4    4    0    0  0.50776380248E+02  0.20094741611E+02 -0.12517353660E+03  0.13656666393E+03  0.00000000000E+00 0.  1.
</event>
<event>
12    1  0.8453150E-002  0.1847130E+03  0.7818608E-02  0.1163504E+00
         21   -1    0    0  503  502  0.00000000000E+00  0.00000000000E+00  0.10041996617E+03  0.10041996617E+03  0.00000000000E+00 0. -1.
         21   -1    0    0  501  503 -0.00000000000E+00 -0.00000000000E+00 -0.37141382229E+03  0.37141382229E+03  0.00000000000E+00 0. -1.
          6    2    1    2  501    0 -0.46686995726E+01  0.64822053576E+02 -0.20566990770E+03  0.27591002379E+03  0.17205387211E+03 0.  0.
         24    2    3    3    0    0  0.56018664354E+02  0.30287323224E+02 -0.67189594274E+02  0.12075045770E+03  0.77529470222E+02 0.  0.
         -6    2    1    2    0  502  0.46686995726E+01 -0.64822053576E+02 -0.65323948414E+02  0.19592376467E+03  0.17290230751E+03 0.  0.
        -24    2    5    5    0    0 -0.37681874199E+02 -0.77579372033E+02 -0.18524422714E+01  0.11841865281E+03  0.81123752272E+02 0.  0.
          5    1    3    3  501    0 -0.60687363926E+02  0.34534730353E+02 -0.13848031342E+03  0.15515956608E+03  0.47000000000E+01 0. -1.
        -13    1    4    4    0    0  0.15349446117E+02 -0.26362730148E+02 -0.18141432049E+02  0.35492401916E+02  0.00000000000E+00 0.  1.
         14    1    4    4    0    0  0.40669218237E+02  0.56650053372E+02 -0.49048162225E+02  0.85258055788E+02  0.00000000000E+00 0. -1.
         -5    1    5    5    0  502  0.42350573771E+02  0.12757318456E+02 -0.63471506143E+02  0.77505111863E+02  0.47000000000E+01 0.  1.
         13    1    6    6    0    0  0.20407224520E+02 -0.21608109333E+02 -0.19886189084E+02  0.35760672782E+02  0.00000000000E+00 0. -1.
        -14    1    6    6    0    0 -0.58089098718E+02 -0.55971262700E+02  0.18033746812E+02  0.82657980027E+02  0.00000000000E+00 0.  1.
</event>
<event>
12    1  0.8453150E-002  0.1905682E+03  0.7818608E-02  0.1158046E+00
         21   -1    0    0  503  502  0.00000000000E+00  0.00000000000E+00  0.21315546884E+03  0.21315546884E+03  0.00000000000E+00 0. -1.
         21   -1    0    0  501  503 -0.00000000000E+00 -0.00000000000E+00 -0.37481493184E+03  0.37481493184E+03  0.00000000000E+00 0. -1.
          6    2    1    2  501    0  0.87352415563E+01 -0.80803363261E+02 -0.29811242122E+03  0.35358686221E+03  0.17189288958E+03 0.  0.
         24    2    3    3    0    0  0.60132975961E+02 -0.69955913201E+02 -0.13337153940E+03  0.18060986254E+03  0.79511950892E+02 0.  0.
         -6    2    1    2    0  502 -0.87352415563E+01  0.80803363261E+02  0.13645295822E+03  0.23438353847E+03  0.17236805196E+03 0.  0.
        -24    2    5    5    0    0  0.44554640224E+01  0.11007138453E+03  0.14714241928E+03  0.20022264913E+03  0.79389273983E+02 0.  0.
          5    1    3    3  501    0 -0.51397734405E+02 -0.10847450060E+02 -0.16474088182E+03  0.17297699968E+03  0.47000000000E+01 0. -1.
        -13    1    4    4    0    0  0.51031301056E+01 -0.21511710082E+02  0.61934976962E+01  0.22959856734E+02  0.00000000000E+00 0.  1.
         14    1    4    4    0    0  0.55029845855E+02 -0.48444203119E+02 -0.13956503709E+03  0.15765000580E+03  0.00000000000E+00 0. -1.
         -5    1    5    5    0  502 -0.13190705579E+02 -0.29268021266E+02 -0.10689461055E+02  0.34160889335E+02  0.47000000000E+01 0.  1.
         13    1    6    6    0    0  0.76069250815E+01  0.82041749917E+02  0.44229815824E+02  0.93514654715E+02  0.00000000000E+00 0. -1.
        -14    1    6    6    0    0 -0.31514610591E+01  0.28029634611E+02  0.10291260345E+03  0.10670799442E+03  0.00000000000E+00 0.  1.
</event>
<event>
12    1  0.8453150E-002  0.2000526E+03  0.7818608E-02  0.1151288E+00
         21   -1    0    0  501  502  0.00000000000E+00  0.00000000000E+00  0.48878050620E+03  0.48878050620E+03  0.00000000000E+00 0.  1.
         21   -1    0    0  502  503 -0.00000000000E+00 -0.00000000000E+00 -0.12814431971E+03  0.12814431971E+03  0.00000000000E+00 0.  1.
         -6    2    1    2    0  503  0.97707390607E+02 -0.29064602905E+02 -0.13016582259E+02  0.19308827511E+03  0.16346915688E+03 0.  0.
        -24    2    3    3    0    0  0.57931508151E+02  0.85528891205E+01  0.48655388346E+02  0.11048852639E+03  0.80069695260E+02 0.  0.
          6    2    1    2  501    0 -0.97707390607E+02  0.29064602905E+02  0.37365276875E+03  0.42383655079E+03  0.17213234697E+03 0.  0.
         24    2    5    5    0    0 -0.79654115179E+02 -0.46102671878E+02  0.21782975583E+03  0.24982809896E+03  0.80585619617E+02 0.  0.
          5    1    5    5  501    0 -0.18053275428E+02  0.75167274783E+02  0.15582301292E+03  0.17400845183E+03  0.47000000000E+01 0. -1.
        -13    1    6    6    0    0 -0.28547211108E+02  0.22318908954E+02  0.77524620796E+02  0.85575369053E+02  0.00000000000E+00 0.  1.
         14    1    6    6    0    0 -0.51106904071E+02 -0.68421580832E+02  0.14030513503E+03  0.16425272991E+03  0.00000000000E+00 0. -1.
         -5    1    3    3    0  503  0.39775882456E+02 -0.37617492025E+02 -0.61671970605E+02  0.82599748726E+02  0.47000000000E+01 0.  1.
         11    1    4    4    0    0  0.62659367703E+02  0.33435286126E+02  0.23544581101E+02  0.74822870958E+02  0.00000000000E+00 0. -1.
        -12    1    4    4    0    0 -0.47278595515E+01 -0.24882397005E+02  0.25110807245E+02  0.35665655429E+02  0.00000000000E+00 0.  1.
</event>
<event>
12    1  0.8453150E-002  0.1967006E+03  0.7818608E-02  0.1152716E+00
         21   -1    0    0  501  502  0.00000000000E+00  0.00000000000E+00  0.16649452896E+03  0.16649452896E+03  0.00000000000E+00 0.  1.
         21   -1    0    0  502  503 -0.00000000000E+00 -0.00000000000E+00 -0.27516661022E+03  0.27516661022E+03  0.00000000000E+00 0. -1.
         -6    2    1    2    0  503 -0.46956500765E+02 -0.81196646126E+02 -0.14239985320E+03  0.24283503926E+03  0.17289687619E+03 0.  0.
        -24    2    3    3    0    0 -0.86448507914E+02 -0.89040909362E+02 -0.13755745796E+03  0.20200992584E+03  0.80525324199E+02 0.  0.
          6    2    1    2  501    0  0.46956500765E+02  0.81196646126E+02  0.33727771944E+02  0.19882609992E+03  0.17203617963E+03 0.  0.
         24    2    5    5    0    0 -0.36911454174E+02  0.37504474095E+02  0.10228689524E+02  0.10127028699E+03  0.85918588852E+02 0.  0.
          5    1    5    5  501    0  0.83867954940E+02  0.43692172031E+02  0.23499082420E+02  0.97555812934E+02  0.47000000000E+01 0. -1.
        -13    1    6    6    0    0  0.93522304035E+01  0.14137138205E+02  0.38618121830E+02  0.42174426183E+02  0.00000000000E+00 0.  1.
         14    1    6    6    0    0 -0.46263684578E+02  0.23367335890E+02 -0.28389432306E+02  0.59095860802E+02  0.00000000000E+00 0. -1.
         -5    1    3    3    0  503  0.39492007148E+02  0.78442632357E+01 -0.48423952426E+01  0.40825113423E+02  0.47000000000E+01 0.  1.
         13    1    4    4    0    0  0.14552249999E+01  0.12622263043E+02 -0.18622319568E+02  0.22543956844E+02  0.00000000000E+00 0. -1.
        -14    1    4    4    0    0 -0.87903732914E+02 -0.10166317240E+03 -0.11893513839E+03  0.17946596900E+03  0.00000000000E+00 0.  1.
</event>
<event>
12    1  0.8453150E-002  0.1761673E+03  0.7818608E-02  0.1171727E+00
         21   -1    0    0  503  502  0.00000000000E+00  0.00000000000E+00  0.62758835637E+02  0.62758835637E+02  0.00000000000E+00 0. -1.
         21   -1    0    0  501  503 -0.00000000000E+00 -0.00000000000E+00 -0.70834876077E+03  0.70834876077E+03  0.00000000000E+00 0. -1.
          6    2    1    2  501    0  0.29339035545E+02  0.23347462234E+02 -0.10963724628E+03  0.20694431745E+03  0.17146352893E+03 0.  0.
         24    2    3    3    0    0 -0.47130985017E+02  0.33282697996E+02 -0.68749084935E+02  0.11953548098E+03  0.78950787203E+02 0.  0.
         -6    2    1    2    0  502 -0.29339035545E+02 -0.23347462234E+02 -0.53595267886E+03  0.56416327896E+03  0.17213090470E+03 0.  0.
        -24    2    5    5    0    0 -0.55868402042E+01 -0.76251649269E+02 -0.25673643785E+03  0.27894964143E+03  0.77806022492E+02 0.  0.
          5    1    3    3  501    0  0.76470020562E+02 -0.99352357625E+01 -0.40888161344E+02  0.87408836467E+02  0.47000000000E+01 0. -1.
        -13    1    4    4    0    0 -0.24659179826E+02  0.18290081949E+02 -0.83352368504E+02  0.88826907987E+02  0.00000000000E+00 0.  1.
         14    1    4    4    0    0 -0.22471805191E+02  0.14992616047E+02  0.14603283569E+02  0.30708572996E+02  0.00000000000E+00 0. -1.
         -5    1    5    5    0  502 -0.23752195341E+02  0.52904187035E+02 -0.27921624101E+03  0.28521363753E+03  0.47000000000E+01 0.  1.
         13    1    6    6    0    0  0.34146460264E+02 -0.44864474099E+02 -0.16199503993E+03  0.17152607600E+03  0.00000000000E+00 0. -1.
        -14    1    6    6    0    0 -0.39733300468E+02 -0.31387175170E+02 -0.94741397916E+02  0.10742356543E+03  0.00000000000E+00 0.  1.
</event>
<event>
12    1  0.8453150E-002  0.2836768E+03  0.7818608E-02  0.1093709E+00
         21   -1    0    0  501  502  0.00000000000E+00  0.00000000000E+00  0.28810264181E+03  0.28810264181E+03  0.00000000000E+00 0.  1.
         21   -1    0    0  502  503 -0.00000000000E+00 -0.00000000000E+00 -0.30883847688E+03  0.30883847688E+03  0.00000000000E+00 0. -1.
         -6    2    1    2    0  503 -0.21968002512E+03  0.50147694249E+02 -0.10277716005E+03  0.30163910360E+03  0.17218855805E+03 0.  0.
        -24    2    3    3    0    0 -0.63534177603E+02  0.25575777379E+02 -0.99509875138E+02  0.14346808873E+03  0.77396157026E+02 0.  0.
          6    2    1    2  501    0  0.21968002512E+03 -0.50147694249E+02  0.82041324975E+02  0.29530201508E+03  0.17233222692E+03 0.  0.
         24    2    5    5    0    0  0.22545016007E+03 -0.43462049118E+02  0.10935263678E+03  0.26621610680E+03  0.78716529137E+02 0.  0.
          5    1    5    5  501    0 -0.57701349546E+01 -0.66856451314E+01 -0.27311311803E+02  0.29085908282E+02  0.47000000000E+01 0. -1.
        -11    1    6    6    0    0  0.12363577366E+02 -0.28789264570E+01  0.34477541990E+02  0.36740266255E+02  0.00000000000E+00 0.  1.
         12    1    6    6    0    0  0.21308658271E+03 -0.40583122661E+02  0.74875094788E+02  0.22947584055E+03  0.00000000000E+00 0. -1.
         -5    1    3    3    0  503 -0.15614584752E+03  0.24571916870E+02 -0.32672849071E+01  0.15817101487E+03  0.47000000000E+01 0.  1.
         13    1    4    4    0    0 -0.67561429854E+02  0.15314203431E+02 -0.34242371903E+02  0.77276203738E+02  0.00000000000E+00 0. -1.
        -14    1    4    4    0    0  0.40272522507E+01  0.10261573947E+02 -0.65267503235E+02  0.66191884995E+02  0.00000000000E+00 0.  1.
</event>
<event>
12    1  0.8453150E-002  0.2172957E+03  0.7818608E-02  0.1136451E+00
         21   -1    0    0  503  502  0.00000000000E+00  0.00000000000E+00  0.46010992595E+03  0.46010992595E+03  0.00000000000E+00 0. -1.
         21   -1    0    0  501  503 -0.00000000000E+00 -0.00000000000E+00 -0.12625594204E+03  0.12625594204E+03  0.00000000000E+00 0. -1.
          6    2    1    2  501    0  0.13376933611E+03  0.10137364300E+02  0.37454097690E+02  0.22049998404E+03  0.17093984934E+03 0.  0.
         24    2    3    3    0    0  0.11289130389E+03 -0.11180418591E+02  0.86132910673E+02  0.16321074482E+03  0.79683252142E+02 0.  0.
         -6    2    1    2    0  502 -0.13376933611E+03 -0.10137364300E+02  0.29639988622E+03  0.36586588394E+03  0.16735576192E+03 0.  0.
        -24    2    5    5    0    0 -0.57087926365E+02  0.23354142261E+02  0.25221114259E+03  0.27112173016E+03  0.78051808588E+02 0.  0.
          5    1    3    3  501    0  0.20878032222E+02  0.21317782891E+02 -0.48678812982E+02  0.57289239219E+02  0.47000000000E+01 0. -1.
        -13    1    4    4    0    0  0.12092631983E+03 -0.22212618828E+02  0.67954484019E+02  0.14047913426E+03  0.00000000000E+00 0.  1.
         14    1    4    4    0    0 -0.80350159462E+01  0.11032200237E+02  0.18178426654E+02  0.22731610566E+02  0.00000000000E+00 0. -1.
         -5    1    5    5    0  502 -0.76681409746E+02 -0.33491506561E+02  0.44188743631E+02  0.94744153783E+02  0.47000000000E+01 0.  1.
         13    1    6    6    0    0 -0.59185963181E+02 -0.82376270696E+01  0.10754614232E+03  0.12303255449E+03  0.00000000000E+00 0. -1.
        -14    1    6    6    0    0  0.20980368167E+01  0.31591769330E+02  0.14466500027E+03  0.14808917567E+03  0.00000000000E+00 0.  1.
</event>
<event>
12    1  0.8453150E-002  0.2232897E+03  0.7818608E-02  0.1131630E+00
         21   -1    0    0  501  502  0.00000000000E+00  0.00000000000E+00  0.59332893929E+02  0.59332893929E+02  0.00000000000E+00 0. -1.
         21   -1    0    0  502  503 -0.00000000000E+00 -0.00000000000E+00 -0.15228796201E+04  0.15228796201E+04  0.00000000000E+00 0.  1.
         -6    2    1    2    0  503 -0.14060864599E+03  0.12032494866E+02 -0.19988045929E+03  0.29897024681E+03  0.17180057687E+03 0.  0.
        -24    2    3    3    0    0 -0.89067976525E+02  0.24350366548E+02 -0.35998637687E+02  0.12666960252E+03  0.78887524324E+02 0.  0.
          6    2    1    2  501    0  0.14060864599E+03 -0.12032494866E+02 -0.12636662668E+04  0.12832422672E+04  0.17303961991E+03 0.  0.
         24    2    5    5    0    0  0.10151221547E+03  0.34109245972E+01 -0.11992082496E+04  0.12061452110E+04  0.79809020857E+02 0.  0.
          5    1    5    5  501    0  0.39096430520E+02 -0.15443419463E+02 -0.64458017219E+02  0.77097056157E+02  0.47000000000E+01 0. -1.
        -11    1    6    6    0    0  0.58450871544E+02  0.30453528974E+02 -0.91902127479E+03  0.92138158509E+03  0.00000000000E+00 0.  1.
         12    1    6    6    0    0  0.43061343928E+02 -0.27042604377E+02 -0.28018697483E+03  0.28476362593E+03  0.00000000000E+00 0. -1.
         -5    1    3    3    0  503 -0.51540669467E+02 -0.12317871682E+02 -0.16388182160E+03  0.17230064429E+03  0.47000000000E+01 0.  1.
         11    1    4    4    0    0 -0.97888166555E+02  0.38100695973E+02 -0.29682009776E+02  0.10915483448E+03  0.00000000000E+00 0. -1.
        -12    1    4    4    0    0  0.88201900298E+01 -0.13750329425E+02 -0.63166279111E+01  0.17514768044E+02  0.00000000000E+00 0.  1.
</event>
<event>
12    1  0.8453150E-002  0.1874647E+03  0.7818608E-02  0.1161024E+00
         21   -1    0    0  501  502  0.00000000000E+00  0.00000000000E+00  0.10401643682E+04  0.10401643682E+04  0.00000000000E+00 0. -1.
         21   -1    0    0  502  503 -0.00000000000E+00 -0.00000000000E+00 -0.57964497569E+02  0.57964497569E+02  0.00000000000E+00 0. -1.
         -6    2    1    2    0  503  0.62299075481E+02  0.35449062006E+02  0.13417203674E+03  0.22962773327E+03  0.17201438788E+03 0.  0.
        -24    2    3    3    0    0  0.21989333953E+02  0.87511521683E+02  0.82566206534E+02  0.14583855329E+03  0.79434928896E+02 0.  0.
          6    2    1    2  501    0 -0.62299075481E+02 -0.35449062006E+02  0.84802783387E+03  0.86850113249E+03  0.17322008922E+03 0.  0.
         24    2    5    5    0    0 -0.26468992096E+02 -0.83525967340E+02  0.67522930402E+03  0.68553500005E+03  0.79664474629E+02 0.  0.
          5    1    5    5  501    0 -0.35830083385E+02  0.48076905334E+02  0.17279852985E+03  0.18296613244E+03  0.47000000000E+01 0. -1.
        -13    1    6    6    0    0 -0.90547663963E+01 -0.25810974833E+02  0.46698519776E+02  0.54119746540E+02  0.00000000000E+00 0.  1.
         14    1    6    6    0    0 -0.17414225699E+02 -0.57714992506E+02  0.62853078425E+03  0.63141525351E+03  0.00000000000E+00 0. -1.
         -5    1    3    3    0  503  0.40309741527E+02 -0.52062459677E+02  0.51605830210E+02  0.83789179977E+02  0.47000000000E+01 0.  1.
         13    1    4    4    0    0 -0.20450649947E+01 -0.92777368915E+01 -0.69946856486E+01  0.11797640441E+02  0.00000000000E+00 0. -1.
        -14    1    4    4    0    0  0.24034398948E+02  0.96789258575E+02  0.89560892183E+02  0.13404091285E+03  0.00000000000E+00 0.  1.
</event>
<event>
12    1  0.8453150E-002  0.2952129E+03  0.7818608E-02  0.1087781E+00
         21   -1    0    0  503  502  0.00000000000E+00  0.00000000000E+00  0.59229304858E+03  0.59229304858E+03  0.00000000000E+00 0. -1.
         21   -1    0    0  501  503 -0.00000000000E+00 -0.00000000000E+00 -0.30095840121E+03  0.30095840121E+03  0.00000000000E+00 0.  1.
          6    2    1    2  501    0  0.15878479620E+03  0.17815604955E+03 -0.17400763545E+03  0.34267963213E+03  0.17377710892E+03 0.  0.
         24    2    3    3    0    0  0.37129443200E+02  0.14451510396E+03 -0.10320508461E+03  0.19788035955E+03  0.79007191954E+02 0.  0.
         -6    2    1    2    0  502 -0.15878479620E+03 -0.17815604955E+03  0.46534228282E+03  0.55057181766E+03  0.17214440661E+03 0.  0.
        -24    2    5    5    0    0 -0.13561945429E+03 -0.53786516893E+02  0.28925695944E+03  0.33370193771E+03  0.80011054648E+02 0.  0.
          5    1    3    3  501    0  0.12165535300E+03  0.33640945591E+02 -0.70802550840E+02  0.14479927258E+03  0.47000000000E+01 0. -1.
        -11    1    4    4    0    0 -0.26993711683E+01  0.11062550768E+03 -0.44528507853E+02  0.11928150555E+03  0.00000000000E+00 0.  1.
         12    1    4    4    0    0  0.39828814368E+02  0.33889596278E+02 -0.58676576755E+02  0.78598853996E+02  0.00000000000E+00 0. -1.
         -5    1    5    5    0  502 -0.23165341909E+02 -0.12436953266E+03  0.17608532338E+03  0.21686987995E+03  0.47000000000E+01 0.  1.
         11    1    6    6    0    0 -0.98573926851E+02 -0.56325461424E+02  0.14184334312E+03  0.18168354534E+03  0.00000000000E+00 0. -1.
        -12    1    6    6    0    0 -0.37045527439E+02  0.25389445311E+01  0.14741361632E+03  0.15201839237E+03  0.00000000000E+00 0.  1.
</event>
<event>
12    1  0.8453150E-002  0.1846729E+03  0.7818608E-02  0.1164148E+00
         21   -1    0    0  503  502  0.00000000000E+00  0.00000000000E+00  0.26085792223E+03  0.26085792223E+03  0.00000000000E+00 0. -1.
         21   -1    0    0  501  503 -0.00000000000E+00 -0.00000000000E+00 -0.24230819531E+03  0.24230819531E+03  0.00000000000E+00 0. -1.
          6    2    1    2  501    0  0.52923018187E+02 -0.40446233693E+02  0.18182961680E+03  0.25916424799E+03  0.17224213833E+03 0.  0.
         24    2    3    3    0    0  0.27635813472E+02  0.38050304921E+02  0.13639165645E+03  0.16488886660E+03  0.79837901313E+02 0.  0.
         -6    2    1    2    0  502 -0.52923018187E+02  0.40446233693E+02 -0.16327988988E+03  0.24400186955E+03  0.16864117597E+03 0.  0.
        -24    2    5    5    0    0 -0.68144580496E+02  0.82256494760E+02 -0.14122872443E+03  0.19412063272E+03  0.79545286872E+02 0.  0.
          5    1    3    3  501    0  0.25287204715E+02 -0.78496538613E+02  0.45437960345E+02  0.94275381393E+02  0.47000000000E+01 0. -1.
        -11    1    4    4    0    0  0.45732661709E+02  0.42400979758E+02  0.61012714575E+02  0.87246035848E+02  0.00000000000E+00 0.  1.
         12    1    4    4    0    0 -0.18096848236E+02 -0.43506748374E+01  0.75378941880E+02  0.77642830748E+02  0.00000000000E+00 0. -1.
         -5    1    5    5    0  502  0.15221562309E+02 -0.41810261067E+02 -0.22051165445E+02  0.49881236824E+02  0.47000000000E+01 0.  1.
         11    1    6    6    0    0 -0.34319497363E+02 -0.53253230035E+01 -0.62894959618E+02  0.71846801667E+02  0.00000000000E+00 0. -1.
        -12    1    6    6    0    0 -0.33825083132E+02  0.87581817764E+02 -0.78333764814E+02  0.12227383106E+03  0.00000000000E+00 0.  1.
</event>
<event>
12    1  0.8453150E-002  0.1868178E+03  0.7818608E-02  0.1161444E+00
         21   -1    0    0  503  502  0.00000000000E+00  0.00000000000E+00  0.51368845775E+03  0.51368845775E+03  0.00000000000E+00 0.  1.
         21   -1    0    0  501  503 -0.00000000000E+00 -0.00000000000E+00 -0.12445804685E+03  0.12445804685E+03  0.00000000000E+00 0.  1.
          6    2    1    2  501    0 -0.69305277385E+02  0.19684998324E+02 -0.20741779284E+02  0.18761560268E+03  0.17198451189E+03 0.  0.
         24    2    3    3    0    0 -0.91268142844E+02  0.29331599536E+02 -0.62287389318E+02  0.13941236537E+03  0.79786415637E+02 0.  0.
         -6    2    1    2    0  502  0.69305277385E+02 -0.19684998324E+02  0.40997219018E+03  0.45053090192E+03  0.17236640112E+03 0.  0.
        -24    2    5    5    0    0  0.64739531605E+02 -0.70091588576E+02  0.20551507242E+03  0.23984992657E+03  0.78660692467E+02 0.  0.
          5    1    3    3  501    0  0.21962865460E+02 -0.96466012123E+01  0.41545610034E+02  0.48203237310E+02  0.47000000000E+01 0. -1.
        -11    1    4    4    0    0 -0.54109139750E+02  0.38554144689E+02 -0.16535688834E+00  0.66439810506E+02  0.00000000000E+00 0.  1.
         12    1    4    4    0    0 -0.37159003094E+02 -0.92225451526E+01 -0.62122032430E+02  0.72972554863E+02  0.00000000000E+00 0. -1.
         -5    1    5    5    0  502  0.45657457793E+01  0.50406590252E+02  0.20445711775E+03  0.21068097535E+03  0.47000000000E+01 0.  1.
         11    1    6    6    0    0 -0.10264836581E+00 -0.17846479464E+02 -0.27701971873E+00  0.17848924502E+02  0.00000000000E+00 0. -1.
        -12    1    6    6    0    0  0.64842179971E+02 -0.52245109112E+02  0.20579209214E+03  0.22200100206E+03  0.00000000000E+00 0.  1.
</event>
<event>
12    1  0.8453150E-002  0.3203850E+03  0.7818608E-02  0.1075480E+00
         21   -1    0    0  501  502  0.00000000000E+00  0.00000000000E+00  0.77915094784E+03  0.77915094784E+03  0.00000000000E+00 0.  1.
         21   -1    0    0  502  503 -0.00000000000E+00 -0.00000000000E+00 -0.14873372605E+03  0.14873372605E+03  0.00000000000E+00 0. -1.
         -6    2    1    2    0  503 -0.21858051450E+03 -0.15890977816E+03  0.47218951226E+03  0.57062203475E+03  0.17209535768E+03 0.  0.
        -24    2    3    3    0    0 -0.22115881045E+03 -0.15371416524E+03  0.48280701879E+03  0.55764268775E+03  0.72962221532E+02 0.  0.
          6    2    1    2  501    0  0.21858051450E+03  0.15890977816E+03  0.15822770953E+03  0.35726263914E+03  0.17196170024E+03 0.  0.
         24    2    5    5    0    0  0.16868475759E+03  0.18587681717E+03  0.12622655490E+03  0.29197120289E+03  0.79431111966E+02 0.  0.
          5    1    5    5  501    0  0.49895756911E+02 -0.26967039009E+02  0.32001154623E+02  0.65291436252E+02  0.47000000000E+01 0. -1.
        -13    1    6    6    0    0  0.15478461866E+03  0.14258226479E+03  0.12826441532E+03  0.24645433784E+03  0.00000000000E+00 0.  1.
         14    1    6    6    0    0  0.13900138937E+02  0.43294552384E+02 -0.20378604161E+01  0.45516865047E+02  0.00000000000E+00 0. -1.
         -5    1    3    3    0  503  0.25782959467E+01 -0.51956129176E+01 -0.10617506530E+02  0.12979346998E+02  0.47000000000E+01 0.  1.
         11    1    4    4    0    0 -0.18409500016E+03 -0.89352369128E+02  0.34646968487E+03  0.40238794402E+03  0.00000000000E+00 0. -1.
        -12    1    4    4    0    0 -0.37063810293E+02 -0.64361796117E+02  0.13633733391E+03  0.15525474373E+03  0.00000000000E+00 0.  1.
</event>
<event>
12    1  0.8453150E-002  0.2415925E+03  0.7818608E-02  0.1118748E+00
         21   -1    0    0  503  502  0.00000000000E+00  0.00000000000E+00  0.29380774167E+03  0.29380774167E+03  0.00000000000E+00 0. -1.
         21   -1    0    0  501  503 -0.00000000000E+00 -0.00000000000E+00 -0.32056610202E+03  0.32056610202E+03  0.00000000000E+00 0.  1.
          6    2    1    2  501    0 -0.95955599929E+02 -0.13915918668E+03 -0.20285998734E+03  0.31541113625E+03  0.17250870706E+03 0.  0.
         24    2    3    3    0    0  0.40359882895E+01 -0.43497531539E+02 -0.13882154722E+03  0.16285792655E+03  0.73095538946E+02 0.  0.
         -6    2    1    2    0  502  0.95955599929E+02  0.13915918668E+03  0.17610162699E+03  0.29896270744E+03  0.17260985203E+03 0.  0.
        -24    2    5    5    0    0  0.18708556419E+02  0.40009716635E+02  0.11132650350E+02  0.91514939573E+02  0.79374181903E+02 0.  0.
          5    1    3    3  501    0 -0.99991588219E+02 -0.95661655143E+02 -0.64038440113E+02  0.15255320971E+03  0.47000000000E+01 0. -1.
        -13    1    4    4    0    0  0.27461927271E+02 -0.57444831186E+01 -0.16114698870E+02  0.32354907749E+02  0.00000000000E+00 0.  1.
         14    1    4    4    0    0 -0.23425938982E+02 -0.37753048421E+02 -0.12270684835E+03  0.13050301880E+03  0.00000000000E+00 0. -1.
         -5    1    5    5    0  502  0.77247043511E+02  0.99149470048E+02  0.16496897664E+03  0.20744776787E+03  0.47000000000E+01 0.  1.
         11    1    6    6    0    0 -0.15909938211E+02 -0.68970550799E+01 -0.19138629912E+02  0.25826007387E+02  0.00000000000E+00 0. -1.
        -12    1    6    6    0    0  0.34618494630E+02  0.46906771714E+02  0.30271280261E+02  0.65688932186E+02  0.00000000000E+00 0.  1.
</event>
<event>
12    1  0.8453150E-002  0.1921978E+03  0.7818608E-02  0.1159243E+00
         21   -1    0    0  501  502  0.00000000000E+00  0.00000000000E+00  0.16207364062E+02  0.16207364062E+02  0.00000000000E+00 0. -1.
         21   -1    0    0  502  503 -0.00000000000E+00 -0.00000000000E+00 -0.21681073366E+04  0.21681073366E+04  0.00000000000E+00 0. -1.
         -6    2    1    2    0  503  0.41781168199E+02 -0.37735317553E+02 -0.98486067731E+03  0.10034393513E+04  0.18376712937E+03 0.  0.
        -24    2    3    3    0    0  0.52241007422E+01 -0.77887650282E+02 -0.86046769363E+03  0.86762943491E+03  0.79261637878E+02 0.  0.
          6    2    1    2  501    0 -0.41781168199E+02  0.37735317553E+02 -0.11670392952E+04  0.11808753494E+04  0.17121989925E+03 0.  0.
         24    2    5    5    0    0 -0.89229287081E+02  0.42384765577E+01 -0.69743149448E+03  0.70766615791E+03  0.80005444838E+02 0.  0.
          5    1    5    5  501    0  0.47448118882E+02  0.33496840995E+02 -0.46960780075E+03  0.47320919144E+03  0.47000000000E+01 0. -1.
        -11    1    6    6    0    0 -0.52653022626E+02 -0.21407144001E+02 -0.19125014550E+03  0.19951747983E+03  0.00000000000E+00 0.  1.
         12    1    6    6    0    0 -0.36576264455E+02  0.25645620559E+02 -0.50618134898E+03  0.50814867807E+03  0.00000000000E+00 0. -1.
         -5    1    3    3    0  503  0.36557067457E+02  0.40152332729E+02 -0.12439298368E+03  0.13580991640E+03  0.47000000000E+01 0.  1.
         11    1    4    4    0    0  0.31194281476E+02 -0.51908926376E+02 -0.30534845247E+03  0.31129615684E+03  0.00000000000E+00 0. -1.
        -12    1    4    4    0    0 -0.25970180734E+02 -0.25978723905E+02 -0.55511924116E+03  0.55633327807E+03  0.00000000000E+00 0.  1.
</event>
<event>
12    1  0.8453150E-002  0.2175298E+03  0.7818608E-02  0.1135873E+00
         21   -1    0    0  503  502  0.00000000000E+00  0.00000000000E+00  0.16827225675E+03  0.16827225675E+03  0.00000000000E+00 0. -1.
         21   -1    0    0  501  503 -0.00000000000E+00 -0.00000000000E+00 -0.35745497202E+03  0.35745497202E+03  0.00000000000E+00 0. -1.
          6    2    1    2  501    0 -0.32050853868E+02  0.12730676094E+03 -0.21660204851E+03  0.30647618724E+03  0.17255995281E+03 0.  0.
         24    2    3    3    0    0  0.23901890302E+02  0.19510441189E+02 -0.13615689478E+03  0.16072204874E+03  0.79629889365E+02 0.  0.
         -6    2    1    2    0  502  0.32050853868E+02 -0.12730676094E+03  0.27419333247E+02  0.21925104153E+03  0.17345008147E+03 0.  0.
        -24    2    5    5    0    0  0.44001277381E+02 -0.12515132790E+03 -0.32187127641E+02  0.15823892230E+03  0.80028607737E+02 0.  0.
          5    1    3    3  501    0 -0.55952744170E+02  0.10779631975E+03 -0.80445153734E+02  0.14575413850E+03  0.47000000000E+01 0. -1.
        -13    1    4    4    0    0 -0.29123965676E+02  0.11058536024E+01 -0.50711237829E+02  0.58489810489E+02  0.00000000000E+00 0.  1.
         14    1    4    4    0    0  0.53025855978E+02  0.18404587587E+02 -0.85445656950E+02  0.10223223825E+03  0.00000000000E+00 0. -1.
         -5    1    5    5    0  502 -0.11950423513E+02 -0.21554330324E+01  0.59606460888E+02  0.61012119233E+02  0.47000000000E+01 0.  1.
         13    1    6    6    0    0  0.52620089379E+02 -0.12483142775E+03 -0.11655264979E+02  0.13596913018E+03  0.00000000000E+00 0. -1.
        -14    1    6    6    0    0 -0.86188119976E+01 -0.31990015082E+00 -0.20531862662E+02  0.22269792113E+02  0.00000000000E+00 0.  1.
</event>
<event>
12    1  0.8453150E-002  0.1978240E+03  0.7818608E-02  0.1151673E+00
         21   -1    0    0  503  502  0.00000000000E+00  0.00000000000E+00  0.20370623367E+04  0.20370623367E+04  0.00000000000E+00 0.  1.
         21   -1    0    0  501  503 -0.00000000000E+00 -0.00000000000E+00 -0.50174410829E+02  0.50174410829E+02  0.00000000000E+00 0.  1.
          6    2    1    2  501    0 -0.93348493000E+02 -0.26018602218E+02  0.17272220762E+03  0.26231713804E+03  0.17200700886E+03 0.  0.
         24    2    3    3    0    0 -0.86039984823E+02 -0.72554515387E+02  0.16285537649E+03  0.21395961678E+03  0.81177627881E+02 0.  0.
         -6    2    1    2    0  502  0.93348493000E+02  0.26018602218E+02  0.18141657183E+04  0.18249196095E+04  0.17246280469E+03 0.  0.
        -24    2    5    5    0    0  0.84280532983E+02  0.76861542384E+02  0.11161312523E+04  0.11249614407E+04  0.82330830506E+02 0.  0.
          5    1    3    3  501    0 -0.73085081771E+01  0.46535913169E+02  0.98668311286E+01  0.48357521264E+02  0.47000000000E+01 0. -1.
        -11    1    4    4    0    0  0.79141801631E+01 -0.19398581509E+02  0.31393815431E+01  0.21184780591E+02  0.00000000000E+00 0.  1.
         12    1    4    4    0    0 -0.93954164986E+02 -0.53155933878E+02  0.15971599495E+03  0.19277483619E+03  0.00000000000E+00 0. -1.
         -5    1    5    5    0  502  0.90679600165E+01 -0.50842940166E+02  0.69803446593E+03  0.69995816882E+03  0.47000000000E+01 0.  1.
         13    1    6    6    0    0  0.90118154511E+02  0.62087708465E+02  0.69784914188E+03  0.70637779562E+03  0.00000000000E+00 0. -1.
        -14    1    6    6    0    0 -0.58376215282E+01  0.14773833919E+02  0.41828211043E+03  0.41858364505E+03  0.00000000000E+00 0.  1.
</event>
<event>
12    1  0.8453150E-002  0.1978106E+03  0.7818608E-02  0.1151827E+00
         21   -1    0    0  503  502  0.00000000000E+00  0.00000000000E+00  0.21987172805E+03  0.21987172805E+03  0.00000000000E+00 0. -1.
         21   -1    0    0  501  503 -0.00000000000E+00 -0.00000000000E+00 -0.17798596189E+03  0.17798596189E+03  0.00000000000E+00 0. -1.
          6    2    1    2  501    0  0.24928357579E+02 -0.94389069636E+02  0.61570200321E+01  0.19684629748E+03  0.17082106562E+03 0.  0.
         24    2    3    3    0    0 -0.26388749242E+02 -0.10573534257E+03  0.22692600792E+02  0.14154983473E+03  0.87436107112E+02 0.  0.
         -6    2    1    2    0  502 -0.24928357579E+02  0.94389069636E+02  0.35728746123E+02  0.20101139246E+03  0.17204161450E+03 0.  0.
        -24    2    5    5    0    0 -0.28512070244E+02  0.11269529055E+03 -0.22422630054E+02  0.13976081473E+03  0.74277482009E+02 0.  0.
          5    1    3    3  501    0  0.51317106821E+02  0.11346272932E+02 -0.16535580759E+02  0.55296462753E+02  0.47000000000E+01 0. -1.
        -11    1    4    4    0    0 -0.31819323667E+01 -0.27975644564E+02  0.48769890663E+02  0.56313973556E+02  0.00000000000E+00 0.  1.
         12    1    4    4    0    0 -0.23206816875E+02 -0.77759698004E+02 -0.26077289871E+02  0.85235861174E+02  0.00000000000E+00 0. -1.
         -5    1    5    5    0  502  0.35837126656E+01 -0.18306220915E+02  0.58151376177E+02  0.61250577727E+02  0.47000000000E+01 0.  1.
         11    1    6    6    0    0 -0.75554066637E+01  0.10859563308E+03 -0.84679559040E-01  0.10885817775E+03  0.00000000000E+00 0. -1.
        -12    1    6    6    0    0 -0.20956663581E+02  0.40996574749E+01 -0.22337950495E+02  0.30902636978E+02  0.00000000000E+00 0.  1.
</event>
<event>
12    1  0.8453150E-002  0.2213305E+03  0.7818608E-02  0.1132935E+00
         21   -1    0    0  503  502  0.00000000000E+00  0.00000000000E+00  0.50848582702E+03  0.50848582702E+03  0.00000000000E+00 0.  1.
         21   -1    0    0  501  503 -0.00000000000E+00 -0.00000000000E+00 -0.12661165214E+03  0.12661165214E+03  0.00000000000E+00 0.  1.
          6    2    1    2  501    0  0.10059398666E+03 -0.96704026117E+02  0.35354027349E+02  0.22392426639E+03  0.17152653151E+03 0.  0.
         24    2    3    3    0    0  0.81742198303E+02 -0.93523864915E+02  0.85343920613E+02  0.17019733853E+03  0.79088867508E+02 0.  0.
         -6    2    1    2    0  502 -0.10059398666E+03  0.96704026117E+02  0.34652014753E+03  0.41117321277E+03  0.17180331613E+03 0.  0.
        -24    2    5    5    0    0 -0.10201434650E+03  0.10474704834E+02  0.16956630717E+03  0.21426647116E+03  0.81490746737E+02 0.  0.
          5    1    3    3  501    0  0.18851788352E+02 -0.31801612014E+01 -0.49989893263E+02  0.53726927865E+02  0.47000000000E+01 0. -1.
        -13    1    4    4    0    0 -0.98505016226E+01 -0.11900582522E+01 -0.56977671205E+01  0.11441729372E+02  0.00000000000E+00 0.  1.
         14    1    4    4    0    0  0.91592699926E+02 -0.92333806663E+02  0.91041687733E+02  0.15875560915E+03  0.00000000000E+00 0. -1.
         -5    1    5    5    0  502  0.14203598469E+01  0.86229321283E+02  0.17695384036E+03  0.19690674160E+03  0.47000000000E+01 0.  1.
         11    1    6    6    0    0 -0.24313212986E+02  0.32698866013E+02  0.22728437582E+02  0.46657582869E+02  0.00000000000E+00 0. -1.
        -12    1    6    6    0    0 -0.77701133516E+02 -0.22224161180E+02  0.14683786959E+03  0.16760888829E+03  0.00000000000E+00 0.  1.
</event>
<event>
12    1  0.8453150E-002  0.2035869E+03  0.7818608E-02  0.1147021E+00
         21   -1    0    0  501  502  0.00000000000E+00  0.00000000000E+00  0.55503675153E+03  0.55503675153E+03  0.00000000000E+00 0.  1.
         21   -1    0    0  502  503 -0.00000000000E+00 -0.00000000000E+00 -0.74286069467E+02  0.74286069467E+02  0.00000000000E+00 0. -1.
         -6    2    1    2    0  503  0.10783250085E+03  0.20481521430E+02  0.22991386690E+03  0.30709610560E+03  0.17146513034E+03 0.  0.
        -24    2    3    3    0    0  0.10416913871E+03 -0.18411326360E+02  0.23280400455E+03  0.26764339052E+03  0.79025904352E+02 0.  0.
          6    2    1    2  501    0 -0.10783250085E+03 -0.20481521430E+02  0.25083681517E+03  0.32222671540E+03  0.16989292898E+03 0.  0.
         24    2    5    5    0    0 -0.17875575542E+02  0.43397150383E+02  0.11801683931E+03  0.14949580007E+03  0.78855380393E+02 0.  0.
          5    1    5    5  501    0 -0.89956925307E+02 -0.63878671813E+02  0.13281997586E+03  0.17273091533E+03  0.47000000000E+01 0. -1.
        -13    1    6    6    0    0 -0.45977711151E+02  0.43847290293E+02  0.85379600505E+02  0.10642467276E+03  0.00000000000E+00 0.  1.
         14    1    6    6    0    0  0.28102135609E+02 -0.45013991060E+00  0.32637238800E+02  0.43071127315E+02  0.00000000000E+00 0. -1.
         -5    1    3    3    0  503  0.36633621408E+01  0.38892847790E+02 -0.28901376471E+01  0.39452715078E+02  0.47000000000E+01 0.  1.
         11    1    4    4    0    0  0.15182800846E+02  0.23938582519E+02  0.25595041645E+02  0.38192660700E+02  0.00000000000E+00 0. -1.
        -12    1    4    4    0    0  0.88986337862E+02 -0.42349908879E+02  0.20720896290E+03  0.22945072982E+03  0.00000000000E+00 0.  1.
</event>
<event>
12    1  0.8453150E-002  0.1916688E+03  0.7818608E-02  0.1157230E+00
         21   -1    0    0  503  502  0.00000000000E+00  0.00000000000E+00  0.74722768189E+02  0.74722768189E+02  0.00000000000E+00 0. -1.
         21   -1    0    0  501  503 -0.00000000000E+00 -0.00000000000E+00 -0.48953606674E+03  0.48953606674E+03  0.00000000000E+00 0. -1.
          6    2    1    2  501    0 -0.78197397636E+02 -0.20296097992E+02 -0.19576790728E+03  0.27397448158E+03  0.17381075470E+03 0.  0.
         24    2    3    3    0    0  0.19237453537E+02 -0.44797311441E+02 -0.94724503317E+02  0.13140618508E+03  0.76928377197E+02 0.  0.
         -6    2    1    2    0  502  0.78197397636E+02  0.20296097992E+02 -0.21904539128E+03  0.29028435335E+03  0.17250321089E+03 0.  0.
        -24    2    5    5    0    0  0.11859014112E+03  0.35388700633E+01 -0.13941700184E+03  0.19931650838E+03  0.78827818289E+02 0.  0.
          5    1    3    3  501    0 -0.97434851173E+02  0.24501213449E+02 -0.10104340396E+03  0.14256829650E+03  0.47000000000E+01 0. -1.
        -11    1    4    4    0    0 -0.11335838655E+01 -0.62766659099E+02 -0.56132777311E+02  0.84212987095E+02  0.00000000000E+00 0.  1.
         12    1    4    4    0    0  0.20371037402E+02  0.17969347658E+02 -0.38591726006E+02  0.47193197987E+02  0.00000000000E+00 0. -1.
         -5    1    5    5    0  502 -0.40392743488E+02  0.16757227929E+02 -0.79628389436E+02  0.90967844970E+02  0.47000000000E+01 0.  1.
         11    1    6    6    0    0  0.94973709170E+02 -0.97621092685E+01 -0.14303478759E+03  0.17197166822E+03  0.00000000000E+00 0. -1.
        -12    1    6    6    0    0  0.23616431954E+02  0.13300979332E+02  0.36177857461E+01  0.27344840155E+02  0.00000000000E+00 0.  1.
</event>
<event>
12    1  0.8453150E-002  0.3584901E+03  0.7818608E-02  0.1059524E+00
         21   -1    0    0  501  502  0.00000000000E+00  0.00000000000E+00  0.68448064568E+03  0.68448064568E+03  0.00000000000E+00 0. -1.
         21   -1    0    0  502  503 -0.00000000000E+00 -0.00000000000E+00 -0.57248300738E+03  0.57248300738E+03  0.00000000000E+00 0. -1.
         -6    2    1    2    0  503 -0.23086358069E+02 -0.30970320126E+03 -0.46049068094E+03  0.58149492355E+03  0.17215001042E+03 0.  0.
        -24    2    3    3    0    0 -0.14535694076E+02 -0.29744156534E+03 -0.33784659088E+03  0.45785381228E+03  0.82504686291E+02 0.  0.
          6    2    1    2  501    0  0.23086358069E+02  0.30970320126E+03  0.57248831924E+03  0.67546872951E+03  0.17907003121E+03 0.  0.
         24    2    5    5    0    0  0.58479804471E+00  0.32224093477E+03  0.51279322142E+03  0.61028353434E+03  0.75163437420E+02 0.  0.
          5    1    5    5  501    0  0.22501560024E+02 -0.12537733510E+02  0.59695097820E+02  0.65185195166E+02  0.47000000000E+01 0. -1.
        -13    1    6    6    0    0 -0.24902274911E+02  0.62207695297E+02  0.76111255283E+02  0.10140435805E+03  0.00000000000E+00 0.  1.
         14    1    6    6    0    0  0.25487072956E+02  0.26003323947E+03  0.43668196614E+03  0.50887917630E+03  0.00000000000E+00 0. -1.
         -5    1    3    3    0  503 -0.85506639924E+01 -0.12261635921E+02 -0.12264409006E+03  0.12364111127E+03  0.47000000000E+01 0.  1.
         11    1    4    4    0    0 -0.34244910941E+02 -0.24399626180E+03 -0.30504300688E+03  0.39212003996E+03  0.00000000000E+00 0. -1.
        -12    1    4    4    0    0  0.19709216865E+02 -0.53445303539E+02 -0.32803584003E+02  0.65733772318E+02  0.00000000000E+00 0.  1.
</event>
<event>
12    1  0.8453150E-002  0.1836413E+03  0.7818608E-02  0.1164628E+00
         21   -1    0    0  501  502  0.00000000000E+00  0.00000000000E+00  0.19929567509E+04  0.19929567509E+04  0.00000000000E+00 0.  1.
         21   -1    0    0  502  503 -0.00000000000E+00 -0.00000000000E+00 -0.17210838970E+02  0.17210838970E+02  0.00000000000E+00 0.  1.
         -6    2    1    2    0  503 -0.59317523874E+02  0.14783994734E+02  0.83669709128E+03  0.85661318572E+03  0.17316752656E+03 0.  0.
        -24    2    3    3    0    0 -0.70588885830E+02  0.43909850581E+02  0.79770805483E+03  0.80643755376E+03  0.84217109878E+02 0.  0.
          6    2    1    2  501    0  0.59317523874E+02 -0.14783994734E+02  0.11390488206E+04  0.11535544041E+04  0.17180923248E+03 0.  0.
         24    2    5    5    0    0  0.57944001126E+02 -0.69493051063E+02  0.65880400800E+03  0.67017863160E+03  0.83245936142E+02 0.  0.
          5    1    5    5  501    0  0.13735227479E+01  0.54709056329E+02  0.48024481264E+03  0.48337577253E+03  0.47000000000E+01 0. -1.
        -13    1    6    6    0    0  0.21228045625E+02  0.30690232777E+01  0.35597094635E+03  0.35661654963E+03  0.00000000000E+00 0.  1.
         14    1    6    6    0    0  0.36715955501E+02 -0.72562074341E+02  0.30283306165E+03  0.31356208197E+03  0.00000000000E+00 0. -1.
         -5    1    3    3    0  503  0.11271361956E+02 -0.29125855846E+02  0.38989036446E+02  0.50175631955E+02  0.47000000000E+01 0.  1.
         13    1    4    4    0    0  0.17184725031E+02 -0.43727365261E+01  0.14651504719E+03  0.14758419513E+03  0.00000000000E+00 0. -1.
        -14    1    4    4    0    0 -0.87773610861E+02  0.48282587107E+02  0.65119300764E+03  0.65885335863E+03  0.00000000000E+00 0.  1.
</event>
<event>
12    1  0.8453150E-002  0.1983358E+03  0.7818608E-02  0.1151542E+00
         21   -1    0    0  503  502  0.00000000000E+00  0.00000000000E+00  0.45021543892E+02  0.45021543892E+02  0.00000000000E+00 0.  1.
         21   -1    0    0  501  503 -0.00000000000E+00 -0.00000000000E+00 -0.87793192438E+03  0.87793192438E+03  0.00000000000E+00 0. -1.
          6    2    1    2  501    0 -0.29237281749E+02 -0.99894081235E+02 -0.36010949930E+03  0.41023739507E+03  0.16668000094E+03 0.  0.
         24    2    3    3    0    0 -0.16934683179E+02 -0.93458218719E+02 -0.13013941958E+03  0.17980063188E+03  0.79817144506E+02 0.  0.
         -6    2    1    2    0  502  0.29237281749E+02  0.99894081235E+02 -0.47280088118E+03  0.51271607320E+03  0.16882965486E+03 0.  0.
        -24    2    5    5    0    0  0.28835764265E+02  0.70918465659E+02 -0.47040730337E+03  0.48326158748E+03  0.79986253801E+02 0.  0.
          5    1    3    3  501    0 -0.12302598570E+02 -0.64358625164E+01 -0.22997007973E+03  0.23043676319E+03  0.47000000000E+01 0. -1.
        -13    1    4    4    0    0 -0.47218539736E+02 -0.48094398901E+02 -0.55230878532E+02  0.87138462483E+02  0.00000000000E+00 0.  1.
         14    1    4    4    0    0  0.30283856557E+02 -0.45363819818E+02 -0.74908541043E+02  0.92662169398E+02  0.00000000000E+00 0. -1.
         -5    1    5    5    0  502  0.40151748392E+00  0.28975615577E+02 -0.23935778117E+01  0.29454485721E+02  0.47000000000E+01 0.  1.
         11    1    6    6    0    0 -0.11777821573E+02  0.31647447813E+02 -0.33279779513E+03  0.33450657763E+03  0.00000000000E+00 0. -1.
        -12    1    6    6    0    0  0.40613585838E+02  0.39271017846E+02 -0.13760950824E+03  0.14875500985E+03  0.00000000000E+00 0.  1.
</event>
<event>
12    1  0.8453150E-002  0.1851261E+03  0.7818608E-02  0.1163118E+00
         21   -1    0    0  501  502  0.00000000000E+00  0.00000000000E+00  0.30264085532E+03  0.30264085532E+03  0.00000000000E+00 0.  1.
         21   -1    0    0  502  503 -0.00000000000E+00 -0.00000000000E+00 -0.63703942918E+03  0.63703942918E+03  0.00000000000E+00 0.  1.
         -6    2    1    2    0  503 -0.42412453192E+02 -0.52127391020E+02 -0.59349816327E+03  0.62170068559E+03  0.17249809149E+03 0.  0.
        -24    2    3    3    0    0  0.10774412647E+00  0.30470828892E+02 -0.37256229807E+03  0.38198172587E+03  0.78605915401E+02 0.  0.
          6    2    1    2  501    0  0.42412453192E+02  0.52127391020E+02  0.25909958941E+03  0.31797959892E+03  0.17164599330E+03 0.  0.
         24    2    5    5    0    0  0.28456163119E+01  0.78217783481E+02  0.87136602036E+02  0.13954304945E+03  0.75850880357E+02 0.  0.
          5    1    5    5  501    0  0.39566836880E+02 -0.26090392462E+02  0.17196298737E+03  0.17843654946E+03  0.47000000000E+01 0. -1.
        -11    1    6    6    0    0  0.19689635652E+01  0.91926607126E+02  0.85765074045E+02  0.12573792523E+03  0.00000000000E+00 0.  1.
         12    1    6    6    0    0  0.87665274668E+00 -0.13708823644E+02  0.13715279912E+01  0.13805124222E+02  0.00000000000E+00 0. -1.
         -5    1    3    3    0  503 -0.42520197319E+02 -0.82598219912E+02 -0.22093586521E+03  0.23971895972E+03  0.47000000000E+01 0.  1.
         13    1    4    4    0    0 -0.16986648642E+02  0.30776789989E+02 -0.64601144307E+02  0.73546345116E+02  0.00000000000E+00 0. -1.
        -14    1    4    4    0    0  0.17094392768E+02 -0.30596109710E+00 -0.30796115376E+03  0.30843538075E+03  0.00000000000E+00 0.  1.
</event>
<event>
12    1  0.8453150E-002  0.4284294E+03  0.7818608E-02  0.1034366E+00
         21   -1    0    0  503  502  0.00000000000E+00  0.00000000000E+00  0.14906694769E+03  0.14906694769E+03  0.00000000000E+00 0.  1.
         21   -1    0    0  501  503 -0.00000000000E+00 -0.00000000000E+00 -0.14572750609E+04  0.14572750609E+04  0.00000000000E+00 0. -1.
          6    2    1    2  501    0  0.38279812887E+03 -0.85301093422E+02 -0.97065023593E+03  0.10609965245E+04  0.17245596680E+03 0.  0.
         24    2    3    3    0    0  0.10401216158E+03 -0.70591716239E+02 -0.33552166655E+03  0.36720378097E+03  0.80387237015E+02 0.  0.
         -6    2    1    2    0  502 -0.38279812887E+03  0.85301093422E+02 -0.33755787732E+03  0.54534548413E+03  0.17217924532E+03 0.  0.
        -24    2    5    5    0    0 -0.28924573757E+03  0.18563158736E+02 -0.18029359711E+03  0.35051184824E+03  0.79656054603E+02 0.  0.
          5    1    3    3  501    0  0.27878596729E+03 -0.14709377183E+02 -0.63512856939E+03  0.69379274354E+03  0.47000000000E+01 0. -1.
        -13    1    4    4    0    0  0.88866356210E+01 -0.44096496779E+02 -0.63539396144E+02  0.77850678758E+02  0.00000000000E+00 0.  1.
         14    1    4    4    0    0  0.95125525958E+02 -0.26495219460E+02 -0.27198227040E+03  0.28935310221E+03  0.00000000000E+00 0. -1.
         -5    1    5    5    0  502 -0.93552391299E+02  0.66737934686E+02 -0.15726428021E+03  0.19483363589E+03  0.47000000000E+01 0.  1.
         13    1    6    6    0    0 -0.38905335025E+02 -0.12102647851E+02 -0.56224712180E+02  0.69435707227E+02  0.00000000000E+00 0. -1.
        -14    1    6    6    0    0 -0.25034040255E+03  0.30665806587E+02 -0.12406888493E+03  0.28107614102E+03  0.00000000000E+00 0.  1.
</event>
<event>
12    1  0.8453150E-002  0.1810003E+03  0.7818608E-02  0.1167391E+00
         21   -1    0    0  501  502  0.00000000000E+00  0.00000000000E+00  0.16546473924E+03  0.16546473924E+03  0.00000000000E+00 0. -1.
         21   -1    0    0  502  503 -0.00000000000E+00 -0.00000000000E+00 -0.53689567685E+03  0.53689567685E+03  0.00000000000E+00 0. -1.
         -6    2    1    2    0  503 -0.26005127396E+02 -0.44205357477E+02 -0.46617647041E+03  0.50008159401E+03  0.17358202332E+03 0.  0.
        -24    2    3    3    0    0 -0.37840904453E+02 -0.77774360446E+02 -0.19322931902E+03  0.22478320856E+03  0.75558824292E+02 0.  0.
          6    2    1    2  501    0  0.26005127396E+02  0.44205357477E+02  0.94745532800E+02  0.20227882208E+03  0.17120054204E+03 0.  0.
         24    2    5    5    0    0  0.33737193933E+02 -0.35399082123E+01 -0.79839447487E+01  0.88635384936E+02  0.81496986965E+02 0.  0.
          5    1    5    5  501    0 -0.77320665371E+01  0.47745265689E+02  0.10272947755E+03  0.11364343714E+03  0.47000000000E+01 0. -1.
        -11    1    6    6    0    0  0.36630042332E+02  0.20053404408E+02 -0.33666672398E+02  0.53640878627E+02  0.00000000000E+00 0.  1.
         12    1    6    6    0    0 -0.28928483988E+01 -0.23593312620E+02  0.25682727650E+02  0.34994506308E+02  0.00000000000E+00 0. -1.
         -5    1    3    3    0  503  0.11835777057E+02  0.33569002969E+02 -0.27294715140E+03  0.27529838546E+03  0.47000000000E+01 0.  1.
         11    1    4    4    0    0 -0.16348605279E+02 -0.20638911758E+02 -0.14392853526E+03  0.14631700118E+03  0.00000000000E+00 0. -1.
        -12    1    4    4    0    0 -0.21492299174E+02 -0.57135448688E+02 -0.49300783759E+02  0.78466207375E+02  0.00000000000E+00 0.  1.
</event>
<event>
12    1  0.8453150E-002  0.1734100E+03  0.7818608E-02  0.1174411E+00
         21   -1    0    0  503  502  0.00000000000E+00  0.00000000000E+00  0.10558203753E+03  0.10558203753E+03  0.00000000000E+00 0. -1.
         21   -1    0    0  501  503 -0.00000000000E+00 -0.00000000000E+00 -0.32111179958E+03  0.32111179958E+03  0.00000000000E+00 0. -1.
          6    2    1    2  501    0  0.14449885564E+02  0.20515820330E+02 -0.17988146410E+03  0.24965760403E+03  0.17129471693E+03 0.  0.
         24    2    3    3    0    0 -0.45781402921E+02  0.25339984692E+02 -0.51385366454E+02  0.10758572862E+03  0.78715827116E+02 0.  0.
         -6    2    1    2    0  502 -0.14449885564E+02 -0.20515820330E+02 -0.35648297953E+02  0.17703623308E+03  0.17158475631E+03 0.  0.
        -24    2    5    5    0    0 -0.45811730500E+02  0.39584553612E+02 -0.42469850984E+00  0.10049596770E+03  0.80209772593E+02 0.  0.
          5    1    3    3  501    0  0.60231288485E+02 -0.48241643617E+01 -0.12849609765E+03  0.14207187542E+03  0.47000000000E+01 0. -1.
        -11    1    4    4    0    0 -0.27410756156E+02  0.53519769766E+02 -0.39333930209E+02  0.71853137541E+02  0.00000000000E+00 0.  1.
         12    1    4    4    0    0 -0.18370646764E+02 -0.28179785074E+02 -0.12051436246E+02  0.35732591075E+02  0.00000000000E+00 0. -1.
         -5    1    5    5    0  502  0.31361844936E+02 -0.60100373943E+02 -0.35223599443E+02  0.76540265374E+02  0.47000000000E+01 0.  1.
         11    1    6    6    0    0 -0.31766811877E+02  0.20811154029E+02 -0.39583304787E+02  0.54855013323E+02  0.00000000000E+00 0. -1.
        -12    1    6    6    0    0 -0.14044918624E+02  0.18773399583E+02  0.39158606277E+02  0.45640954379E+02  0.00000000000E+00 0.  1.
</event>
<event>
12    1  0.8453150E-002  0.2162996E+03  0.7818608E-02  0.1136725E+00
         21   -1    0    0  503  502  0.00000000000E+00  0.00000000000E+00  0.69947882128E+02  0.69947882128E+02  0.00000000000E+00 0.  1.
         21   -1    0    0  501  503 -0.00000000000E+00 -0.00000000000E+00 -0.69356008134E+03  0.69356008134E+03  0.00000000000E+00 0.  1.
          6    2    1    2  501    0  0.51349893219E+02  0.12073817653E+03 -0.23871642523E+03  0.32213511624E+03  0.17196215466E+03 0.  0.
         24    2    3    3    0    0 -0.10714319052E+02  0.12988520104E+03 -0.17258683807E+03  0.23086164364E+03  0.80783165002E+02 0.  0.
         -6    2    1    2    0  502 -0.51349893219E+02 -0.12073817653E+03 -0.38489577398E+03  0.44137284722E+03  0.17161210515E+03 0.  0.
        -24    2    5    5    0    0 -0.65582688473E+02 -0.11261441859E+02 -0.21441847907E+03  0.23821693179E+03  0.79649942411E+02 0.  0.
          5    1    3    3  501    0  0.62064212271E+02 -0.91470245156E+01 -0.66129587158E+02  0.91273472598E+02  0.47000000000E+01 0. -1.
        -13    1    4    4    0    0  0.18156698560E+02  0.12148463981E+03 -0.13147349054E+03  0.17992626859E+03  0.00000000000E+00 0.  1.
         14    1    4    4    0    0 -0.28871017611E+02  0.84005612306E+01 -0.41113347531E+02  0.50935375056E+02  0.00000000000E+00 0. -1.
         -5    1    5    5    0  502  0.14232795254E+02 -0.10947673467E+03 -0.17047729491E+03  0.20315591543E+03  0.47000000000E+01 0.  1.
         11    1    6    6    0    0 -0.48956497877E+02  0.15113955080E+01 -0.41979805000E+02  0.64508348519E+02  0.00000000000E+00 0. -1.
        -12    1    6    6    0    0 -0.16626190596E+02 -0.12772837367E+02 -0.17243867407E+03  0.17370858327E+03  0.00000000000E+00 0.  1.
</event>
<event>
12    1  0.8453150E-002  0.3350676E+03  0.7818608E-02  0.1069168E+00
         21   -1    0    0  503  502  0.00000000000E+00  0.00000000000E+00  0.36379912949E+03  0.36379912949E+03  0.00000000000E+00 0. -1.
         21   -1    0    0  501  503 -0.00000000000E+00 -0.00000000000E+00 -0.73652218779E+03  0.73652218779E+03  0.00000000000E+00 0.  1.
          6    2    1    2  501    0 -0.27510551917E+03 -0.84775389358E+02 -0.60701842104E+03  0.69335537079E+03  0.17146542918E+03 0.  0.
         24    2    3    3    0    0 -0.82853169104E+02 -0.39082685925E+02 -0.13064851878E+03  0.17760430387E+03  0.77988135787E+02 0.  0.
         -6    2    1    2    0  502  0.27510551917E+03  0.84775389358E+02  0.23429536273E+03  0.40696594649E+03  0.16690431774E+03 0.  0.
        -24    2    5    5    0    0  0.19381483596E+03 -0.13682269563E+01  0.18176732202E+03  0.27731185720E+03  0.79350136130E+02 0.  0.
          5    1    3    3  501    0 -0.19225235007E+03 -0.45692703433E+02 -0.47636990226E+03  0.51575106693E+03  0.47000000000E+01 0. -1.
        -11    1    4    4    0    0 -0.53304511197E+02 -0.14220469561E+02 -0.12742285171E+03  0.13885307273E+03  0.00000000000E+00 0.  1.
         12    1    4    4    0    0 -0.29548657907E+02 -0.24862216364E+02 -0.32256670675E+01  0.38751231137E+02  0.00000000000E+00 0. -1.
         -5    1    5    5    0  502  0.81290683213E+02  0.86143616314E+02  0.52528040715E+02  0.12965408929E+03  0.47000000000E+01 0.  1.
         11    1    6    6    0    0  0.10930941563E+03  0.28483714687E+02  0.65723792042E+02  0.13068851207E+03  0.00000000000E+00 0. -1.
        -12    1    6    6    0    0  0.84505420330E+02 -0.29851941643E+02  0.11604352998E+03  0.14662334512E+03  0.00000000000E+00 0.  1.
</event>
<event>
12    1  0.8453150E-002  0.3528553E+03  0.7818608E-02  0.1062892E+00
         21   -1    0    0  503  502  0.00000000000E+00  0.00000000000E+00  0.18142080936E+03  0.18142080936E+03  0.00000000000E+00 0. -1.
         21   -1    0    0  501  503 -0.00000000000E+00 -0.00000000000E+00 -0.83438891246E+03  0.83438891246E+03  0.00000000000E+00 0.  1.
          6    2    1    2  501    0 -0.29562082334E+03 -0.67356309889E+02 -0.55378504237E+03  0.64927981678E+03  0.15151852579E+03 0.  0.
         24    2    3    3    0    0 -0.20490127497E+03 -0.10091570480E+03 -0.38200077331E+03  0.45207891786E+03  0.79260615677E+02 0.  0.
         -6    2    1    2    0  502  0.29562082334E+03  0.67356309889E+02 -0.99183060734E+02  0.36652990504E+03  0.18049473145E+03 0.  0.
        -24    2    5    5    0    0  0.42129728010E+02  0.41622427100E+02  0.53963242378E+01  0.91068644797E+02  0.68971279023E+02 0.  0.
          5    1    3    3  501    0 -0.90719548370E+02  0.33559394910E+02 -0.17178426905E+03  0.19720089893E+03  0.47000000000E+01 0. -1.
        -11    1    4    4    0    0 -0.12583258023E+03 -0.71315020890E+02 -0.30609192247E+03  0.33854384569E+03  0.00000000000E+00 0.  1.
         12    1    4    4    0    0 -0.79068694737E+02 -0.29600683909E+02 -0.75908850842E+02  0.11353507216E+03  0.00000000000E+00 0. -1.
         -5    1    5    5    0  502  0.25349109533E+03  0.25733882789E+02 -0.10457938497E+03  0.27546126025E+03  0.47000000000E+01 0.  1.
         11    1    6    6    0    0  0.13661718516E+02 -0.15632360339E+02  0.16055178742E+02  0.26244656732E+02  0.00000000000E+00 0. -1.
        -12    1    6    6    0    0  0.28468009494E+02  0.57254787439E+02 -0.10658854504E+02  0.64823988065E+02  0.00000000000E+00 0.  1.
</event>
<event>
12    1  0.8453150E-002  0.1783269E+03  0.7818608E-02  0.1169855E+00
         21   -1    0    0  501  502  0.00000000000E+00  0.00000000000E+00  0.86910238690E+03  0.86910238690E+03  0.00000000000E+00 0.  1.
         21   -1    0    0  502  503 -0.00000000000E+00 -0.00000000000E+00 -0.52202102658E+02  0.52202102658E+02  0.00000000000E+00 0.  1.
         -6    2    1    2    0  503  0.43712202209E+02  0.26907410443E+02  0.15508528436E+03  0.23633015656E+03  0.17077977665E+03 0.  0.
        -24    2    3    3    0    0  0.30383474749E+02 -0.39500324050E+02  0.12565635386E+02  0.78464446154E+02  0.59290327877E+02 0.  0.
          6    2    1    2  501    0 -0.43712202209E+02 -0.26907410443E+02  0.66181499988E+03  0.68497433300E+03  0.16898513972E+03 0.  0.
         24    2    5    5    0    0  0.11442608488E+02 -0.66440332552E+01  0.57868593090E+03  0.58306658204E+03  0.70101041317E+02 0.  0.
          5    1    5    5  501    0 -0.55154810697E+02 -0.20263377188E+02  0.83129068973E+02  0.10190775096E+03  0.47000000000E+01 0. -1.
        -11    1    6    6    0    0  0.21416165942E+02 -0.29148005182E+02  0.17868785639E+03  0.18231184380E+03  0.00000000000E+00 0.  1.
         12    1    6    6    0    0 -0.99735574541E+01  0.22503971927E+02  0.39999807452E+03  0.40075473823E+03  0.00000000000E+00 0. -1.
         -5    1    3    3    0  503  0.13328727460E+02  0.66407734492E+02  0.14251964898E+03  0.15786571040E+03  0.47000000000E+01 0.  1.
         13    1    4    4    0    0 -0.77526814909E+01  0.11086659864E+02  0.59144359288E+01  0.14764777329E+02  0.00000000000E+00 0. -1.
        -14    1    4    4    0    0  0.38136156240E+02 -0.50586983913E+02  0.66511994569E+01  0.63699668825E+02  0.00000000000E+00 0.  1.
</event>
<event>
12    1  0.8453150E-002  0.1842191E+03  0.7818608E-02  0.1163997E+00
         21   -1    0    0  503  502  0.00000000000E+00  0.00000000000E+00  0.16211508710E+03  0.16211508710E+03  0.00000000000E+00 0.  1.
         21   -1    0    0  501  503 -0.00000000000E+00 -0.00000000000E+00 -0.44297889037E+03  0.44297889037E+03  0.00000000000E+00 0.  1.
          6    2    1    2  501    0 -0.27061941964E+02  0.58643169912E+02 -0.36081001117E+03  0.40511795707E+03  0.17252630206E+03 0.  0.
         24    2    3    3    0    0  0.11335515045E+02 -0.68254246929E+00 -0.82584422860E+02  0.11801958918E+03  0.83543262844E+02 0.  0.
         -6    2    1    2    0  502  0.27061941964E+02 -0.58643169912E+02  0.79946207895E+02  0.19997602040E+03  0.17154487022E+03 0.  0.
        -24    2    5    5    0    0  0.22397996335E+02 -0.21783152959E+01 -0.19537021299E+02  0.85394018817E+02  0.80025170735E+02 0.  0.
          5    1    3    3  501    0 -0.38397457009E+02  0.59325712381E+02 -0.27822558831E+03  0.28709836789E+03  0.47000000000E+01 0. -1.
        -13    1    4    4    0    0 -0.28623171821E+02 -0.57039703496E+01 -0.69976736765E+02  0.75819291286E+02  0.00000000000E+00 0.  1.
         14    1    4    4    0    0  0.39958686866E+02  0.50214278803E+01 -0.12607686095E+02  0.42200297898E+02  0.00000000000E+00 0. -1.
         -5    1    5    5    0  502  0.46639456290E+01 -0.56464854616E+02  0.99483229193E+02  0.11458200158E+03  0.47000000000E+01 0.  1.
         13    1    6    6    0    0  0.39914186503E+02 -0.28231515233E+02 -0.22582005254E+02  0.53852648011E+02  0.00000000000E+00 0. -1.
        -14    1    6    6    0    0 -0.17516190169E+02  0.26053199937E+02  0.30449839550E+01  0.31541370805E+02  0.00000000000E+00 0.  1.
</event>
<event>
12    1  0.8453150E-002  0.2351644E+03  0.7818608E-02  0.1123271E+00
         21   -1    0    0  503  502  0.00000000000E+00  0.00000000000E+00  0.58106924535E+03  0.58106924535E+03  0.00000000000E+00 0. -1.
         21   -1    0    0  501  503 -0.00000000000E+00 -0.00000000000E+00 -0.10204276679E+03  0.10204276679E+03  0.00000000000E+00 0.  1.
          6    2    1    2  501    0 -0.13416811553E+03  0.85491044870E+02  0.14828496611E+03  0.27801208071E+03  0.17318338220E+03 0.  0.
         24    2    3    3    0    0 -0.77989480470E+02  0.10757137559E+03  0.15312567392E+03  0.21727409841E+03  0.78144749790E+02 0.  0.
         -6    2    1    2    0  502  0.13416811553E+03 -0.85491044870E+02  0.33074151245E+03  0.40509993142E+03  0.17148237346E+03 0.  0.
        -24    2    5    5    0    0  0.10990414497E+03 -0.12533892128E+03  0.23837700419E+03  0.30151476884E+03  0.79364938325E+02 0.  0.
          5    1    3    3  501    0 -0.56178635055E+02 -0.22080330716E+02 -0.48407078056E+01  0.60737982295E+02  0.47000000000E+01 0. -1.
        -11    1    4    4    0    0 -0.93144463060E+02  0.82149205642E+02  0.12924363616E+03  0.17924369019E+03  0.00000000000E+00 0.  1.
         12    1    4    4    0    0  0.15154982591E+02  0.25422169944E+02  0.23882037757E+02  0.38030408220E+02  0.00000000000E+00 0. -1.
         -5    1    5    5    0  502  0.24263970560E+02  0.39847876407E+02  0.92364508261E+02  0.10358516258E+03  0.47000000000E+01 0.  1.
         11    1    6    6    0    0  0.80014304349E+02 -0.65960611622E+02  0.19860956621E+03  0.22405100084E+03  0.00000000000E+00 0. -1.
        -12    1    6    6    0    0  0.29889840617E+02 -0.59378309655E+02  0.39767437974E+02  0.77463767999E+02  0.00000000000E+00 0.  1.
</event>
<event>
12    1  0.8453150E-002  0.2199285E+03  0.7818608E-02  0.1134072E+00
         21   -1    0    0  501  502  0.00000000000E+00  0.00000000000E+00  0.82594396202E+02  0.82594396202E+02  0.00000000000E+00 0.  1.
         21   -1    0    0  502  503 -0.00000000000E+00 -0.00000000000E+00 -0.59099502199E+03  0.59099502199E+03  0.00000000000E+00 0.  1.
         -6    2    1    2    0  503 -0.79491364403E+02  0.10966227936E+03 -0.21633307521E+03  0.30797761053E+03  0.17235288401E+03 0.  0.
        -24    2    3    3    0    0 -0.58758977138E+02  0.27416976814E+02 -0.19409627721E+03  0.22016709374E+03  0.81215000638E+02 0.  0.
          6    2    1    2  501    0  0.79491364403E+02 -0.10966227936E+03 -0.29206755057E+03  0.36561180766E+03  0.17327390824E+03 0.  0.
         24    2    5    5    0    0  0.51389625464E+02 -0.35614169165E+02 -0.54343501531E+02  0.11499727527E+03  0.79761485127E+02 0.  0.
          5    1    5    5  501    0  0.28101738939E+02 -0.74048110194E+02 -0.23772404904E+03  0.25061453240E+03  0.47000000000E+01 0. -1.
        -11    1    6    6    0    0  0.19753645535E+02 -0.55753789811E+02 -0.15808820660E+02  0.61225896489E+02  0.00000000000E+00 0.  1.
         12    1    6    6    0    0  0.31635979929E+02  0.20139620646E+02 -0.38534680872E+02  0.53771378779E+02  0.00000000000E+00 0. -1.
         -5    1    3    3    0  503 -0.20732387266E+02  0.82245302545E+02 -0.22236798003E+02  0.87810516784E+02  0.47000000000E+01 0.  1.
         11    1    4    4    0    0  0.14183245883E+02 -0.98845199800E+01 -0.65076290394E+02  0.67333437240E+02  0.00000000000E+00 0. -1.
        -12    1    4    4    0    0 -0.72942223021E+02  0.37301496794E+02 -0.12901998681E+03  0.15283365650E+03  0.00000000000E+00 0.  1.
</event>
<event>
12    1  0.8453150E-002  0.2330641E+03  0.7818608E-02  0.1124502E+00
         21   -1    0    0  503  502  0.00000000000E+00  0.00000000000E+00  0.51027072827E+02  0.51027072827E+02  0.00000000000E+00 0.  1.
         21   -1    0    0  501  503 -0.00000000000E+00 -0.00000000000E+00 -0.12720809954E+04  0.12720809954E+04  0.00000000000E+00 0.  1.
          6    2    1    2  501    0 -0.12135051929E+03 -0.99561245377E+02 -0.87776651776E+03  0.90818021500E+03  0.17227551507E+03 0.  0.
         24    2    3    3    0    0 -0.12563483275E+03 -0.17011866151E+02 -0.53630032705E+03  0.55681999421E+03  0.79730485813E+02 0.  0.
         -6    2    1    2    0  502  0.12135051929E+03  0.99561245377E+02 -0.34328740482E+03  0.41492785324E+03  0.17228026867E+03 0.  0.
        -24    2    5    5    0    0  0.30477693603E+02  0.10931276981E+03 -0.23695444651E+03  0.27463619027E+03  0.79996598869E+02 0.  0.
          5    1    3    3  501    0  0.42843134577E+01 -0.82549379226E+02 -0.34146619071E+03  0.35136022079E+03  0.47000000000E+01 0. -1.
        -13    1    4    4    0    0 -0.59361276983E+02 -0.34818857854E+01 -0.40276195562E+03  0.40712783941E+03  0.00000000000E+00 0.  1.
         14    1    4    4    0    0 -0.66273555763E+02 -0.13529980366E+02 -0.13353837143E+03  0.14969215479E+03  0.00000000000E+00 0. -1.
         -5    1    5    5    0  502  0.90872825685E+02 -0.97515244378E+01 -0.10633295830E+03  0.14029166297E+03  0.47000000000E+01 0.  1.
         11    1    6    6    0    0 -0.26256256754E+02  0.30623255554E+02 -0.52284916235E+02  0.66037014357E+02  0.00000000000E+00 0. -1.
        -12    1    6    6    0    0  0.56733950357E+02  0.78689514261E+02 -0.18466953028E+03  0.20859917591E+03  0.00000000000E+00 0.  1.
</event>
<event>
12    1  0.8453150E-002  0.1789834E+03  0.7818608E-02  0.1168949E+00
         21   -1    0    0  503  502  0.00000000000E+00  0.00000000000E+00  0.40222592087E+03  0.40222592087E+03  0.00000000000E+00 0. -1.
         21   -1    0    0  501  503 -0.00000000000E+00 -0.00000000000E+00 -0.82582501044E+02  0.82582501044E+02  0.00000000000E+00 0. -1.
          6    2    1    2  501    0 -0.35271552648E+02 -0.37019042273E+02  0.11218162557E+03  0.21123394683E+03  0.17152425852E+03 0.  0.
         24    2    3    3    0    0 -0.45475182225E+02  0.70073792538E+01  0.13256651511E+03  0.16143360978E+03  0.79811239037E+02 0.  0.
         -6    2    1    2    0  502  0.35271552648E+02  0.37019042273E+02  0.20746179426E+03  0.27357447508E+03  0.17084526748E+03 0.  0.
        -24    2    5    5    0    0  0.83001596542E+02  0.52593111154E+02  0.13872387771E+03  0.18832366932E+03  0.81032029527E+02 0.  0.
          5    1    3    3  501    0  0.10203629577E+02 -0.44026421527E+02 -0.20384889540E+02  0.49800337053E+02  0.47000000000E+01 0. -1.
        -13    1    4    4    0    0 -0.11650261882E+02  0.19158472799E+02  0.12189694992E+03  0.12394209165E+03  0.00000000000E+00 0.  1.
         14    1    4    4    0    0 -0.33824920343E+02 -0.12151093545E+02  0.10669565185E+02  0.37491518131E+02  0.00000000000E+00 0. -1.
         -5    1    5    5    0  502 -0.47730043895E+02 -0.15574068881E+02  0.68737916551E+02  0.85250805764E+02  0.47000000000E+01 0.  1.
         13    1    6    6    0    0  0.84017813841E+01  0.28100448606E+02  0.92883434309E+02  0.97404093914E+02  0.00000000000E+00 0. -1.
        -14    1    6    6    0    0  0.74599815158E+02  0.24492662548E+02  0.45840443399E+02  0.90919575402E+02  0.00000000000E+00 0.  1.
</event>
<event>
12    1  0.8453150E-002  0.1788215E+03  0.7818608E-02  0.1169270E+00
         21   -1    0    0  501  502  0.00000000000E+00  0.00000000000E+00  0.36315234562E+03  0.36315234562E+03  0.00000000000E+00 0.  1.
         21   -1    0    0  502  503 -0.00000000000E+00 -0.00000000000E+00 -0.11860292971E+03  0.11860292971E+03  0.00000000000E+00 0.  1.
         -6    2    1    2    0  503 -0.41583670440E+02 -0.22883551312E+02 -0.92544667618E+00  0.17882391024E+03  0.17240729640E+03 0.  0.
        -24    2    3    3    0    0 -0.79533802962E+02 -0.56613872801E+02 -0.60352454436E+01  0.12757796220E+03  0.81908215984E+02 0.  0.
          6    2    1    2  501    0  0.41583670440E+02  0.22883551312E+02  0.24547486258E+03  0.30293136510E+03  0.17104574018E+03 0.  0.
         24    2    5    5    0    0  0.75464136832E+01 -0.31106043447E+02  0.55896282881E+02  0.10284253715E+03  0.80172680563E+02 0.  0.
          5    1    5    5  501    0  0.34037256757E+02  0.53989594759E+02  0.18957857970E+03  0.20008882795E+03  0.47000000000E+01 0. -1.
        -13    1    6    6    0    0  0.25285318978E+02 -0.40794358857E+02  0.64897335105E+02  0.80716734164E+02  0.00000000000E+00 0.  1.
         14    1    6    6    0    0 -0.17738905295E+02  0.96883154103E+01 -0.90010522236E+01  0.22125802984E+02  0.00000000000E+00 0. -1.
         -5    1    3    3    0  503  0.37950132522E+02  0.33730321489E+02  0.51097987675E+01  0.51245948031E+02  0.47000000000E+01 0.  1.
         11    1    4    4    0    0 -0.32158114234E+01 -0.48621332941E+02  0.85410361721E+01  0.49470443287E+02  0.00000000000E+00 0. -1.
        -12    1    4    4    0    0 -0.76317991538E+02 -0.79925398603E+01 -0.14576281616E+02  0.78107518918E+02  0.00000000000E+00 0.  1.
</event>
<event>
12    1  0.8453150E-002  0.1746618E+03  0.7818608E-02  0.1173154E+00
         21   -1    0    0  503  502  0.00000000000E+00  0.00000000000E+00  0.55075088865E+02  0.55075088865E+02  0.00000000000E+00 0. -1.
         21   -1    0    0  501  503 -0.00000000000E+00 -0.00000000000E+00 -0.55955960411E+03  0.55955960411E+03  0.00000000000E+00 0. -1.
          6    2    1    2  501    0 -0.30248699617E+02 -0.43399253705E+01 -0.28606817871E+03  0.33517420908E+03  0.17196781321E+03 0.  0.
         24    2    3    3    0    0  0.38821556565E+01 -0.55359090429E+02 -0.23770496007E+03  0.25688652548E+03  0.80045855043E+02 0.  0.
         -6    2    1    2    0  502  0.30248699617E+02  0.43399253705E+01 -0.21841633653E+03  0.27946048390E+03  0.17163521554E+03 0.  0.
        -24    2    5    5    0    0 -0.38946514797E+02 -0.33725356812E+02 -0.13216170419E+03  0.16241820518E+03  0.79112114209E+02 0.  0.
          5    1    3    3  501    0 -0.34130855273E+02  0.51019165059E+02 -0.48363218649E+02  0.78287683597E+02  0.47000000000E+01 0. -1.
        -13    1    4    4    0    0 -0.12182696637E+02 -0.83911258263E+01 -0.18067296097E+03  0.18127754388E+03  0.00000000000E+00 0.  1.
         14    1    4    4    0    0  0.16064852293E+02 -0.46967964603E+02 -0.57031999097E+02  0.75608981603E+02  0.00000000000E+00 0. -1.
         -5    1    5    5    0  502  0.69195214414E+02  0.38065282182E+02 -0.86254632348E+02  0.11704227872E+03  0.47000000000E+01 0.  1.
         13    1    6    6    0    0  0.22440565442E+01 -0.26672303264E+02 -0.11356572155E+03  0.11667742139E+03  0.00000000000E+00 0. -1.
        -14    1    6    6    0    0 -0.41190571341E+02 -0.70530535471E+01 -0.18595982637E+02  0.45740783793E+02  0.00000000000E+00 0.  1.
</event>
<event>
12    1  0.8453150E-002  0.2193809E+03  0.7818608E-02  0.1134688E+00
         21   -1    0    0  501  502  0.00000000000E+00  0.00000000000E+00  0.13547380215E+03  0.13547380215E+03  0.00000000000E+00 0.  1.
         21   -1    0    0  502  503 -0.00000000000E+00 -0.00000000000E+00 -0.35994191401E+03  0.35994191401E+03  0.00000000000E+00 0.  1.
         -6    2    1    2    0  503  0.12759918399E+03  0.40038483068E+02 -0.75701961275E+02  0.23035091258E+03  0.17159872991E+03 0.  0.
        -24    2    3    3    0    0  0.79705217563E+02  0.34741488313E+02 -0.11722297621E+03  0.16657023483E+03  0.80277794334E+02 0.  0.
          6    2    1    2  501    0 -0.12759918399E+03 -0.40038483068E+02 -0.14876615059E+03  0.26506480358E+03  0.17390615473E+03 0.  0.
         24    2    5    5    0    0 -0.37601384823E+02 -0.33556422710E+02 -0.34879439747E+01  0.93981583248E+02  0.79249445367E+02 0.  0.
          5    1    5    5  501    0 -0.89997799162E+02 -0.64820603582E+01 -0.14527820662E+03  0.17108322033E+03  0.47000000000E+01 0. -1.
        -13    1    6    6    0    0 -0.54231427340E+02 -0.10985338706E+02 -0.22896629252E+02  0.59883061119E+02  0.00000000000E+00 0.  1.
         14    1    6    6    0    0  0.16630042517E+02 -0.22571084004E+02  0.19408685277E+02  0.34098522129E+02  0.00000000000E+00 0. -1.
         -5    1    3    3    0  503  0.47893966422E+02  0.52969947548E+01  0.41521014936E+02  0.63780677751E+02  0.47000000000E+01 0.  1.
         13    1    4    4    0    0 -0.17459581726E+01 -0.20025238782E+02 -0.22393160049E+02  0.30091729349E+02  0.00000000000E+00 0. -1.
        -14    1    4    4    0    0  0.81451175736E+02  0.54766727096E+02 -0.94829816161E+02  0.13647850548E+03  0.00000000000E+00 0.  1.
</event>
<event>
12    1  0.8453150E-002  0.1855026E+03  0.7818608E-02  0.1163437E+00
         21   -1    0    0  501  502  0.00000000000E+00  0.00000000000E+00  0.57822065397E+02  0.57822065397E+02  0.00000000000E+00 0.  1.
         21   -1    0    0  502  503 -0.00000000000E+00 -0.00000000000E+00 -0.14875418626E+04  0.14875418626E+04  0.00000000000E+00 0. -1.
         -6    2    1    2    0  503  0.93370656348E+01  0.62063420421E+02 -0.13199873688E+04  0.13329583099E+04  0.17456274891E+03 0.  0.
        -24    2    3    3    0    0  0.86328783631E+01 -0.21486909781E+02 -0.29629708106E+03  0.30585313092E+03  0.72235473076E+02 0.  0.
          6    2    1    2  501    0 -0.93370656348E+01 -0.62063420421E+02 -0.10973242846E+03  0.21240561811E+03  0.17069238940E+03 0.  0.
         24    2    5    5    0    0 -0.33627190111E+02 -0.10164435312E+03 -0.69109810230E+02  0.15052712837E+03  0.80124204024E+02 0.  0.
          5    1    5    5  501    0  0.24290124476E+02  0.39580932698E+02 -0.40622618234E+02  0.61878489740E+02  0.47000000000E+01 0. -1.
        -11    1    6    6    0    0 -0.23614195724E+02 -0.72321100656E+02 -0.14307944728E+01  0.76092174450E+02  0.00000000000E+00 0.  1.
         12    1    6    6    0    0 -0.10012994387E+02 -0.29323252464E+02 -0.67679015757E+02  0.74434953923E+02  0.00000000000E+00 0. -1.
         -5    1    3    3    0  503  0.70418727161E+00  0.83550330203E+02 -0.10236902877E+04  0.10271051790E+04  0.47000000000E+01 0.  1.
         11    1    4    4    0    0  0.35815585809E+02 -0.24417767319E+02 -0.23151515523E+03  0.23553821484E+03  0.00000000000E+00 0. -1.
        -12    1    4    4    0    0 -0.27182707446E+02  0.29308575378E+01 -0.64781925829E+02  0.70314916086E+02  0.00000000000E+00 0.  1.
</event>
<event>
12    1  0.8453150E-002  0.1960301E+03  0.7818608E-02  0.1153185E+00
         21   -1    0    0  503  502  0.00000000000E+00  0.00000000000E+00  0.12661463473E+04  0.12661463473E+04  0.00000000000E+00 0. -1.
         21   -1    0    0  501  503 -0.00000000000E+00 -0.00000000000E+00 -0.34082760886E+02  0.34082760886E+02  0.00000000000E+00 0. -1.
          6    2    1    2  501    0 -0.52176151473E+02  0.77802058666E+02  0.39947801379E+03  0.44487741046E+03  0.17192357521E+03 0.  0.
         24    2    3    3    0    0 -0.71541004238E+02  0.39390996394E+02  0.13744136300E+03  0.17929182427E+03  0.81152104743E+02 0.  0.
         -6    2    1    2    0  502  0.52176151473E+02 -0.77802058666E+02  0.83258557265E+03  0.85535169776E+03  0.17219837386E+03 0.  0.
        -24    2    5    5    0    0  0.94785731672E+02 -0.65091645260E+02  0.72324600315E+03  0.73722311361E+03  0.84804958370E+02 0.  0.
          5    1    3    3  501    0  0.19364852765E+02  0.38411062273E+02  0.26203665080E+03  0.26558558618E+03  0.47000000000E+01 0. -1.
        -13    1    4    4    0    0 -0.11916906269E+02 -0.76388200873E+01  0.86958992852E+02  0.88103522434E+02  0.00000000000E+00 0.  1.
         14    1    4    4    0    0 -0.59624097969E+02  0.47029816481E+02  0.50482370146E+02  0.91188301840E+02  0.00000000000E+00 0. -1.
         -5    1    5    5    0  502 -0.42609580199E+02 -0.12710413406E+02  0.10933956950E+03  0.11812858415E+03  0.47000000000E+01 0.  1.
         13    1    6    6    0    0 -0.38867703178E+01 -0.40924939139E+02  0.19213459225E+03  0.19648322872E+03  0.00000000000E+00 0. -1.
        -14    1    6    6    0    0  0.98672501990E+02 -0.24166706121E+02  0.53111141090E+03  0.54073988490E+03  0.00000000000E+00 0.  1.
</event>
<event>
12    1  0.8453150E-002  0.3113527E+03  0.7818608E-02  0.1079959E+00
         21   -1    0    0  501  502  0.00000000000E+00  0.00000000000E+00  0.21064319684E+03  0.21064319684E+03  0.00000000000E+00 0. -1.
         21   -1    0    0  502  503 -0.00000000000E+00 -0.00000000000E+00 -0.86728709826E+03  0.86728709826E+03  0.00000000000E+00 0.  1.
         -6    2    1    2    0  503  0.25608708327E+03  0.40977249750E+02 -0.69961936662E+03  0.76577266276E+03  0.17228111815E+03 0.  0.
        -24    2    3    3    0    0  0.13530413162E+03 -0.32469445773E+02 -0.26980004449E+03  0.31327992452E+03  0.77400091436E+02 0.  0.
          6    2    1    2  501    0 -0.25608708327E+03 -0.40977249750E+02  0.42975465201E+02  0.31215763234E+03  0.16833231301E+03 0.  0.
         24    2    5    5    0    0 -0.19486516203E+03 -0.56904584017E+02 -0.25597797197E+02  0.21874357594E+03  0.77349477943E+02 0.  0.
          5    1    5    5  501    0 -0.61221921244E+02  0.15927334267E+02  0.68573262398E+02  0.93414056402E+02  0.47000000000E+01 0. -1.
        -13    1    6    6    0    0 -0.51977870944E+02 -0.51919552996E+02 -0.17602765086E+02  0.75545988575E+02  0.00000000000E+00 0.  1.
         14    1    6    6    0    0 -0.14288729109E+03 -0.49850310205E+01 -0.79950321110E+01  0.14319758736E+03  0.00000000000E+00 0. -1.
         -5    1    3    3    0  503  0.12078295165E+03  0.73446695523E+02 -0.42981932213E+03  0.45249273825E+03  0.47000000000E+01 0.  1.
         11    1    4    4    0    0  0.23085685131E+02 -0.30051006017E+02 -0.12162071795E+03  0.12738764012E+03  0.00000000000E+00 0. -1.
        -12    1    4    4    0    0  0.11221844649E+03 -0.24184397558E+01 -0.14817932654E+03  0.18589228439E+03  0.00000000000E+00 0.  1.
</event>
<event>
12    1  0.8453150E-002  0.1963682E+03  0.7818608E-02  0.1153003E+00
         21   -1    0    0  501  502  0.00000000000E+00  0.00000000000E+00  0.12652214036E+04  0.12652214036E+04  0.00000000000E+00 0.  1.
         21   -1    0    0  502  503 -0.00000000000E+00 -0.00000000000E+00 -0.35794951304E+02  0.35794951304E+02  0.00000000000E+00 0.  1.
         -6    2    1    2    0  503  0.19284645483E+02  0.95680389859E+02  0.36024388898E+03  0.40992781841E+03  0.16952440001E+03 0.  0.
        -24    2    3    3    0    0 -0.40986964511E+02  0.35331572404E+02  0.11669801338E+03  0.15183610940E+03  0.80669241474E+02 0.  0.
          6    2    1    2  501    0 -0.19284645483E+02 -0.95680389859E+02  0.86918256336E+03  0.89108853654E+03  0.17039312473E+03 0.  0.
         24    2    5    5    0    0  0.24231374543E+02 -0.10548302687E+03  0.45410600541E+03  0.47359557295E+03  0.79791441253E+02 0.  0.
          5    1    5    5  501    0 -0.43516020026E+02  0.98026370132E+01  0.41507655794E+03  0.41749296359E+03  0.47000000000E+01 0. -1.
        -11    1    6    6    0    0 -0.23512837722E+02 -0.72681360694E+02  0.26917673732E+03  0.27980627163E+03  0.00000000000E+00 0.  1.
         12    1    6    6    0    0  0.47744212265E+02 -0.32801666179E+02  0.18492926809E+03  0.19378930132E+03  0.00000000000E+00 0. -1.
         -5    1    3    3    0  503  0.60271609994E+02  0.60348817455E+02  0.24354587560E+03  0.25809170901E+03  0.47000000000E+01 0.  1.
         13    1    4    4    0    0 -0.12515997358E+02 -0.39648698150E+01  0.99484632102E+02  0.10034720926E+03  0.00000000000E+00 0. -1.
        -14    1    4    4    0    0 -0.28470967152E+02  0.39296442219E+02  0.17213381283E+02  0.51488900132E+02  0.00000000000E+00 0.  1.
</event>
<event>
12    1  0.8453150E-002  0.1968513E+03  0.7818608E-02  0.1152778E+00
         21   -1    0    0  501  502  0.00000000000E+00  0.00000000000E+00  0.10957573361E+04  0.10957573361E+04  0.00000000000E+00 0. -1.
         21   -1    0    0  502  503 -0.00000000000E+00 -0.00000000000E+00 -0.43316624392E+02  0.43316624392E+02  0.00000000000E+00 0. -1.
         -6    2    1    2    0  503  0.66091484835E+00  0.95208966287E+02  0.27949752508E+03  0.34186151103E+03  0.17229405714E+03 0.  0.
        -24    2    3    3    0    0  0.43422435382E+02  0.69208513522E+02  0.89985628109E+02  0.14579667411E+03  0.80522858103E+02 0.  0.
          6    2    1    2  501    0 -0.66091484835E+00 -0.95208966287E+02  0.77294318663E+03  0.79721244947E+03  0.17041518640E+03 0.  0.
         24    2    5    5    0    0  0.35392613253E+02 -0.63217351953E+01  0.23091642393E+03  0.24674365088E+03  0.79167120683E+02 0.  0.
          5    1    5    5  501    0 -0.36053528101E+02 -0.88887231092E+02  0.54202676270E+03  0.55046879859E+03  0.47000000000E+01 0. -1.
        -13    1    6    6    0    0  0.76000615609E+01 -0.74107499475E+01 -0.31169812543E+01  0.11063260037E+02  0.00000000000E+00 0.  1.
         14    1    6    6    0    0  0.27792551692E+02  0.10890147522E+01  0.23403340519E+03  0.23568039084E+03  0.00000000000E+00 0. -1.
         -5    1    3    3    0  503 -0.42761520534E+02  0.26000452765E+02  0.18951189697E+03  0.19606483692E+03  0.47000000000E+01 0.  1.
         13    1    4    4    0    0 -0.12130767437E+02  0.56116245769E+02  0.40548462849E+02  0.70287740020E+02  0.00000000000E+00 0. -1.
        -14    1    4    4    0    0  0.55553202819E+02  0.13092267753E+02  0.49437165260E+02  0.75508934090E+02  0.00000000000E+00 0.  1.
</event>
<event>
12    1  0.8453150E-002  0.2054677E+03  0.7818608E-02  0.1146339E+00
         21   -1    0    0  503  502  0.00000000000E+00  0.00000000000E+00  0.24165852257E+03  0.24165852257E+03  0.00000000000E+00 0. -1.
         21   -1    0    0  501  503 -0.00000000000E+00 -0.00000000000E+00 -0.22835874283E+03  0.22835874283E+03  0.00000000000E+00 0. -1.
          6    2    1    2  501    0 -0.36957909009E+02 -0.97711942592E+02  0.12531114542E+03  0.23600120685E+03  0.17052910516E+03 0.  0.
         24    2    3    3    0    0  0.32894425703E+01 -0.10356280738E+03  0.34793191171E+02  0.13665498413E+03  0.82024039356E+02 0.  0.
         -6    2    1    2    0  502  0.36957909009E+02  0.97711942592E+02 -0.11201136568E+03  0.23401605854E+03  0.17692783515E+03 0.  0.
        -24    2    5    5    0    0  0.50728348793E+02  0.48350138936E+02 -0.13995299593E+03  0.17545807554E+03  0.79294349716E+02 0.  0.
          5    1    3    3  501    0 -0.40247351580E+02  0.58508647832E+01  0.90517954248E+02  0.99346222722E+02  0.47000000000E+01 0. -1.
        -11    1    4    4    0    0 -0.90028191214E+01 -0.22804776800E+02 -0.25310324435E+02  0.35238063512E+02  0.00000000000E+00 0.  1.
         12    1    4    4    0    0  0.12292261692E+02 -0.80758030575E+02  0.60103515606E+02  0.10141692062E+03  0.00000000000E+00 0. -1.
         -5    1    5    5    0  502 -0.13770439784E+02  0.49361803656E+02  0.27941630248E+02  0.58557982999E+02  0.47000000000E+01 0.  1.
         11    1    6    6    0    0 -0.38895127399E+00 -0.46210048713E+01 -0.81041341657E+02  0.81173912230E+02  0.00000000000E+00 0. -1.
        -12    1    6    6    0    0  0.51117300067E+02  0.52971143808E+02 -0.58911654274E+02  0.94284163314E+02  0.00000000000E+00 0.  1.
</event>
<event>
12    1  0.8453150E-002  0.1967356E+03  0.7818608E-02  0.1152821E+00
         21   -1    0    0  503  502  0.00000000000E+00  0.00000000000E+00  0.51222036041E+03  0.51222036041E+03  0.00000000000E+00 0. -1.
         21   -1    0    0  501  503 -0.00000000000E+00 -0.00000000000E+00 -0.12554328573E+03  0.12554328573E+03  0.00000000000E+00 0. -1.
          6    2    1    2  501    0 -0.48324354158E+02  0.84227478736E+02 -0.85169746600E+01  0.19691991617E+03  0.17110056442E+03 0.  0.
         24    2    3    3    0    0 -0.68078700596E+02  0.13040894408E+02  0.15178565367E+02  0.11919390631E+03  0.95770684722E+02 0.  0.
         -6    2    1    2    0  502  0.48324354158E+02 -0.84227478736E+02  0.39519404933E+03  0.44084372998E+03  0.16951503252E+03 0.  0.
        -24    2    5    5    0    0  0.80216010081E+02 -0.66110416260E+02  0.18774911052E+03  0.23012876063E+03  0.83092253271E+02 0.  0.
          5    1    3    3  501    0  0.19754346437E+02  0.71186584328E+02 -0.23695540027E+02  0.77726009859E+02  0.47000000000E+01 0. -1.
        -13    1    4    4    0    0 -0.16804658946E+02  0.21822585252E+02  0.49657393375E+02  0.56784491776E+02  0.00000000000E+00 0.  1.
         14    1    4    4    0    0 -0.51274041650E+02 -0.87816908442E+01 -0.34478828009E+02  0.62409414531E+02  0.00000000000E+00 0. -1.
         -5    1    5    5    0  502 -0.31891655922E+02 -0.18117062476E+02  0.20744493881E+03  0.21071496935E+03  0.47000000000E+01 0.  1.
         11    1    6    6    0    0  0.57322690440E+02 -0.10239070425E+02  0.14469123478E+03  0.15596885209E+03  0.00000000000E+00 0. -1.
        -12    1    6    6    0    0  0.22893319640E+02 -0.55871345835E+02  0.43057875746E+02  0.74159908531E+02  0.00000000000E+00 0.  1.
</event>
<event>
12    1  0.8453150E-002  0.1985576E+03  0.7818608E-02  0.1151096E+00
         21   -1    0    0  503  502  0.00000000000E+00  0.00000000000E+00  0.29022321317E+03  0.29022321317E+03  0.00000000000E+00 0. -1.
         21   -1    0    0  501  503 -0.00000000000E+00 -0.00000000000E+00 -0.18396372193E+03  0.18396372193E+03  0.00000000000E+00 0. -1.
          6    2    1    2  501    0  0.96925764920E+02 -0.19139473661E+02 -0.68733627204E+02  0.20952168562E+03  0.17150539898E+03 0.  0.
         24    2    3    3    0    0  0.66443569697E+02 -0.51290075243E+02 -0.10297487302E+03  0.15333113194E+03  0.76558420687E+02 0.  0.
         -6    2    1    2    0  502 -0.96925764920E+02  0.19139473661E+02  0.17499311844E+03  0.26466524948E+03  0.17223292200E+03 0.  0.
        -24    2    5    5    0    0 -0.12117176995E+03  0.21530394192E+02  0.81300070627E+02  0.16774227764E+03  0.79885008078E+02 0.  0.
          5    1    3    3  501    0  0.30482195222E+02  0.32150601582E+02  0.34241245813E+02  0.56190553676E+02  0.47000000000E+01 0. -1.
        -11    1    4    4    0    0  0.54936773077E+02 -0.82172615992E+01 -0.19818965818E+02  0.58977655349E+02  0.00000000000E+00 0.  1.
         12    1    4    4    0    0  0.11506796620E+02 -0.43072813644E+02 -0.83155907199E+02  0.94353476596E+02  0.00000000000E+00 0. -1.
         -5    1    5    5    0  502  0.24246005034E+02 -0.23909205312E+01  0.93693047815E+02  0.96922971838E+02  0.47000000000E+01 0.  1.
         11    1    6    6    0    0 -0.65882071759E+01 -0.18444148369E+02 -0.32273522176E+01  0.19849606676E+02  0.00000000000E+00 0. -1.
        -12    1    6    6    0    0 -0.11458356278E+03  0.39974542561E+02  0.84527422845E+02  0.14789267096E+03  0.00000000000E+00 0.  1.
</event>
<event>
12    1  0.8453150E-002  0.2584382E+03  0.7818608E-02  0.1108648E+00
         21   -1    0    0  503  502  0.00000000000E+00  0.00000000000E+00  0.29189824820E+02  0.29189824820E+02  0.00000000000E+00 0. -1.
         21   -1    0    0  501  503 -0.00000000000E+00 -0.00000000000E+00 -0.22625033625E+04  0.22625033625E+04  0.00000000000E+00 0.  1.
          6    2    1    2  501    0  0.16459193908E+03  0.93898578816E+02 -0.11878815759E+04  0.12156697532E+04  0.17573520124E+03 0.  0.
         24    2    3    3    0    0  0.11534828739E+03  0.32652833584E+02 -0.43596326065E+03  0.45964116819E+03  0.82671663279E+02 0.  0.
         -6    2    1    2    0  502 -0.16459193908E+03 -0.93898578816E+02 -0.10454319618E+04  0.10760234341E+04  0.17026742074E+03 0.  0.
        -24    2    5    5    0    0 -0.67782724226E+02 -0.36410964766E+02 -0.25287330376E+03  0.27549350574E+03  0.77662783167E+02 0.  0.
          5    1    3    3  501    0  0.49243651691E+02  0.61245745231E+02 -0.75191831530E+03  0.75602858506E+03  0.47000000000E+01 0. -1.
        -11    1    4    4    0    0  0.43681711021E+02  0.11393792919E+02 -0.30920014148E+03  0.31247821986E+03  0.00000000000E+00 0.  1.
         12    1    4    4    0    0  0.71666576367E+02  0.21259040665E+02 -0.12676311917E+03  0.14716294832E+03  0.00000000000E+00 0. -1.
         -5    1    5    5    0  502 -0.96809214853E+02 -0.57487614050E+02 -0.79255865801E+03  0.80052992839E+03  0.47000000000E+01 0.  1.
         11    1    6    6    0    0 -0.39676408514E+02 -0.60366199517E+02 -0.17418456147E+03  0.18856976664E+03  0.00000000000E+00 0. -1.
        -12    1    6    6    0    0 -0.28106315712E+02  0.23955234751E+02 -0.78688742291E+02  0.86923739095E+02  0.00000000000E+00 0.  1.
</event>
<event>
12    1  0.8453150E-002  0.3502485E+03  0.7818608E-02  0.1062871E+00
         21   -1    0    0  503  502  0.00000000000E+00  0.00000000000E+00  0.12505325735E+04  0.12505325735E+04  0.00000000000E+00 0. -1.
         21   -1    0    0  501  503 -0.00000000000E+00 -0.00000000000E+00 -0.10430491443E+03  0.10430491443E+03  0.00000000000E+00 0.  1.
          6    2    1    2  501    0 -0.30090885657E+03  0.14704700792E+01  0.39276537941E+03  0.52394675666E+03  0.17235793661E+03 0.  0.
         24    2    3    3    0    0 -0.22673276988E+03  0.19495455217E+02  0.18914328816E+03  0.30643575011E+03  0.79623261542E+02 0.  0.
         -6    2    1    2    0  502  0.30090885657E+03 -0.14704700792E+01  0.75346227964E+03  0.83089073126E+03  0.17923643101E+03 0.  0.
        -24    2    5    5    0    0  0.20192450710E+03 -0.70396840349E+02  0.47328624306E+03  0.52581787531E+03  0.82190926700E+02 0.  0.
          5    1    3    3  501    0 -0.74176086685E+02 -0.18024985138E+02  0.20362209125E+03  0.21751100655E+03  0.47000000000E+01 0. -1.
        -11    1    4    4    0    0 -0.18282867499E+02  0.13176006384E+02 -0.31645178318E+01  0.22757077170E+02  0.00000000000E+00 0.  1.
         12    1    4    4    0    0 -0.20844990238E+03  0.63194488331E+01  0.19230780599E+03  0.28367867294E+03  0.00000000000E+00 0. -1.
         -5    1    5    5    0  502  0.98984349469E+02  0.68926370269E+02  0.28017603658E+03  0.30507285594E+03  0.47000000000E+01 0.  1.
         13    1    6    6    0    0  0.94491542754E+02 -0.19165283893E+01  0.26836846843E+03  0.28452409314E+03  0.00000000000E+00 0. -1.
        -14    1    6    6    0    0  0.10743296434E+03 -0.68480311959E+02  0.20491777463E+03  0.24129378217E+03  0.00000000000E+00 0.  1.
</event>
<event>
12    1  0.8453150E-002  0.1917971E+03  0.7818608E-02  0.1157241E+00
         21   -1    0    0  501  502  0.00000000000E+00  0.00000000000E+00  0.18912701183E+02  0.18912701183E+02  0.00000000000E+00 0. -1.
         21   -1    0    0  502  503 -0.00000000000E+00 -0.00000000000E+00 -0.23177814021E+04  0.23177814021E+04  0.00000000000E+00 0. -1.
         -6    2    1    2    0  503  0.60196631394E+01  0.83381712051E+02 -0.66556545844E+03  0.69216815042E+03  0.17067695434E+03 0.  0.
        -24    2    3    3    0    0  0.44526695880E+02  0.64288330636E+01 -0.22112288086E+03  0.23944767163E+03  0.80099328759E+02 0.  0.
          6    2    1    2  501    0 -0.60196631394E+01 -0.83381712051E+02 -0.16333032424E+04  0.16445259528E+04  0.17261918054E+03 0.  0.
         24    2    5    5    0    0  0.32924524337E+02 -0.89133348113E+02 -0.63936429184E+03  0.64979661347E+03  0.66484307493E+02 0.  0.
          5    1    5    5  501    0 -0.38944187476E+02  0.57516360621E+01 -0.99393895059E+03  0.99472933935E+03  0.47000000000E+01 0. -1.
        -13    1    6    6    0    0 -0.17927999936E+02 -0.31899212310E+02 -0.27897504475E+03  0.28136461846E+03  0.00000000000E+00 0.  1.
         14    1    6    6    0    0  0.50852524273E+02 -0.57234135803E+02 -0.36038924709E+03  0.36843199501E+03  0.00000000000E+00 0. -1.
         -5    1    3    3    0  503 -0.38507032741E+02  0.76952878988E+02 -0.44444257758E+03  0.45272047880E+03  0.47000000000E+01 0.  1.
         11    1    4    4    0    0  0.21192991982E+02  0.12330414114E+02 -0.92401818833E+01  0.26202346891E+02  0.00000000000E+00 0. -1.
        -12    1    4    4    0    0  0.23333703898E+02 -0.59015810507E+01 -0.21188269897E+03  0.21324532473E+03  0.00000000000E+00 0.  1.
</event>
<event>
12    1  0.8453150E-002  0.1997657E+03  0.7818608E-02  0.1150169E+00
         21   -1    0    0  503  502  0.00000000000E+00  0.00000000000E+00  0.53458900441E+02  0.53458900441E+02  0.00000000000E+00 0. -1.
         21   -1    0    0  501  503 -0.00000000000E+00 -0.00000000000E+00 -0.12405074335E+04  0.12405074335E+04  0.00000000000E+00 0. -1.
          6    2    1    2  501    0  0.91053312151E+02 -0.41801190650E+02 -0.10044763815E+04  0.10241479975E+04  0.17282440359E+03 0.  0.
         24    2    3    3    0    0  0.23978129234E+01 -0.10170887514E+02 -0.22678829199E+03  0.24076997364E+03  0.80175148013E+02 0.  0.
         -6    2    1    2    0  502 -0.91053312151E+02  0.41801190650E+02 -0.18257215153E+03  0.26981833647E+03  0.17155552742E+03 0.  0.
        -24    2    5    5    0    0 -0.61705742550E+02  0.92651733568E+02 -0.10803455059E+03  0.17481832852E+03  0.80610430278E+02 0.  0.
          5    1    3    3  501    0  0.88655499228E+02 -0.31630303136E+02 -0.77768808955E+03  0.78337802385E+03  0.47000000000E+01 0. -1.
        -13    1    4    4    0    0  0.41125559262E+02 -0.23955075813E+01 -0.10825908949E+03  0.11583212222E+03  0.00000000000E+00 0.  1.
         14    1    4    4    0    0 -0.38727746338E+02 -0.77753799328E+01 -0.11852920250E+03  0.12493785141E+03  0.00000000000E+00 0. -1.
         -5    1    5    5    0  502 -0.29347569601E+02 -0.50850542918E+02 -0.74537600940E+02  0.95000007949E+02  0.47000000000E+01 0.  1.
         13    1    6    6    0    0 -0.36260603457E+02  0.55718817767E+02 -0.11152239966E+03  0.12983321471E+03  0.00000000000E+00 0. -1.
        -14    1    6    6    0    0 -0.25445139093E+02  0.36932915800E+02  0.34878490767E+01  0.44985113806E+02  0.00000000000E+00 0.  1.
</event>
<event>
12    1  0.8453150E-002  0.1805306E+03  0.7818608E-02  0.1167502E+00
         21   -1    0    0  501  502  0.00000000000E+00  0.00000000000E+00  0.20464773997E+03  0.20464773997E+03  0.00000000000E+00 0.  1.
         21   -1    0    0  502  503 -0.00000000000E+00 -0.00000000000E+00 -0.16092097601E+03  0.16092097601E+03  0.00000000000E+00 0.  1.
         -6    2    1    2    0  503 -0.34843154413E+02  0.38121592603E+02 -0.67935724104E+00  0.17965687271E+03  0.17207216264E+03 0.  0.
        -24    2    3    3    0    0 -0.29895216114E+02  0.60893522600E+02  0.55566868271E+02  0.11859321107E+03  0.79843145107E+02 0.  0.
          6    2    1    2  501    0  0.34843154413E+02 -0.38121592603E+02  0.44406121200E+02  0.18591184327E+03  0.17298557349E+03 0.  0.
         24    2    5    5    0    0  0.46053589781E+02  0.20973884964E+02 -0.18679157528E+02  0.98620424896E+02  0.82560525063E+02 0.  0.
          5    1    5    5  501    0 -0.11210435368E+02 -0.59095477566E+02  0.63085278728E+02  0.87291418376E+02  0.47000000000E+01 0. -1.
        -11    1    6    6    0    0  0.39472287869E+02 -0.23581957882E+02  0.74058623750E+01  0.46572707080E+02  0.00000000000E+00 0.  1.
         12    1    6    6    0    0  0.65813019112E+01  0.44555842846E+02 -0.26085019903E+02  0.52047717817E+02  0.00000000000E+00 0. -1.
         -5    1    3    3    0  503 -0.49479382992E+01 -0.22771929998E+02 -0.56246225512E+02  0.61063661646E+02  0.47000000000E+01 0.  1.
         11    1    4    4    0    0  0.70605380028E+01  0.19253334924E+02  0.59347480178E+02  0.62790648237E+02  0.00000000000E+00 0. -1.
        -12    1    4    4    0    0 -0.36955754116E+02  0.41640187676E+02 -0.37806119062E+01  0.55802562830E+02  0.00000000000E+00 0.  1.
</event>
<event>
12    1  0.8453150E-002  0.2538115E+03  0.7818608E-02  0.1111086E+00
         21   -1    0    0  501  502  0.00000000000E+00  0.00000000000E+00  0.36430173695E+03  0.36430173695E+03  0.00000000000E+00 0. -1.
         21   -1    0    0  502  503 -0.00000000000E+00 -0.00000000000E+00 -0.26071155809E+03  0.26071155809E+03  0.00000000000E+00 0.  1.
         -6    2    1    2    0  503  0.24240377092E+02  0.18345481833E+03 -0.12632487154E+03  0.28254984089E+03  0.17214288589E+03 0.  0.
        -24    2    3    3    0    0 -0.32443644704E+02  0.13848553015E+03 -0.39352065263E+02  0.16931700891E+03  0.82998989884E+02 0.  0.
          6    2    1    2  501    0 -0.24240377092E+02 -0.18345481833E+03  0.22991505040E+03  0.34246345415E+03  0.17371534411E+03 0.  0.
         24    2    5    5    0    0  0.14724488344E+02 -0.18830260120E+02  0.82640213670E+02  0.11811668364E+03  0.80936745587E+02 0.  0.
          5    1    5    5  501    0 -0.38964865435E+02 -0.16462455821E+03  0.14727483672E+03  0.22434677051E+03  0.47000000000E+01 0. -1.
        -11    1    6    6    0    0  0.15909874421E+02 -0.48427901753E+02  0.68250246220E+02  0.85184986244E+02  0.00000000000E+00 0.  1.
         12    1    6    6    0    0 -0.11853860773E+01  0.29597641633E+02  0.14389967451E+02  0.32931697400E+02  0.00000000000E+00 0. -1.
         -5    1    3    3    0  503  0.56684021795E+02  0.44969288183E+02 -0.86972806278E+02  0.11323283198E+03  0.47000000000E+01 0.  1.
         11    1    4    4    0    0 -0.37069237542E+02  0.65306533590E+02  0.16813344414E+02  0.76952974288E+02  0.00000000000E+00 0. -1.
        -12    1    4    4    0    0  0.46255928380E+01  0.73178996560E+02 -0.56165409677E+02  0.92364034617E+02  0.00000000000E+00 0.  1.
</event>
<event>
12    1  0.8453150E-002  0.2073748E+03  0.7818608E-02  0.1143781E+00
         21   -1    0    0  501  502  0.00000000000E+00  0.00000000000E+00  0.10097819366E+03  0.10097819366E+03  0.00000000000E+00 0. -1.
         21   -1    0    0  502  503 -0.00000000000E+00 -0.00000000000E+00 -0.42797451463E+03  0.42797451463E+03  0.00000000000E+00 0. -1.
         -6    2    1    2    0  503 -0.47048993830E+02  0.10617864899E+03 -0.18654289459E+03  0.27849019323E+03  0.17108776369E+03 0.  0.
        -24    2    3    3    0    0 -0.85994858596E+02  0.41055923044E+02 -0.74717380822E+02  0.14326894732E+03  0.76567615526E+02 0.  0.
          6    2    1    2  501    0  0.47048993830E+02 -0.10617864899E+03 -0.14045342638E+03  0.25046251507E+03  0.17180452017E+03 0.  0.
         24    2    5    5    0    0  0.11505501256E+02 -0.40299408738E+02 -0.14965190493E+03  0.17489720445E+03  0.80230421739E+02 0.  0.
          5    1    5    5  501    0  0.35543492573E+02 -0.65879240253E+02  0.91984785472E+01  0.75565310614E+02  0.47000000000E+01 0. -1.
        -13    1    6    6    0    0  0.17575640642E+02  0.11973751961E+02 -0.62831713968E+01  0.22175484725E+02  0.00000000000E+00 0.  1.
         14    1    6    6    0    0 -0.60701393857E+01 -0.52273160699E+02 -0.14336873353E+03  0.15272171973E+03  0.00000000000E+00 0. -1.
         -5    1    3    3    0  503  0.38945864766E+02  0.65122725947E+02 -0.11182551376E+03  0.13522124591E+03  0.47000000000E+01 0.  1.
         11    1    4    4    0    0 -0.54318018904E+02 -0.70942173308E+01 -0.84221823409E+01  0.55422993898E+02  0.00000000000E+00 0. -1.
        -12    1    4    4    0    0 -0.31676839691E+02  0.48150140375E+02 -0.66295198481E+02  0.87845953422E+02  0.00000000000E+00 0.  1.
</event>
<event>
12    1  0.8453150E-002  0.1717250E+03  0.7818608E-02  0.1176477E+00
         21   -1    0    0  503  502  0.00000000000E+00  0.00000000000E+00  0.10650240670E+04  0.10650240670E+04  0.00000000000E+00 0.  1.
         21   -1    0    0  501  503 -0.00000000000E+00 -0.00000000000E+00 -0.47072700002E+02  0.47072700002E+02  0.00000000000E+00 0.  1.
          6    2    1    2  501    0  0.16163581418E+01  0.88715886286E+01  0.14838806231E+03  0.22573915745E+03  0.16987593259E+03 0.  0.
         24    2    3    3    0    0  0.52825166718E+02  0.42002983317E+02  0.12045655835E+03  0.15849118125E+03  0.77813387268E+02 0.  0.
         -6    2    1    2    0  502 -0.16163581418E+01 -0.88715886286E+01  0.86956330472E+03  0.88635760958E+03  0.17148805629E+03 0.  0.
        -24    2    5    5    0    0 -0.22919452249E+02  0.12250130085E+02  0.21888951278E+03  0.23497567681E+03  0.81397683693E+02 0.  0.
          5    1    3    3  501    0 -0.51208808577E+02 -0.33131394689E+02  0.27931503961E+02  0.67247976203E+02  0.47000000000E+01 0. -1.
        -11    1    4    4    0    0  0.25409582967E+02  0.29827564640E+02  0.53581814192E+01  0.39547953512E+02  0.00000000000E+00 0.  1.
         12    1    4    4    0    0  0.27415583752E+02  0.12175418678E+02  0.11509837693E+03  0.11894322774E+03  0.00000000000E+00 0. -1.
         -5    1    5    5    0  502  0.21303094107E+02 -0.21121718714E+02  0.65067379194E+03  0.65138193277E+03  0.47000000000E+01 0.  1.
         11    1    6    6    0    0  0.17361918397E+02  0.35082239917E+02  0.10012633983E+03  0.10750573797E+03  0.00000000000E+00 0. -1.
        -12    1    6    6    0    0 -0.40281370646E+02 -0.22832109832E+02  0.11876317295E+03  0.12746993884E+03  0.00000000000E+00 0.  1.
</event>
<event>
12    1  0.8453150E-002  0.1825581E+03  0.7818608E-02  0.1166052E+00
         21   -1    0    0  503  502  0.00000000000E+00  0.00000000000E+00  0.14498463690E+03  0.14498463690E+03  0.00000000000E+00 0.  1.
         21   -1    0    0  501  503 -0.00000000000E+00 -0.00000000000E+00 -0.72166745548E+03  0.72166745548E+03  0.00000000000E+00 0. -1.
          6    2    1    2  501    0  0.14190335788E+02 -0.56044393934E+02 -0.64812089956E+03  0.67334102967E+03  0.17316206879E+03 0.  0.
         24    2    3    3    0    0  0.14131949281E+02  0.37995818026E+02 -0.34670450577E+03  0.35756025552E+03  0.77472110019E+02 0.  0.
         -6    2    1    2    0  502 -0.14190335788E+02  0.56044393934E+02  0.71438080982E+02  0.19331106271E+03  0.17006889143E+03 0.  0.
        -24    2    5    5    0    0  0.13939084152E+02  0.76879702412E+02 -0.55644932923E+01  0.10859470779E+03  0.75213431415E+02 0.  0.
          5    1    3    3  501    0  0.58386507321E-01 -0.94040211961E+02 -0.30141639379E+03  0.31578077415E+03  0.47000000000E+01 0. -1.
        -11    1    4    4    0    0 -0.11887427568E+02  0.11774263628E+02 -0.11444257949E+02  0.20271044822E+02  0.00000000000E+00 0.  1.
         12    1    4    4    0    0  0.26019376849E+02  0.26221554398E+02 -0.33526024782E+03  0.33728921070E+03  0.00000000000E+00 0. -1.
         -5    1    5    5    0  502 -0.28129419941E+02 -0.20835308478E+02  0.77002574274E+02  0.84716354917E+02  0.47000000000E+01 0.  1.
         11    1    6    6    0    0  0.26251706855E+02  0.67399891869E+02  0.23149194518E+02  0.75945919861E+02  0.00000000000E+00 0. -1.
        -12    1    6    6    0    0 -0.12312622703E+02  0.94798105439E+01 -0.28713687811E+02  0.32648787933E+02  0.00000000000E+00 0.  1.
</event>
<event>
12    1  0.8453150E-002  0.5568222E+03  0.7818608E-02  0.9999514E-01
         21   -1    0    0  503  502  0.00000000000E+00  0.00000000000E+00  0.71584240688E+03  0.71584240688E+03  0.00000000000E+00 0. -1.
         21   -1    0    0  501  503 -0.00000000000E+00 -0.00000000000E+00 -0.43316731712E+03  0.43316731712E+03  0.00000000000E+00 0.  1.
          6    2    1    2  501    0 -0.21183380704E+03  0.48446504436E+03  0.15822880888E+03  0.57886723561E+03  0.17455938671E+03 0.  0.
         24    2    3    3    0    0 -0.18542034759E+03  0.25281006997E+03  0.99493233322E+02  0.33838094528E+03  0.79429993534E+02 0.  0.
         -6    2    1    2    0  502  0.21183380704E+03 -0.48446504436E+03  0.12444628088E+03  0.57014248839E+03  0.17319249186E+03 0.  0.
        -24    2    5    5    0    0  0.16777194220E+03 -0.30469512590E+03  0.20200746168E+02  0.35766215278E+03  0.80793570581E+02 0.  0.
          5    1    3    3  501    0 -0.26413459452E+02  0.23165497439E+03  0.58735575562E+02  0.24048629033E+03  0.47000000000E+01 0. -1.
        -11    1    4    4    0    0 -0.13734282612E+02  0.66635979745E+02  0.37353737211E+02  0.77616274060E+02  0.00000000000E+00 0.  1.
         12    1    4    4    0    0 -0.17168606498E+03  0.18617409022E+03  0.62139496111E+02  0.26076467122E+03  0.00000000000E+00 0. -1.
         -5    1    5    5    0  502  0.44061864840E+02 -0.17976991846E+03  0.10424553471E+03  0.21248033561E+03  0.47000000000E+01 0.  1.
         13    1    6    6    0    0  0.61189631416E+02 -0.17758739506E+03 -0.13776630061E+02  0.18833812523E+03  0.00000000000E+00 0. -1.
        -14    1    6    6    0    0  0.10658231079E+03 -0.12710773084E+03  0.33977376229E+02  0.16932402755E+03  0.00000000000E+00 0.  1.
</event>
<event>
12    1  0.8453150E-002  0.1806012E+03  0.7818608E-02  0.1167473E+00
         21   -1    0    0  503  502  0.00000000000E+00  0.00000000000E+00  0.40091753917E+02  0.40091753917E+02  0.00000000000E+00 0.  1.
         21   -1    0    0  501  503 -0.00000000000E+00 -0.00000000000E+00 -0.81808434491E+03  0.81808434491E+03  0.00000000000E+00 0.  1.
          6    2    1    2  501    0  0.11363737056E+02 -0.48448712732E+02 -0.43336222151E+03  0.46909143220E+03  0.17253273443E+03 0.  0.
         24    2    3    3    0    0 -0.44218268464E+02 -0.71613708126E+02 -0.23578918534E+03  0.26249237371E+03  0.78879197988E+02 0.  0.
         -6    2    1    2    0  502 -0.11363737056E+02  0.48448712732E+02 -0.34463036949E+03  0.38908466663E+03  0.17360983252E+03 0.  0.
        -24    2    5    5    0    0 -0.55565303348E+02  0.49888131788E+02 -0.32041897523E+03  0.33844740760E+03  0.79385133342E+02 0.  0.
          5    1    3    3  501    0  0.55582005520E+02  0.23164995394E+02 -0.19757303617E+03  0.20659905849E+03  0.47000000000E+01 0. -1.
        -11    1    4    4    0    0 -0.59460650130E+02 -0.23218814873E+02 -0.14631312360E+03  0.15963148942E+03  0.00000000000E+00 0.  1.
         12    1    4    4    0    0  0.15242381666E+02 -0.48394893253E+02 -0.89476061745E+02  0.10286088429E+03  0.00000000000E+00 0. -1.
         -5    1    5    5    0  502  0.44201566292E+02 -0.14394190565E+01 -0.24211394263E+02  0.50637259030E+02  0.47000000000E+01 0.  1.
         11    1    6    6    0    0  0.62216021067E+00  0.21536166374E+02 -0.21195222353E+03  0.21304445218E+03  0.00000000000E+00 0. -1.
        -12    1    6    6    0    0 -0.56187463559E+02  0.28351965415E+02 -0.10846675169E+03  0.12540295541E+03  0.00000000000E+00 0.  1.
</event>
<event>
12    1  0.8453150E-002  0.1889501E+03  0.7818608E-02  0.1159740E+00
         21   -1    0    0  501  502  0.00000000000E+00  0.00000000000E+00  0.60095487025E+03  0.60095487025E+03  0.00000000000E+00 0. -1.
         21   -1    0    0  502  503 -0.00000000000E+00 -0.00000000000E+00 -0.19417724444E+03  0.19417724444E+03  0.00000000000E+00 0. -1.
         -6    2    1    2    0  503  0.37803129918E+02  0.67972027543E+02 -0.12861275370E+03  0.22737776557E+03  0.17061692384E+03 0.  0.
        -24    2    3    3    0    0  0.85218297148E+02  0.27072765645E+02 -0.12586660402E+03  0.16452413365E+03  0.56839209508E+02 0.  0.
          6    2    1    2  501    0 -0.37803129918E+02 -0.67972027543E+02  0.53539037951E+03  0.56775434912E+03  0.17220008512E+03 0.  0.
         24    2    5    5    0    0  0.15517742047E+02  0.95993118926E+00  0.12931807174E+03  0.15240926433E+03  0.79143530305E+02 0.  0.
          5    1    5    5  501    0 -0.53320871965E+02 -0.68931958732E+02  0.40607230777E+03  0.41534508479E+03  0.47000000000E+01 0. -1.
        -13    1    6    6    0    0 -0.24105217601E+02  0.20926559261E+02  0.30786302967E+02  0.44348380449E+02  0.00000000000E+00 0.  1.
         14    1    6    6    0    0  0.39622959647E+02 -0.19966628072E+02  0.98531768774E+02  0.10806088388E+03  0.00000000000E+00 0. -1.
         -5    1    3    3    0  503 -0.47415167230E+02  0.40899261898E+02 -0.27461496784E+01  0.62853631918E+02  0.47000000000E+01 0.  1.
         11    1    4    4    0    0 -0.64188924059E+01  0.10533330354E+02 -0.20335556428E+02  0.23784198185E+02  0.00000000000E+00 0. -1.
        -12    1    4    4    0    0  0.91637189554E+02  0.16539435291E+02 -0.10553104759E+03  0.14073993547E+03  0.00000000000E+00 0.  1.
</event>
<event>
12    1  0.8453150E-002  0.1968973E+03  0.7818608E-02  0.1152892E+00
         21   -1    0    0  503  502  0.00000000000E+00  0.00000000000E+00  0.64406662187E+03  0.64406662187E+03  0.00000000000E+00 0. -1.
         21   -1    0    0  501  503 -0.00000000000E+00 -0.00000000000E+00 -0.70289140155E+02  0.70289140155E+02  0.00000000000E+00 0.  1.
          6    2    1    2  501    0  0.82638486032E+02 -0.96956701456E+01  0.14535928989E+03  0.24285740485E+03  0.17586150955E+03 0.  0.
         24    2    3    3    0    0  0.11789181346E+03  0.41623543726E+01  0.14737726570E+03  0.20463432067E+03  0.78989504848E+02 0.  0.
         -6    2    1    2    0  502 -0.82638486032E+02  0.96956701456E+01  0.42841819183E+03  0.47149835718E+03  0.17845287428E+03 0.  0.
        -24    2    5    5    0    0 -0.51067762523E+02  0.70233750273E+02  0.25430381112E+03  0.28441688482E+03  0.93176391734E+02 0.  0.
          5    1    3    3  501    0 -0.35253327423E+02 -0.13858024518E+02 -0.20179758137E+01  0.38223084181E+02  0.47000000000E+01 0. -1.
        -11    1    4    4    0    0  0.11021332826E+03  0.27716854215E+02  0.10093351768E+03  0.15199597602E+03  0.00000000000E+00 0.  1.
         12    1    4    4    0    0  0.76784851984E+01 -0.23554499843E+02  0.46443748021E+02  0.52638344655E+02  0.00000000000E+00 0. -1.
         -5    1    5    5    0  502 -0.31570723509E+02 -0.60538080127E+02  0.17411438071E+03  0.18708147236E+03  0.47000000000E+01 0.  1.
         11    1    6    6    0    0 -0.50866247503E+02  0.83800009519E+02  0.14972732399E+03  0.17896393011E+03  0.00000000000E+00 0. -1.
        -12    1    6    6    0    0 -0.20151502016E+00 -0.13566259246E+02  0.10457648712E+03  0.10545295471E+03  0.00000000000E+00 0.  1.
</event>
<event>
12    1  0.8453150E-002  0.2560500E+03  0.7818608E-02  0.1109787E+00
         21   -1    0    0  501  502  0.00000000000E+00  0.00000000000E+00  0.17669661507E+03  0.17669661507E+03  0.00000000000E+00 0. -1.
         21   -1    0    0  502  503 -0.00000000000E+00 -0.00000000000E+00 -0.37613233020E+03  0.37613233020E+03  0.00000000000E+00 0. -1.
         -6    2    1    2    0  503 -0.17528732256E+03  0.72732847397E+02 -0.13883582191E+03  0.29126786716E+03  0.17188912838E+03 0.  0.
        -24    2    3    3    0    0 -0.96618809048E+02  0.59971001694E+02 -0.15706786599E+03  0.20937710361E+03  0.78973044030E+02 0.  0.
          6    2    1    2  501    0  0.17528732256E+03 -0.72732847397E+02 -0.60599893217E+02  0.26156107811E+03  0.16948786973E+03 0.  0.
         24    2    5    5    0    0  0.57757725160E+02 -0.98696794432E+01 -0.79716648990E+02  0.12682977329E+03  0.79357935189E+02 0.  0.
          5    1    5    5  501    0  0.11752959740E+03 -0.62863167953E+02  0.19116755773E+02  0.13473130483E+03  0.47000000000E+01 0. -1.
        -13    1    6    6    0    0 -0.39618743614E+01  0.24846242818E+02 -0.34908953789E+02  0.43031003768E+02  0.00000000000E+00 0.  1.
         14    1    6    6    0    0  0.61719599521E+02 -0.34715922261E+02 -0.44807695201E+02  0.83798769518E+02  0.00000000000E+00 0. -1.
         -5    1    3    3    0  503 -0.78668513510E+02  0.12761845702E+02  0.18232044081E+02  0.81890763551E+02  0.47000000000E+01 0.  1.
         11    1    4    4    0    0 -0.93583021384E+02  0.37947153510E+02 -0.79024411873E+02  0.12822880341E+03  0.00000000000E+00 0. -1.
        -12    1    4    4    0    0 -0.30357876642E+01  0.22023848184E+02 -0.78043454119E+02  0.81148300206E+02  0.00000000000E+00 0.  1.
</event>
<event>
12    1  0.8453150E-002  0.1919101E+03  0.7818608E-02  0.1156779E+00
         21   -1    0    0  501  502  0.00000000000E+00  0.00000000000E+00  0.24053832836E+03  0.24053832836E+03  0.00000000000E+00 0.  1.
         21   -1    0    0  502  503 -0.00000000000E+00 -0.00000000000E+00 -0.15998213208E+03  0.15998213208E+03  0.00000000000E+00 0. -1.
         -6    2    1    2    0  503 -0.84787719823E+02 -0.14314940935E+02 -0.15489899123E+01  0.19178436867E+03  0.17142044723E+03 0.  0.
        -24    2    3    3    0    0 -0.47798907346E+02 -0.65240268784E+02 -0.50067699361E+02  0.11217459269E+03  0.59458695838E+02 0.  0.
          6    2    1    2  501    0  0.84787719823E+02  0.14314940935E+02  0.82105186193E+02  0.20873609178E+03  0.17156811896E+03 0.  0.
         24    2    5    5    0    0  0.88946910287E+02  0.46582221752E+02  0.10346398508E+03  0.16953450295E+03  0.89194704156E+02 0.  0.
          5    1    5    5  501    0 -0.41591904642E+01 -0.32267280817E+02 -0.21358798888E+02  0.39201588827E+02  0.47000000000E+01 0. -1.
        -11    1    6    6    0    0 -0.16148905586E+02 -0.25122139607E+01  0.23584673095E+02  0.28693817724E+02  0.00000000000E+00 0.  1.
         12    1    6    6    0    0  0.10509581587E+03  0.49094435713E+02  0.79879311986E+02  0.14084068523E+03  0.00000000000E+00 0. -1.
         -5    1    3    3    0  503 -0.36988812477E+02  0.50925327850E+02  0.48518709449E+02  0.79609775980E+02  0.47000000000E+01 0.  1.
         11    1    4    4    0    0 -0.55222777954E+02 -0.70295830174E+02 -0.38007237742E+02  0.97137063295E+02  0.00000000000E+00 0. -1.
        -12    1    4    4    0    0  0.74238706083E+01  0.50555613893E+01 -0.12060461619E+02  0.15037529393E+02  0.00000000000E+00 0.  1.
</event>
<event>
12    1  0.8453150E-002  0.1855283E+03  0.7818608E-02  0.1167161E+00
         21   -1    0    0  503  502  0.00000000000E+00  0.00000000000E+00  0.24778337382E+03  0.24778337382E+03  0.00000000000E+00 0. -1.
         21   -1    0    0  501  503 -0.00000000000E+00 -0.00000000000E+00 -0.25281114406E+03  0.25281114406E+03  0.00000000000E+00 0. -1.
          6    2    1    2  501    0  0.49214346483E+02  0.36487795320E+02 -0.18024043067E+03  0.25866460072E+03  0.17512096307E+03 0.  0.
         24    2    3    3    0    0  0.25337794179E+02  0.75614347868E+02 -0.16695804786E+03  0.21071161794E+03  0.10082094411E+03 0.  0.
         -6    2    1    2    0  502 -0.49214346483E+02 -0.36487795320E+02  0.17521266043E+03  0.24192991717E+03  0.15516828715E+03 0.  0.
        -24    2    5    5    0    0 -0.48681492239E+02 -0.39721412731E+01  0.18477186082E+03  0.20770974762E+03  0.81345148060E+02 0.  0.
          5    1    3    3  501    0  0.23876552304E+02 -0.39126552547E+02 -0.13282382811E+02  0.47952982778E+02  0.47000000000E+01 0. -1.
        -13    1    4    4    0    0  0.18979295619E+02  0.53789043049E+02 -0.17685625147E+02  0.59718139214E+02  0.00000000000E+00 0.  1.
         14    1    4    4    0    0  0.63584985599E+01  0.21825304819E+02 -0.14927242272E+03  0.15099347873E+03  0.00000000000E+00 0. -1.
         -5    1    5    5    0  502 -0.53285424386E+00 -0.32515654047E+02 -0.95592003885E+01  0.34220169547E+02  0.47000000000E+01 0.  1.
         13    1    6    6    0    0  0.11738508629E+02  0.23116444639E+02  0.76732159558E+02  0.80993746104E+02  0.00000000000E+00 0. -1.
        -14    1    6    6    0    0 -0.60420000868E+02 -0.27088585912E+02  0.10803970126E+03  0.12671600152E+03  0.00000000000E+00 0.  1.
</event>
<event>
12    1  0.8453150E-002  0.1946370E+03  0.7818608E-02  0.1155638E+00
         21   -1    0    0  501  502  0.00000000000E+00  0.00000000000E+00  0.47561386825E+03  0.47561386825E+03  0.00000000000E+00 0. -1.
         21   -1    0    0  502  503 -0.00000000000E+00 -0.00000000000E+00 -0.32362859240E+03  0.32362859240E+03  0.00000000000E+00 0. -1.
         -6    2    1    2    0  503 -0.77750372368E+02 -0.17968675414E+02 -0.27292809535E+03  0.33187220852E+03  0.17111815759E+03 0.  0.
        -24    2    3    3    0    0 -0.84572393470E+02 -0.56539826776E+02 -0.12966527109E+03  0.18327678294E+03  0.80175151309E+02 0.  0.
          6    2    1    2  501    0  0.77750372368E+02  0.17968675414E+02  0.42491337121E+03  0.46737025213E+03  0.17752629622E+03 0.  0.
         24    2    5    5    0    0  0.11536879497E+03  0.20315626931E+02  0.39249358488E+03  0.41743242633E+03  0.80473180831E+02 0.  0.
          5    1    5    5  501    0 -0.37618422599E+02 -0.23469515171E+01  0.32419786330E+02  0.49937825804E+02  0.47000000000E+01 0. -1.
        -11    1    6    6    0    0  0.34060472469E+01 -0.51218521885E+01 -0.20800542643E+01  0.64931620518E+01  0.00000000000E+00 0.  1.
         12    1    6    6    0    0  0.11196274772E+03  0.25437479120E+02  0.39457363914E+03  0.41093926428E+03  0.00000000000E+00 0. -1.
         -5    1    3    3    0  503  0.68220211028E+01  0.38571151362E+02 -0.14326282426E+03  0.14859542559E+03  0.47000000000E+01 0.  1.
         13    1    4    4    0    0 -0.20130927932E+01  0.95013769480E+01 -0.49904778245E+02  0.50841081796E+02  0.00000000000E+00 0. -1.
        -14    1    4    4    0    0 -0.82559300677E+02 -0.66041203724E+02 -0.79760492846E+02  0.13243570114E+03  0.00000000000E+00 0.  1.
</event>
<event>
12    1  0.8453150E-002  0.1724809E+03  0.7818608E-02  0.1175610E+00
         21   -1    0    0  503  502  0.00000000000E+00  0.00000000000E+00  0.17343151703E+03  0.17343151703E+03  0.00000000000E+00 0. -1.
         21   -1    0    0  501  503 -0.00000000000E+00 -0.00000000000E+00 -0.28676801406E+03  0.28676801406E+03  0.00000000000E+00 0. -1.
          6    2    1    2  501    0 -0.12029610389E+02 -0.23773665333E+00 -0.20344400143E+03  0.26671915171E+03  0.17206067571E+03 0.  0.
         24    2    3    3    0    0  0.45658025086E+02 -0.10991747964E+02 -0.54219284485E+02  0.10630213829E+03  0.78453425786E+02 0.  0.
         -6    2    1    2    0  502  0.12029610389E+02  0.23773665333E+00  0.90107504397E+02  0.19348037938E+03  0.17079381373E+03 0.  0.
        -24    2    5    5    0    0  0.59743406357E+02 -0.23697970481E+02  0.94077676355E+02  0.13974606383E+03  0.80916529580E+02 0.  0.
          5    1    3    3  501    0 -0.57687635475E+02  0.10754011310E+02 -0.14922471694E+03  0.16041701341E+03  0.47000000000E+01 0. -1.
        -11    1    4    4    0    0  0.43113825978E+02  0.28316401724E+02 -0.25407418612E+02  0.57499195799E+02  0.00000000000E+00 0.  1.
         12    1    4    4    0    0  0.25441991083E+01 -0.39308149688E+02 -0.28811865873E+02  0.48802942494E+02  0.00000000000E+00 0. -1.
         -5    1    5    5    0  502 -0.47713795969E+02  0.23935707135E+02 -0.39701719584E+01  0.53734315546E+02  0.47000000000E+01 0.  1.
         11    1    6    6    0    0 -0.49762284454E+01  0.21781565181E+02  0.10553102790E+02  0.24709662276E+02  0.00000000000E+00 0. -1.
        -12    1    6    6    0    0  0.64719634803E+02 -0.45479535663E+02  0.83524573565E+02  0.11503640155E+03  0.00000000000E+00 0.  1.
</event>
<event>
12    1  0.8453150E-002  0.2113621E+03  0.7818608E-02  0.1140567E+00
         21   -1    0    0  503  502  0.00000000000E+00  0.00000000000E+00  0.14747345981E+04  0.14747345981E+04  0.00000000000E+00 0.  1.
         21   -1    0    0  501  503 -0.00000000000E+00 -0.00000000000E+00 -0.31834419166E+02  0.31834419166E+02  0.00000000000E+00 0. -1.
          6    2    1    2  501    0 -0.10040022132E+03  0.73538747688E+02  0.89073255650E+03  0.91546623428E+03  0.17083848236E+03 0.  0.
         24    2    3    3    0    0 -0.36868493733E+02  0.98128903545E+02  0.70770184869E+03  0.72011197614E+03  0.82041355398E+02 0.  0.
         -6    2    1    2    0  502  0.10040022132E+03 -0.73538747688E+02  0.55216762239E+03  0.59110278294E+03  0.17036802790E+03 0.  0.
        -24    2    5    5    0    0  0.12038838572E+03 -0.76420161163E+02  0.33367515842E+03  0.37162869319E+03  0.80220756711E+02 0.  0.
          5    1    3    3  501    0 -0.63531727583E+02 -0.24590155858E+02  0.18303070781E+03  0.19535425815E+03  0.47000000000E+01 0. -1.
        -13    1    4    4    0    0  0.21116233515E+02  0.29907570821E+02  0.32602806571E+03  0.32807721308E+03  0.00000000000E+00 0.  1.
         14    1    4    4    0    0 -0.57984727248E+02  0.68221332725E+02  0.38167378298E+03  0.39203476306E+03  0.00000000000E+00 0. -1.
         -5    1    5    5    0  502 -0.19988164400E+02  0.28814134753E+01  0.21849246397E+03  0.21947408975E+03  0.47000000000E+01 0.  1.
         11    1    6    6    0    0  0.57748549205E+02 -0.57739732058E+01  0.66513866765E+02  0.88274164815E+02  0.00000000000E+00 0. -1.
        -12    1    6    6    0    0  0.62639836511E+02 -0.70646187957E+02  0.26716129165E+03  0.28335452837E+03  0.00000000000E+00 0.  1.
</event>
<event>
12    1  0.8453150E-002  0.1869841E+03  0.7818608E-02  0.1161476E+00
         21   -1    0    0  503  502  0.00000000000E+00  0.00000000000E+00  0.33230490022E+02  0.33230490022E+02  0.00000000000E+00 0. -1.
         21   -1    0    0  501  503 -0.00000000000E+00 -0.00000000000E+00 -0.11473203654E+04  0.11473203654E+04  0.00000000000E+00 0.  1.
          6    2    1    2  501    0  0.71657581906E+02 -0.17368729143E+01 -0.73117182543E+03  0.75441790560E+03  0.17145352785E+03 0.  0.
         24    2    3    3    0    0  0.16906333932E+02  0.63226799881E+02 -0.40236525007E+03  0.41478011038E+03  0.76559082776E+02 0.  0.
         -6    2    1    2    0  502 -0.71657581906E+02  0.17368729143E+01 -0.38291804993E+03  0.42613294981E+03  0.17269983259E+03 0.  0.
        -24    2    5    5    0    0  0.51957145464E+01 -0.47869747482E+02 -0.15417275200E+03  0.17973135223E+03  0.78839161222E+02 0.  0.
          5    1    3    3  501    0  0.54751247974E+02 -0.64963672795E+02 -0.32880657536E+03  0.33963779521E+03  0.47000000000E+01 0. -1.
        -13    1    4    4    0    0  0.74245099726E+01  0.38991192022E+02 -0.37470626212E+03  0.37680262642E+03  0.00000000000E+00 0.  1.
         14    1    4    4    0    0  0.94818239597E+01  0.24235607859E+02 -0.27658987950E+02  0.37977483965E+02  0.00000000000E+00 0. -1.
         -5    1    5    5    0  502 -0.76853296453E+02  0.49606620396E+02 -0.22874529794E+03  0.24640159758E+03  0.47000000000E+01 0.  1.
         13    1    6    6    0    0 -0.26939656589E+02 -0.52918663916E+02 -0.90720746614E+02  0.10842685993E+03  0.00000000000E+00 0. -1.
        -14    1    6    6    0    0  0.32135371135E+02  0.50489164338E+01 -0.63452005384E+02  0.71304492302E+02  0.00000000000E+00 0.  1.
</event>
<event>
12    1  0.8453150E-002  0.1767267E+03  0.7818608E-02  0.1171576E+00
         21   -1    0    0  501  502  0.00000000000E+00  0.00000000000E+00  0.22878092533E+03  0.22878092533E+03  0.00000000000E+00 0.  1.
         21   -1    0    0  502  503 -0.00000000000E+00 -0.00000000000E+00 -0.14042075263E+03  0.14042075263E+03  0.00000000000E+00 0.  1.
         -6    2    1    2    0  503  0.40518111492E+02  0.79740551441E+01  0.68678508215E+01  0.17459095186E+03  0.16949787664E+03 0.  0.
        -24    2    3    3    0    0 -0.22702329185E+02 -0.12595266980E+02  0.47750947965E+02  0.96402469568E+02  0.79619385871E+02 0.  0.
          6    2    1    2  501    0 -0.40518111492E+02 -0.79740551441E+01  0.81492321884E+02  0.19461072609E+03  0.17183431925E+03 0.  0.
         24    2    5    5    0    0 -0.85288815487E+02 -0.37008100218E+02  0.56701931524E+02  0.13558492526E+03  0.80773642923E+02 0.  0.
          5    1    5    5  501    0  0.44770703995E+02  0.29034045074E+02  0.24790390360E+02  0.59025800832E+02  0.47000000000E+01 0. -1.
        -13    1    6    6    0    0 -0.23119903842E+02 -0.21319032481E+01  0.59887138492E+02  0.64230400293E+02  0.00000000000E+00 0.  1.
         14    1    6    6    0    0 -0.62168911645E+02 -0.34876196970E+02 -0.31852069680E+01  0.71354524970E+02  0.00000000000E+00 0. -1.
         -5    1    3    3    0  503  0.63220440676E+02  0.20569322124E+02 -0.40883097143E+02  0.78188482297E+02  0.47000000000E+01 0.  1.
         13    1    4    4    0    0 -0.94013637689E+00 -0.44659017767E+02  0.29787480632E+02  0.53689903396E+02  0.00000000000E+00 0. -1.
        -14    1    4    4    0    0 -0.21762192808E+02  0.32063750787E+02  0.17963467333E+02  0.42712566171E+02  0.00000000000E+00 0.  1.
</event>
<event>
12    1  0.8453150E-002  0.1921599E+03  0.7818608E-02  0.1156541E+00
         21   -1    0    0  501  502  0.00000000000E+00  0.00000000000E+00  0.56379802571E+03  0.56379802571E+03  0.00000000000E+00 0. -1.
         21   -1    0    0  502  503 -0.00000000000E+00 -0.00000000000E+00 -0.82911123748E+02  0.82911123748E+02  0.00000000000E+00 0.  1.
         -6    2    1    2    0  503  0.56421154643E+02  0.54934925376E+02  0.92123090653E+02  0.21304714160E+03  0.17521765892E+03 0.  0.
        -24    2    3    3    0    0 -0.35767673964E+02  0.67813806924E+01  0.38937552236E+02  0.96135484863E+02  0.80003655235E+02 0.  0.
          6    2    1    2  501    0 -0.56421154643E+02 -0.54934925376E+02  0.38876381131E+03  0.43366200785E+03  0.17528332309E+03 0.  0.
         24    2    5    5    0    0  0.37533009513E+01 -0.40821061382E+02  0.33674540559E+03  0.35274123922E+03  0.96687472499E+02 0.  0.
          5    1    5    5  501    0 -0.60174455594E+02 -0.14113863994E+02  0.52018405716E+02  0.80920768633E+02  0.47000000000E+01 0. -1.
        -11    1    6    6    0    0  0.32358586922E+02 -0.44811581455E+02  0.10015861592E+03  0.11439800839E+03  0.00000000000E+00 0.  1.
         12    1    6    6    0    0 -0.28605285970E+02  0.39905200735E+01  0.23658678967E+03  0.23834323083E+03  0.00000000000E+00 0. -1.
         -5    1    3    3    0  503  0.92188828606E+02  0.48153544684E+02  0.53185538416E+02  0.11691165674E+03  0.47000000000E+01 0.  1.
         13    1    4    4    0    0 -0.89919759540E+01 -0.26179780883E+02 -0.11696599190E+02  0.30050740278E+02  0.00000000000E+00 0. -1.
        -14    1    4    4    0    0 -0.26775698010E+02  0.32961161575E+02  0.50634151426E+02  0.66084744585E+02  0.00000000000E+00 0.  1.
</event>
<event>
12    1  0.8453150E-002  0.4572234E+03  0.7818608E-02  0.1025634E+00
         21   -1    0    0  503  502  0.00000000000E+00  0.00000000000E+00  0.23546476464E+03  0.23546476464E+03  0.00000000000E+00 0. -1.
         21   -1    0    0  501  503 -0.00000000000E+00 -0.00000000000E+00 -0.11351614842E+04  0.11351614842E+04  0.00000000000E+00 0. -1.
          6    2    1    2  501    0 -0.20397155802E+03 -0.37061992953E+03 -0.12896203673E+03  0.47447602157E+03  0.17185098044E+03 0.  0.
         24    2    3    3    0    0 -0.15336495724E+03 -0.32025004541E+03 -0.15820186552E+03  0.39717653349E+03  0.81489059440E+02 0.  0.
         -6    2    1    2    0  502  0.20397155802E+03  0.37061992953E+03 -0.77073468285E+03  0.89615022730E+03  0.17346397289E+03 0.  0.
        -24    2    5    5    0    0  0.74798655177E+02  0.18922395143E+03 -0.25810779188E+03  0.33722397183E+03  0.75497233988E+02 0.  0.
          5    1    3    3  501    0 -0.50606600778E+02 -0.50369884122E+02  0.29239828792E+02  0.77299488075E+02  0.47000000000E+01 0. -1.
        -13    1    4    4    0    0 -0.65775975374E+02 -0.58881977629E+02 -0.46177677893E+02  0.99629032724E+02  0.00000000000E+00 0.  1.
         14    1    4    4    0    0 -0.87588981865E+02 -0.26136806778E+03 -0.11202418763E+03  0.29754750077E+03  0.00000000000E+00 0. -1.
         -5    1    5    5    0  502  0.12917290284E+03  0.18139597810E+03 -0.51262689097E+03  0.55892625546E+03  0.47000000000E+01 0.  1.
         13    1    6    6    0    0  0.36247366875E+02  0.60891038642E+02 -0.14686584344E+03  0.16306798019E+03  0.00000000000E+00 0. -1.
        -14    1    6    6    0    0  0.38551288303E+02  0.12833291279E+03 -0.11124194843E+03  0.17415599164E+03  0.00000000000E+00 0.  1.
</event>
<event>
12    1  0.8453150E-002  0.1922947E+03  0.7818608E-02  0.1157754E+00
         21   -1    0    0  503  502  0.00000000000E+00  0.00000000000E+00  0.47544684636E+03  0.47544684636E+03  0.00000000000E+00 0.  1.
         21   -1    0    0  501  503 -0.00000000000E+00 -0.00000000000E+00 -0.13477830427E+03  0.13477830427E+03  0.00000000000E+00 0.  1.
          6    2    1    2  501    0  0.81666255069E+02  0.17053436127E+02 -0.30702312014E+02  0.19473025341E+03  0.17325427189E+03 0.  0.
         24    2    3    3    0    0 -0.19271107893E+02  0.17621229655E+02 -0.40243558757E+02  0.93232475003E+02  0.79942898620E+02 0.  0.
         -6    2    1    2    0  502 -0.81666255069E+02 -0.17053436127E+02  0.37137085410E+03  0.41549489723E+03  0.16661182866E+03 0.  0.
        -24    2    5    5    0    0  0.12297207317E+02 -0.21845971814E+02  0.23795766231E+03  0.25217536256E+03  0.79624723778E+02 0.  0.
          5    1    3    3  501    0  0.10093736296E+03 -0.56779352745E+00  0.95412467433E+01  0.10149777840E+03  0.47000000000E+01 0. -1.
        -13    1    4    4    0    0  0.88632956485E+01  0.20109911994E+02 -0.56514265772E+02  0.60636860126E+02  0.00000000000E+00 0.  1.
         14    1    4    4    0    0 -0.28134403541E+02 -0.24886823392E+01  0.16270707016E+02  0.32595614877E+02  0.00000000000E+00 0. -1.
         -5    1    5    5    0  502 -0.93963462387E+02  0.47925356864E+01  0.13341319179E+03  0.16331953467E+03  0.47000000000E+01 0.  1.
         13    1    6    6    0    0  0.16851130891E+02  0.26176908184E+02  0.13403384940E+03  0.13760183109E+03  0.00000000000E+00 0. -1.
        -14    1    6    6    0    0 -0.45539235736E+01 -0.48022879997E+02  0.10392381291E+03  0.11457353147E+03  0.00000000000E+00 0.  1.
</event>
<event>
12    1  0.8453150E-002  0.1814186E+03  0.7818608E-02  0.1166724E+00
         21   -1    0    0  501  502  0.00000000000E+00  0.00000000000E+00  0.24645212299E+03  0.24645212299E+03  0.00000000000E+00 0.  1.
         21   -1    0    0  502  503 -0.00000000000E+00 -0.00000000000E+00 -0.18160071449E+03  0.18160071449E+03  0.00000000000E+00 0.  1.
         -6    2    1    2    0  503 -0.99838952717E+01 -0.52794552621E+02 -0.78594387631E+02  0.19771133104E+03  0.17327939780E+03 0.  0.
        -24    2    3    3    0    0  0.13478655634E+02 -0.27992226924E+02  0.24103698563E+02  0.89384817373E+02  0.80270906102E+02 0.  0.
          6    2    1    2  501    0  0.99838952717E+01  0.52794552621E+02  0.14344579614E+03  0.23034150644E+03  0.17202781813E+03 0.  0.
         24    2    5    5    0    0 -0.46546296335E+02 -0.74755426946E+01  0.10021350485E+03  0.13696448591E+03  0.80585869771E+02 0.  0.
          5    1    5    5  501    0  0.56530191607E+02  0.60270095316E+02  0.43232291291E+02  0.93377020528E+02  0.47000000000E+01 0. -1.
        -13    1    6    6    0    0  0.12157760207E+02  0.21854072137E+02  0.14141591792E+02  0.28729709720E+02  0.00000000000E+00 0.  1.
         14    1    6    6    0    0 -0.58704056542E+02 -0.29329614831E+02  0.86071913055E+02  0.10823477619E+03  0.00000000000E+00 0. -1.
         -5    1    3    3    0  503 -0.23462550906E+02 -0.24802325697E+02 -0.10269808619E+03  0.10832651366E+03  0.47000000000E+01 0.  1.
         11    1    4    4    0    0  0.37286342395E+02 -0.37521279899E+02  0.32876941235E+02  0.62281707101E+02  0.00000000000E+00 0. -1.
        -12    1    4    4    0    0 -0.23807686760E+02  0.95290529742E+01 -0.87732426718E+01  0.27103110273E+02  0.00000000000E+00 0.  1.
</event>
<event>
12    1  0.8453150E-002  0.2036318E+03  0.7818608E-02  0.1147087E+00
         21   -1    0    0  503  502  0.00000000000E+00  0.00000000000E+00  0.13266107967E+03  0.13266107967E+03  0.00000000000E+00 0.  1.
         21   -1    0    0  501  503 -0.00000000000E+00 -0.00000000000E+00 -0.31983595771E+03  0.31983595771E+03  0.00000000000E+00 0. -1.
          6    2    1    2  501    0 -0.96985723258E+02 -0.42958171746E+02 -0.13328334450E+03  0.24185468645E+03  0.17169043188E+03 0.  0.
         24    2    3    3    0    0 -0.87899062957E+02 -0.15209845509E+02 -0.16003963829E+02  0.12090395212E+03  0.80025334179E+02 0.  0.
         -6    2    1    2    0  502  0.96985723258E+02  0.42958171746E+02 -0.53891533539E+02  0.21064235092E+03  0.17382251747E+03 0.  0.
        -24    2    5    5    0    0  0.82818509582E+02 -0.30054389547E+00  0.25293583615E+02  0.11918526153E+03  0.81892400975E+02 0.  0.
          5    1    3    3  501    0 -0.90866603018E+01 -0.27748326237E+02 -0.11727938067E+03  0.12095073433E+03  0.47000000000E+01 0. -1.
        -13    1    4    4    0    0 -0.10635592856E+02 -0.34108633555E+02  0.10202992496E+02  0.37156638361E+02  0.00000000000E+00 0.  1.
         14    1    4    4    0    0 -0.77263470101E+02  0.18898788047E+02 -0.26206956326E+02  0.83747313757E+02  0.00000000000E+00 0. -1.
         -5    1    5    5    0  502  0.14167213677E+02  0.43258715642E+02 -0.79185117154E+02  0.91457089397E+02  0.47000000000E+01 0.  1.
         13    1    6    6    0    0 -0.89880212578E+01 -0.12938468548E+02  0.21213088318E+02  0.26423164278E+02  0.00000000000E+00 0. -1.
        -14    1    6    6    0    0  0.91806530839E+02  0.12637924652E+02  0.40804952973E+01  0.92762097250E+02  0.00000000000E+00 0.  1.
</event>
<event>
12    1  0.8453150E-002  0.1866122E+03  0.7818608E-02  0.1164177E+00
         21   -1    0    0  501  502  0.00000000000E+00  0.00000000000E+00  0.51738379596E+03  0.51738379596E+03  0.00000000000E+00 0. -1.
         21   -1    0    0  502  503 -0.00000000000E+00 -0.00000000000E+00 -0.63418721227E+02  0.63418721227E+02  0.00000000000E+00 0. -1.
         -6    2    1    2    0  503  0.44760912296E+02  0.35817269947E+01  0.23919945799E+03  0.30338176981E+03  0.18112909627E+03 0.  0.
        -24    2    3    3    0    0  0.45895734093E+02  0.69360408151E+02  0.18658657002E+03  0.21901158139E+03  0.78957203859E+02 0.  0.
          6    2    1    2  501    0 -0.44760912296E+02 -0.35817269947E+01  0.21476561675E+03  0.27742074738E+03  0.16976935207E+03 0.  0.
         24    2    5    5    0    0 -0.87526294009E+02  0.88031733379E+01  0.10413138466E+03  0.15807131529E+03  0.80030290785E+02 0.  0.
          5    1    5    5  501    0  0.42765381714E+02 -0.12384900333E+02  0.11063423209E+03  0.11934943209E+03  0.47000000000E+01 0. -1.
        -13    1    6    6    0    0 -0.24268022086E+02  0.36295013454E+02  0.16786798000E+02  0.46776719473E+02  0.00000000000E+00 0.  1.
         14    1    6    6    0    0 -0.63258271923E+02 -0.27491840116E+02  0.87344586659E+02  0.11129459582E+03  0.00000000000E+00 0. -1.
         -5    1    3    3    0  503 -0.11348217973E+01 -0.65778681156E+02  0.52612887963E+02  0.84370188425E+02  0.47000000000E+01 0.  1.
         11    1    4    4    0    0  0.45322358833E+02  0.40054004996E+00  0.65257933090E+02  0.79453599501E+02  0.00000000000E+00 0. -1.
        -12    1    4    4    0    0  0.57337526045E+00  0.68959868101E+02  0.12132863693E+03  0.13955798188E+03  0.00000000000E+00 0.  1.
</event>
<event>
12    1  0.8453150E-002  0.1894617E+03  0.7818608E-02  0.1159281E+00
         21   -1    0    0  503  502  0.00000000000E+00  0.00000000000E+00  0.53956232876E+03  0.53956232876E+03  0.00000000000E+00 0. -1.
         21   -1    0    0  501  503 -0.00000000000E+00 -0.00000000000E+00 -0.81007299754E+02  0.81007299754E+02  0.00000000000E+00 0. -1.
          6    2    1    2  501    0 -0.74478265083E+02  0.25097283861E+02  0.95065330149E+02  0.21066659106E+03  0.17078088290E+03 0.  0.
         24    2    3    3    0    0 -0.12789255771E+02  0.73553163880E+01  0.11433156080E+03  0.14348334223E+03  0.85428905885E+02 0.  0.
         -6    2    1    2    0  502  0.74478265083E+02 -0.25097283861E+02  0.36348969886E+03  0.40990303745E+03  0.17239156973E+03 0.  0.
        -24    2    5    5    0    0  0.38315421525E+02  0.40345174788E+02  0.28467817369E+03  0.30116567889E+03  0.81014189572E+02 0.  0.
          5    1    3    3  501    0 -0.61689009312E+02  0.17741967473E+02 -0.19266230649E+02  0.67183248828E+02  0.47000000000E+01 0. -1.
        -11    1    4    4    0    0 -0.67269426404E+01  0.45366873229E+02  0.78386291799E+02  0.90817485573E+02  0.00000000000E+00 0.  1.
         12    1    4    4    0    0 -0.60623131306E+01 -0.38011556841E+02  0.35945269000E+02  0.52665856657E+02  0.00000000000E+00 0. -1.
         -5    1    5    5    0  502  0.36162843558E+02 -0.65442458649E+02  0.78811525169E+02  0.10873735857E+03  0.47000000000E+01 0.  1.
         11    1    6    6    0    0  0.58250072008E+02  0.12094531072E+02  0.13469027215E+03  0.14724407623E+03  0.00000000000E+00 0. -1.
        -12    1    6    6    0    0 -0.19934650483E+02  0.28250643716E+02  0.14998790153E+03  0.15392160266E+03  0.00000000000E+00 0.  1.
</event>
<event>
12    1  0.8453150E-002  0.1885914E+03  0.7818608E-02  0.1160049E+00
         21   -1    0    0  501  502  0.00000000000E+00  0.00000000000E+00  0.71968320536E+02  0.71968320536E+02  0.00000000000E+00 0. -1.
         21   -1    0    0  502  503 -0.00000000000E+00 -0.00000000000E+00 -0.49685703844E+03  0.49685703844E+03  0.00000000000E+00 0. -1.
         -6    2    1    2    0  503 -0.45038998891E+02 -0.58671301361E+02 -0.24350934269E+03  0.30716682364E+03  0.17199948995E+03 0.  0.
        -24    2    3    3    0    0 -0.11593910594E+00 -0.46896087952E+02 -0.24293401869E+03  0.26048537176E+03  0.81464317080E+02 0.  0.
          6    2    1    2  501    0  0.45038998891E+02  0.58671301361E+02 -0.18137937522E+03  0.26165853534E+03  0.17348163689E+03 0.  0.
         24    2    5    5    0    0 -0.31461876573E+02 -0.84828413891E+01 -0.96304154281E+02  0.12891085720E+03  0.79257243806E+02 0.  0.
          5    1    5    5  501    0  0.76500875464E+02  0.67154142750E+02 -0.85075220943E+02  0.13274767815E+03  0.47000000000E+01 0. -1.
        -13    1    6    6    0    0  0.17044828210E+02 -0.24046270435E+02 -0.58391923245E+02  0.65409219463E+02  0.00000000000E+00 0.  1.
         14    1    6    6    0    0 -0.48506704783E+02  0.15563429046E+02 -0.37912231035E+02  0.63501637732E+02  0.00000000000E+00 0. -1.
         -5    1    3    3    0  503 -0.44923059785E+02 -0.11775213409E+02 -0.57532399237E+00  0.46681451873E+02  0.47000000000E+01 0.  1.
         11    1    4    4    0    0  0.93346487038E+01 -0.60664301729E+02 -0.10561705545E+03  0.12215668452E+03  0.00000000000E+00 0. -1.
        -12    1    4    4    0    0 -0.94505878098E+01  0.13768213778E+02 -0.13731696324E+03  0.13832868724E+03  0.00000000000E+00 0.  1.
</event>
<event>
12    1  0.8453150E-002  0.2351868E+03  0.7818608E-02  0.1123122E+00
         21   -1    0    0  503  502  0.00000000000E+00  0.00000000000E+00  0.14598227675E+04  0.14598227675E+04  0.00000000000E+00 0. -1.
         21   -1    0    0  501  503 -0.00000000000E+00 -0.00000000000E+00 -0.14625419253E+03  0.14625419253E+03  0.00000000000E+00 0.  1.
          6    2    1    2  501    0  0.58697964690E+02  0.14945699223E+03 -0.34520943742E+02  0.23770676590E+03  0.17184285674E+03 0.  0.
         24    2    3    3    0    0 -0.12347426158E+01  0.79597971694E+02 -0.77280957425E+02  0.13610597394E+03  0.78836083589E+02 0.  0.
         -6    2    1    2    0  502 -0.58697964690E+02 -0.14945699223E+03  0.13480895187E+04  0.13683701942E+04  0.17119811381E+03 0.  0.
        -24    2    5    5    0    0 -0.88647327505E+02 -0.48534645948E+02  0.70792419720E+03  0.71958978970E+03  0.80242357512E+02 0.  0.
          5    1    3    3  501    0  0.59932707306E+02  0.69859020536E+02  0.42760013683E+02  0.10160079195E+03  0.47000000000E+01 0. -1.
        -11    1    4    4    0    0 -0.26455547878E+01  0.85644723208E+02 -0.33683255969E+02  0.92068340412E+02  0.00000000000E+00 0.  1.
         12    1    4    4    0    0  0.14108121720E+01 -0.60467515144E+01 -0.43597701456E+02  0.44037633532E+02  0.00000000000E+00 0. -1.
         -5    1    5    5    0  502  0.29949362815E+02 -0.10092234628E+03  0.64016532153E+03  0.64878040445E+03  0.47000000000E+01 0.  1.
         11    1    6    6    0    0 -0.45116948978E+02 -0.41772940254E+02  0.59821605009E+03  0.60136757495E+03  0.00000000000E+00 0. -1.
        -12    1    6    6    0    0 -0.43530378527E+02 -0.67617056948E+01  0.10970814711E+03  0.11822221475E+03  0.00000000000E+00 0.  1.
</event>
<event>
12    1  0.8453150E-002  0.1864502E+03  0.7818608E-02  0.1162003E+00
         21   -1    0    0  503  502  0.00000000000E+00  0.00000000000E+00  0.83142101358E+03  0.83142101358E+03  0.00000000000E+00 0. -1.
         21   -1    0    0  501  503 -0.00000000000E+00 -0.00000000000E+00 -0.23190245809E+03  0.23190245809E+03  0.00000000000E+00 0. -1.
          6    2    1    2  501    0  0.65579125412E+02 -0.21612936066E+02 -0.18177154724E+03  0.26039314383E+03  0.17319339847E+03 0.  0.
         24    2    3    3    0    0 -0.31416164950E+01  0.39941409825E+02 -0.50902395149E+02  0.10020480831E+03  0.76451054959E+02 0.  0.
         -6    2    1    2    0  502 -0.65579125412E+02  0.21612936066E+02  0.78129010272E+03  0.80293032784E+03  0.17179972660E+03 0.  0.
        -24    2    5    5    0    0 -0.67812362276E+02 -0.42328948606E+02  0.37571894965E+03  0.39231663814E+03  0.79733048801E+02 0.  0.
          5    1    3    3  501    0  0.68720741908E+02 -0.61554345891E+02 -0.13086915209E+03  0.16018833551E+03  0.47000000000E+01 0. -1.
        -11    1    4    4    0    0  0.20550401759E+02  0.35284010587E+02 -0.61512222908E+02  0.73831117983E+02  0.00000000000E+00 0.  1.
         12    1    4    4    0    0 -0.23692018254E+02  0.46573992386E+01  0.10609827759E+02  0.26373690331E+02  0.00000000000E+00 0. -1.
         -5    1    5    5    0  502  0.22332368632E+01  0.63941884672E+02  0.40557115308E+03  0.41061368970E+03  0.47000000000E+01 0.  1.
         11    1    6    6    0    0 -0.38006053218E+02 -0.76406617513E+01  0.30902896591E+03  0.31145102594E+03  0.00000000000E+00 0. -1.
        -12    1    6    6    0    0 -0.29806309058E+02 -0.34688286855E+02  0.66689983744E+02  0.80865612199E+02  0.00000000000E+00 0.  1.
</event>
<event>
12    1  0.8453150E-002  0.2204148E+03  0.7818608E-02  0.1133723E+00
         21   -1    0    0  501  502  0.00000000000E+00  0.00000000000E+00  0.61924352190E+03  0.61924352190E+03  0.00000000000E+00 0.  1.
         21   -1    0    0  502  503 -0.00000000000E+00 -0.00000000000E+00 -0.78800311985E+02  0.78800311985E+02  0.00000000000E+00 0. -1.
         -6    2    1    2    0  503 -0.12661443183E+03 -0.52553805766E+02  0.23952307259E+03  0.32550574003E+03  0.17259654586E+03 0.  0.
        -24    2    3    3    0    0 -0.31656862798E+02  0.12963117664E+02  0.16002302066E+03  0.18532102107E+03  0.86984563736E+02 0.  0.
          6    2    1    2  501    0  0.12661443183E+03  0.52553805766E+02  0.30092013733E+03  0.37253809386E+03  0.17157676264E+03 0.  0.
         24    2    5    5    0    0  0.59400126197E+02  0.36885608105E+02  0.28022140203E+03  0.30033156408E+03  0.82377734560E+02 0.  0.
          5    1    5    5  501    0  0.67214305632E+02  0.15668197661E+02  0.20698735299E+02  0.72206529778E+02  0.47000000000E+01 0. -1.
        -13    1    6    6    0    0  0.30064188845E+01 -0.18780901940E+02  0.12095947477E+03  0.12244572417E+03  0.00000000000E+00 0.  1.
         14    1    6    6    0    0  0.56393707312E+02  0.55666510045E+02  0.15926192726E+03  0.17788583991E+03  0.00000000000E+00 0. -1.
         -5    1    3    3    0  503 -0.94957569031E+02 -0.65516923430E+02  0.79500051927E+02  0.14018471895E+03  0.47000000000E+01 0.  1.
         13    1    4    4    0    0 -0.54958215427E+02 -0.98266324620E+01  0.69737359088E+02  0.89332342414E+02  0.00000000000E+00 0. -1.
        -14    1    4    4    0    0  0.23301352630E+02  0.22789750126E+02  0.90285661574E+02  0.95988678661E+02  0.00000000000E+00 0.  1.
</event>
<event>
12    1  0.8453150E-002  0.1869088E+03  0.7818608E-02  0.1161320E+00
         21   -1    0    0  501  502  0.00000000000E+00  0.00000000000E+00  0.19864534115E+03  0.19864534115E+03  0.00000000000E+00 0. -1.
         21   -1    0    0  502  503 -0.00000000000E+00 -0.00000000000E+00 -0.56162841085E+03  0.56162841085E+03  0.00000000000E+00 0. -1.
         -6    2    1    2    0  503 -0.48711281309E+02 -0.55373734486E+02 -0.49663414622E+03  0.53064147658E+03  0.17174359399E+03 0.  0.
        -24    2    3    3    0    0 -0.59719024401E+02  0.26227799612E+02 -0.28924242392E+03  0.30745232529E+03  0.81311088928E+02 0.  0.
          6    2    1    2  501    0  0.48711281309E+02  0.55373734486E+02  0.13365107651E+03  0.22963227542E+03  0.17154979529E+03 0.  0.
         24    2    5    5    0    0  0.70727296616E+02  0.93130209669E+02  0.11253493417E+03  0.18086509572E+03  0.79827846030E+02 0.  0.
          5    1    5    5  501    0 -0.22016015307E+02 -0.37756475183E+02  0.21116142345E+02  0.48767179699E+02  0.47000000000E+01 0. -1.
        -11    1    6    6    0    0  0.45687805608E+02  0.52779024337E+02  0.13594774492E+02  0.71118344221E+02  0.00000000000E+00 0.  1.
         12    1    6    6    0    0  0.25039491007E+02  0.40351185332E+02  0.98940159677E+02  0.10974675150E+03  0.00000000000E+00 0. -1.
         -5    1    3    3    0  503  0.11007743092E+02 -0.81601534099E+02 -0.20739172230E+03  0.22318915129E+03  0.47000000000E+01 0.  1.
         13    1    4    4    0    0 -0.16844820190E+01  0.42742625493E+02 -0.98320071224E+02  0.10722222680E+03  0.00000000000E+00 0. -1.
        -14    1    4    4    0    0 -0.58034542382E+02 -0.16514825880E+02 -0.19092235270E+03  0.20023009850E+03  0.00000000000E+00 0.  1.
</event>
<event>
12    1  0.8453150E-002  0.1771504E+03  0.7818608E-02  0.1171638E+00
         21   -1    0    0  501  502  0.00000000000E+00  0.00000000000E+00  0.29292177922E+03  0.29292177922E+03  0.00000000000E+00 0. -1.
         21   -1    0    0  502  503 -0.00000000000E+00 -0.00000000000E+00 -0.11141468538E+03  0.11141468538E+03  0.00000000000E+00 0. -1.
         -6    2    1    2    0  503  0.14988224785E+01  0.38014386481E+02  0.14171143905E+03  0.22685765314E+03  0.17301711702E+03 0.  0.
        -24    2    3    3    0    0  0.66551571151E+02  0.14847991789E+02  0.11460868133E+03  0.15252602172E+03  0.74023394836E+02 0.  0.
          6    2    1    2  501    0 -0.14988224785E+01 -0.38014386481E+02  0.39795654781E+02  0.17747881146E+03  0.16872372190E+03 0.  0.
         24    2    5    5    0    0 -0.59532293150E+02 -0.82757857779E+01  0.47416046645E+02  0.11165762595E+03  0.81280756613E+02 0.  0.
          5    1    5    5  501    0  0.58033470671E+02 -0.29738600704E+02 -0.76203918637E+01  0.65821185511E+02  0.47000000000E+01 0. -1.
        -13    1    6    6    0    0 -0.64779146608E+02 -0.34833181268E+02  0.39325555805E+02  0.83403763056E+02  0.00000000000E+00 0.  1.
         14    1    6    6    0    0  0.52468534583E+01  0.26557395490E+02  0.80904908398E+01  0.28253862895E+02  0.00000000000E+00 0. -1.
         -5    1    3    3    0  503 -0.65052748673E+02  0.23166394692E+02  0.27102757720E+02  0.74331631416E+02  0.47000000000E+01 0.  1.
         13    1    4    4    0    0  0.64075417532E+02 -0.11410549256E+02  0.10671373075E+03  0.12499472028E+03  0.00000000000E+00 0. -1.
        -14    1    4    4    0    0  0.24761536198E+01  0.26258541045E+02  0.78949505777E+01  0.27531301444E+02  0.00000000000E+00 0.  1.
</event>
<event>
12    1  0.8453150E-002  0.2090545E+03  0.7818608E-02  0.1142336E+00
         21   -1    0    0  503  502  0.00000000000E+00  0.00000000000E+00  0.81209967859E+03  0.81209967859E+03  0.00000000000E+00 0. -1.
         21   -1    0    0  501  503 -0.00000000000E+00 -0.00000000000E+00 -0.86889024824E+02  0.86889024824E+02  0.00000000000E+00 0. -1.
          6    2    1    2  501    0 -0.99087206381E+02  0.63143918062E+02  0.85233992079E+02  0.22576231003E+03  0.17291141769E+03 0.  0.
         24    2    3    3    0    0 -0.33160056313E+02  0.72394177793E+02 -0.54249660635E+01  0.11318747664E+03  0.80258758386E+02 0.  0.
         -6    2    1    2    0  502  0.99087206381E+02 -0.63143918062E+02  0.63997666168E+03  0.67322639338E+03  0.17279531357E+03 0.  0.
        -24    2    5    5    0    0  0.32203016389E+02  0.15527641659E+02  0.44496617161E+03  0.45251415898E+03  0.74135202656E+02 0.  0.
          5    1    3    3  501    0 -0.65927150068E+02 -0.92502597315E+01  0.90658958143E+02  0.11257483339E+03  0.47000000000E+01 0. -1.
        -13    1    4    4    0    0  0.29808969720E+01 -0.13241145659E+02 -0.14421388698E+02  0.19803790978E+02  0.00000000000E+00 0.  1.
         14    1    4    4    0    0 -0.36140953285E+02  0.85635323452E+02  0.89964226344E+01  0.93383685659E+02  0.00000000000E+00 0. -1.
         -5    1    5    5    0  502  0.66884189992E+02 -0.78671559721E+02  0.19501049007E+03  0.22071223441E+03  0.47000000000E+01 0.  1.
         11    1    6    6    0    0  0.30606665186E+02 -0.17766454742E+02  0.10265389626E+03  0.10858285908E+03  0.00000000000E+00 0. -1.
        -12    1    6    6    0    0  0.15963512035E+01  0.33294096401E+02  0.34231227536E+03  0.34393129990E+03  0.00000000000E+00 0.  1.
</event>
<event>
12    1  0.8453150E-002  0.1763362E+03  0.7818608E-02  0.1171882E+00
         21   -1    0    0  501  502  0.00000000000E+00  0.00000000000E+00  0.35345525251E+03  0.35345525251E+03  0.00000000000E+00 0. -1.
         21   -1    0    0  502  503 -0.00000000000E+00 -0.00000000000E+00 -0.12182233319E+03  0.12182233319E+03  0.00000000000E+00 0. -1.
         -6    2    1    2    0  503 -0.22658537858E+02 -0.13988470443E+02 -0.10762901142E+02  0.17666437095E+03  0.17431400769E+03 0.  0.
        -24    2    3    3    0    0  0.20985292852E+02  0.46552379694E+02 -0.25510516637E+02  0.10044389694E+03  0.82647948569E+02 0.  0.
          6    2    1    2  501    0  0.22658537858E+02  0.13988470443E+02  0.24239582046E+03  0.29861321475E+03  0.17235147694E+03 0.  0.
         24    2    5    5    0    0 -0.29562736346E+02  0.40502447341E+02  0.21497792564E+03  0.23377585355E+03  0.76949578123E+02 0.  0.
          5    1    5    5  501    0  0.52221274204E+02 -0.26513976897E+02  0.27417894822E+02  0.64837361196E+02  0.47000000000E+01 0. -1.
        -11    1    6    6    0    0 -0.20605989740E+02 -0.21160317631E+02  0.69035375410E+02  0.75088274141E+02  0.00000000000E+00 0.  1.
         12    1    6    6    0    0 -0.89567466064E+01  0.61662764971E+02  0.14594255023E+03  0.15868757941E+03  0.00000000000E+00 0. -1.
         -5    1    3    3    0  503 -0.43643830711E+02 -0.60540850138E+02  0.14747615494E+02  0.76220474003E+02  0.47000000000E+01 0.  1.
         13    1    4    4    0    0 -0.56279456237E+00  0.30487403282E+01 -0.47178397744E+02  0.47280151956E+02  0.00000000000E+00 0. -1.
        -14    1    4    4    0    0  0.21548087415E+02  0.43503639366E+02  0.21667881107E+02  0.53163744987E+02  0.00000000000E+00 0.  1.
</event>
<event>
12    1  0.8453150E-002  0.1877854E+03  0.7818608E-02  0.1160505E+00
         21   -1    0    0  503  502  0.00000000000E+00  0.00000000000E+00  0.68144534211E+03  0.68144534211E+03  0.00000000000E+00 0. -1.
         21   -1    0    0  501  503 -0.00000000000E+00 -0.00000000000E+00 -0.21383306619E+03  0.21383306619E+03  0.00000000000E+00 0. -1.
          6    2    1    2  501    0 -0.67274522822E+02  0.35152019621E+02 -0.15594690879E+03  0.24409590415E+03  0.17176101466E+03 0.  0.
         24    2    3    3    0    0 -0.22987144736E+02 -0.43123897386E+02 -0.10680324864E+03  0.14150116562E+03  0.78914932702E+02 0.  0.
         -6    2    1    2    0  502  0.67274522822E+02 -0.35152019621E+02  0.62355918471E+03  0.65118250415E+03  0.17161314335E+03 0.  0.
        -24    2    5    5    0    0  0.56068097690E+02  0.20481531277E+02  0.54610858242E+03  0.55505050248E+03  0.79267596213E+02 0.  0.
          5    1    3    3  501    0 -0.44287378086E+02  0.78275917007E+02 -0.49143660154E+02  0.10259473853E+03  0.47000000000E+01 0. -1.
        -13    1    4    4    0    0  0.16328278739E+02  0.11625999834E+02 -0.48132912202E+02  0.52139752548E+02  0.00000000000E+00 0.  1.
         14    1    4    4    0    0 -0.39315423475E+02 -0.54749897221E+02 -0.58670336434E+02  0.89361413070E+02  0.00000000000E+00 0. -1.
         -5    1    5    5    0  502  0.11206425131E+02 -0.55633550897E+02  0.77450602288E+02  0.96132001667E+02  0.47000000000E+01 0.  1.
         13    1    6    6    0    0  0.19897400811E+02 -0.18461396106E+02  0.37251876292E+03  0.37350630307E+03  0.00000000000E+00 0. -1.
        -14    1    6    6    0    0  0.36170696879E+02  0.38942927382E+02  0.17358981950E+03  0.18154419941E+03  0.00000000000E+00 0.  1.
</event>
<event>
12    1  0.8453150E-002  0.2044830E+03  0.7818608E-02  0.1146079E+00
         21   -1    0    0  501  502  0.00000000000E+00  0.00000000000E+00  0.52991559158E+03  0.52991559158E+03  0.00000000000E+00 0. -1.
         21   -1    0    0  502  503 -0.00000000000E+00 -0.00000000000E+00 -0.12377264374E+03  0.12377264374E+03  0.00000000000E+00 0. -1.
         -6    2    1    2    0  503 -0.67004821062E+02  0.87732929672E+02  0.61105685007E+01  0.20457424549E+03  0.17212370515E+03 0.  0.
        -24    2    3    3    0    0 -0.73672309947E+02  0.10270500987E+03  0.50249454039E+02  0.15725670318E+03  0.78922333699E+02 0.  0.
          6    2    1    2  501    0  0.67004821062E+02 -0.87732929672E+02  0.40003237934E+03  0.44911398984E+03  0.17172873480E+03 0.  0.
         24    2    5    5    0    0 -0.13852133153E+02  0.23171686264E+01  0.17936192033E+03  0.19739110902E+03  0.81211456049E+02 0.  0.
          5    1    5    5  501    0  0.80856954215E+02 -0.90050098298E+02  0.22067045901E+03  0.25172288082E+03  0.47000000000E+01 0. -1.
        -13    1    6    6    0    0  0.11773021737E+02 -0.10069015586E+02 -0.29429285326E+00  0.15494377173E+02  0.00000000000E+00 0.  1.
         14    1    6    6    0    0 -0.25625154890E+02  0.12386184212E+02  0.17965621318E+03  0.18189673185E+03  0.00000000000E+00 0. -1.
         -5    1    3    3    0  503  0.66674888842E+01 -0.14972080203E+02 -0.44138885539E+02  0.47317542309E+02  0.47000000000E+01 0.  1.
         11    1    4    4    0    0 -0.47516049165E+02  0.34026950323E+02 -0.13485518386E+02  0.59978891976E+02  0.00000000000E+00 0. -1.
        -12    1    4    4    0    0 -0.26156260782E+02  0.68678059552E+02  0.63734972426E+02  0.97277811201E+02  0.00000000000E+00 0.  1.
</event>
<event>
12    1  0.8453150E-002  0.2059599E+03  0.7818608E-02  0.1144880E+00
         21   -1    0    0  503  502  0.00000000000E+00  0.00000000000E+00  0.14469232255E+02  0.14469232255E+02  0.00000000000E+00 0.  1.
         21   -1    0    0  501  503 -0.00000000000E+00 -0.00000000000E+00 -0.33214491085E+04  0.33214491085E+04  0.00000000000E+00 0.  1.
          6    2    1    2  501    0 -0.96676864260E+02 -0.58422262164E+02 -0.22273625492E+04  0.22368309617E+04  0.17178256218E+03 0.  0.
         24    2    3    3    0    0 -0.12473459127E+03 -0.78628482006E+02 -0.15537645120E+04  0.15623297140E+04  0.70347850583E+02 0.  0.
         -6    2    1    2    0  502  0.96676864260E+02  0.58422262164E+02 -0.10796173271E+04  0.10990873791E+04  0.17222054823E+03 0.  0.
        -24    2    5    5    0    0 -0.20891051346E+02  0.28556100331E+02 -0.45091406463E+03  0.45877176584E+03  0.76786408704E+02 0.  0.
          5    1    3    3  501    0  0.28057727010E+02  0.20206219841E+02 -0.67359803722E+03  0.67450124767E+03  0.47000000000E+01 0. -1.
        -11    1    4    4    0    0 -0.31978004687E+02  0.11542505866E+02 -0.33079382627E+03  0.33253628031E+03  0.00000000000E+00 0.  1.
         12    1    4    4    0    0 -0.92756586583E+02 -0.90170987871E+02 -0.12229706857E+04  0.12297934337E+04  0.00000000000E+00 0. -1.
         -5    1    5    5    0  502  0.11756791561E+03  0.29866161833E+02 -0.62870326244E+03  0.64031561327E+03  0.47000000000E+01 0.  1.
         11    1    6    6    0    0 -0.21621748893E+02 -0.16238318737E+02 -0.66973567761E+02  0.72226323451E+02  0.00000000000E+00 0. -1.
        -12    1    6    6    0    0  0.73069754733E+00  0.44794419068E+02 -0.38394049687E+03  0.38654544239E+03  0.00000000000E+00 0.  1.
</event>
<event>
12    1  0.8453150E-002  0.1828627E+03  0.7818608E-02  0.1165640E+00
         21   -1    0    0  503  502  0.00000000000E+00  0.00000000000E+00  0.91723592044E+02  0.91723592044E+02  0.00000000000E+00 0. -1.
         21   -1    0    0  501  503 -0.00000000000E+00 -0.00000000000E+00 -0.41694360230E+03  0.41694360230E+03  0.00000000000E+00 0. -1.
          6    2    1    2  501    0 -0.27204374747E+02  0.55793619164E+02 -0.25774944373E+03  0.31602777414E+03  0.17200515207E+03 0.  0.
         24    2    3    3    0    0  0.48608611627E+02  0.53713011874E+02 -0.18847705060E+03  0.21320417627E+03  0.68443680536E+02 0.  0.
         -6    2    1    2    0  502  0.27204374747E+02 -0.55793619164E+02 -0.67470566532E+02  0.19263942021E+03  0.16942450509E+03 0.  0.
        -24    2    5    5    0    0 -0.47286148064E+01 -0.93850649648E+02 -0.24302327835E+02  0.12665729973E+03  0.81370536429E+02 0.  0.
          5    1    3    3  501    0 -0.75812986374E+02  0.20806072898E+01 -0.69272393124E+02  0.10282359787E+03  0.47000000000E+01 0. -1.
        -13    1    4    4    0    0  0.56520683299E+02  0.13540774439E+02 -0.12186384769E+03  0.13501384220E+03  0.00000000000E+00 0.  1.
         14    1    4    4    0    0 -0.79120716722E+01  0.40172237435E+02 -0.66613202918E+02  0.78190334068E+02  0.00000000000E+00 0. -1.
         -5    1    5    5    0  502  0.31932989554E+02  0.38057030485E+02 -0.43168238696E+02  0.65982120482E+02  0.47000000000E+01 0.  1.
         13    1    6    6    0    0 -0.40168295714E+02 -0.57402105099E+02  0.56642836071E+00  0.70062932364E+02  0.00000000000E+00 0. -1.
        -14    1    6    6    0    0  0.35439680907E+02 -0.36448544549E+02 -0.24868756196E+02  0.56594367364E+02  0.00000000000E+00 0.  1.
</event>
<event>
12    1  0.8453150E-002  0.2931731E+03  0.7818608E-02  0.1088745E+00
         21   -1    0    0  501  502  0.00000000000E+00  0.00000000000E+00  0.16983260271E+04  0.16983260271E+04  0.00000000000E+00 0. -1.
         21   -1    0    0  502  503 -0.00000000000E+00 -0.00000000000E+00 -0.57953517808E+02  0.57953517808E+02  0.00000000000E+00 0.  1.
         -6    2    1    2    0  503 -0.21920484842E+03 -0.88556992563E+02  0.50602995414E+03  0.58466377153E+03  0.17283606322E+03 0.  0.
        -24    2    3    3    0    0 -0.16062258405E+03 -0.84879530823E+02  0.23652995757E+03  0.30880557685E+03  0.80064437812E+02 0.  0.
          6    2    1    2  501    0  0.21920484842E+03  0.88556992563E+02  0.11343425552E+04  0.11716157734E+04  0.17337064776E+03 0.  0.
         24    2    5    5    0    0  0.20834724902E+03  0.89699479362E+02  0.74922824020E+03  0.78631807247E+03  0.74152426896E+02 0.  0.
          5    1    5    5  501    0  0.10857599393E+02 -0.11424867987E+01  0.38511431500E+03  0.38529770095E+03  0.47000000000E+01 0. -1.
        -11    1    6    6    0    0  0.20987263642E+03  0.96963462709E+02  0.72340664550E+03  0.75945086172E+03  0.00000000000E+00 0.  1.
         12    1    6    6    0    0 -0.15253873945E+01 -0.72639833477E+01  0.25821594698E+02  0.26867210750E+02  0.00000000000E+00 0. -1.
         -5    1    3    3    0  503 -0.58582264363E+02 -0.36774617403E+01  0.26949999657E+03  0.27585819469E+03  0.47000000000E+01 0.  1.
         13    1    4    4    0    0 -0.78027606774E+01  0.75703270628E+01  0.47554366797E+02  0.48781253853E+02  0.00000000000E+00 0. -1.
        -14    1    4    4    0    0 -0.15281982338E+03 -0.92449857885E+02  0.18897559077E+03  0.26002432299E+03  0.00000000000E+00 0.  1.
</event>
<event>
12    1  0.8453150E-002  0.1867740E+03  0.7818608E-02  0.1162502E+00
         21   -1    0    0  503  502  0.00000000000E+00  0.00000000000E+00  0.13976831191E+03  0.13976831191E+03  0.00000000000E+00 0. -1.
         21   -1    0    0  501  503 -0.00000000000E+00 -0.00000000000E+00 -0.30826586232E+03  0.30826586232E+03  0.00000000000E+00 0. -1.
          6    2    1    2  501    0  0.40329061599E+02 -0.44884098616E+02  0.17699972398E+02  0.18761085512E+03  0.17675838995E+03 0.  0.
         24    2    3    3    0    0  0.51064194932E+02 -0.45369868522E+02 -0.50589024127E+02  0.11832192306E+03  0.82309483905E+02 0.  0.
         -6    2    1    2    0  502 -0.40329061599E+02  0.44884098616E+02 -0.18619752280E+03  0.26042331910E+03  0.17178408575E+03 0.  0.
        -24    2    5    5    0    0  0.12791827416E+02 -0.30048355248E+01 -0.16609350474E+03  0.18598246738E+03  0.82642398136E+02 0.  0.
          5    1    3    3  501    0 -0.10735133333E+02  0.48576990531E+00  0.68288996525E+02  0.69288932063E+02  0.47000000000E+01 0. -1.
        -11    1    4    4    0    0  0.77654915320E+01 -0.55253646641E+02 -0.48386741732E+02  0.73854892196E+02  0.00000000000E+00 0.  1.
         12    1    4    4    0    0  0.43298703400E+02  0.98837781199E+01 -0.22022823949E+01  0.44467030863E+02  0.00000000000E+00 0. -1.
         -5    1    5    5    0  502 -0.53120889015E+02  0.47888934141E+02 -0.20104018061E+02  0.74440851722E+02  0.47000000000E+01 0.  1.
         11    1    6    6    0    0  0.86357359056E+01 -0.40188207556E+02 -0.54365718692E+02  0.68156432786E+02  0.00000000000E+00 0. -1.
        -12    1    6    6    0    0  0.41560915101E+01  0.37183372031E+02 -0.11172778605E+03  0.11782603459E+03  0.00000000000E+00 0.  1.
</event>
<event>
12    1  0.8453150E-002  0.2234054E+03  0.7818608E-02  0.1131831E+00
         21   -1    0    0  501  502  0.00000000000E+00  0.00000000000E+00  0.14820788127E+04  0.14820788127E+04  0.00000000000E+00 0.  1.
         21   -1    0    0  502  503 -0.00000000000E+00 -0.00000000000E+00 -0.13504624660E+03  0.13504624660E+03  0.00000000000E+00 0.  1.
         -6    2    1    2    0  503  0.11673701912E+03  0.80237297495E+02 -0.27377620988E+02  0.22507669125E+03  0.17275539722E+03 0.  0.
        -24    2    3    3    0    0  0.14415046021E+03  0.45865354090E+02 -0.45172408877E+02  0.17741463378E+03  0.80947018906E+02 0.  0.
          6    2    1    2  501    0 -0.11673701912E+03 -0.80237297495E+02  0.13744101870E+04  0.13920483680E+04  0.16949849877E+03 0.  0.
         24    2    5    5    0    0 -0.14774072449E+03 -0.31074101952E+02  0.10300626131E+04  0.10427983269E+04  0.60053660730E+02 0.  0.
          5    1    5    5  501    0  0.31003705373E+02 -0.49163195543E+02  0.34434757398E+03  0.34925004116E+03  0.47000000000E+01 0. -1.
        -13    1    6    6    0    0 -0.99646656470E+02 -0.13955743439E+02  0.83979324948E+03  0.84579957483E+03  0.00000000000E+00 0.  1.
         14    1    6    6    0    0 -0.48094068024E+02 -0.17118358513E+02  0.19026936359E+03  0.19699875202E+03  0.00000000000E+00 0. -1.
         -5    1    3    3    0  503 -0.27413441091E+02  0.34371943405E+02  0.17794787889E+02  0.47662057467E+02  0.47000000000E+01 0.  1.
         11    1    4    4    0    0 -0.46263454057E+01 -0.20064049318E+01  0.10385027277E+02  0.11544588521E+02  0.00000000000E+00 0. -1.
        -12    1    4    4    0    0  0.14877680562E+03  0.47871759021E+02 -0.55557436155E+02  0.16587004526E+03  0.00000000000E+00 0.  1.
</event>
<event>
12    1  0.8453150E-002  0.1943546E+03  0.7818608E-02  0.1155162E+00
         21   -1    0    0  503  502  0.00000000000E+00  0.00000000000E+00  0.28842653590E+03  0.28842653590E+03  0.00000000000E+00 0.  1.
         21   -1    0    0  501  503 -0.00000000000E+00 -0.00000000000E+00 -0.14054347072E+03  0.14054347072E+03  0.00000000000E+00 0.  1.
          6    2    1    2  501    0 -0.83949711877E+02 -0.99773004776E+01  0.13525520288E+03  0.23678612770E+03  0.17500457055E+03 0.  0.
         24    2    3    3    0    0 -0.10696872478E+03  0.10644233843E+02  0.45943023626E+02  0.14216119443E+03  0.80891507516E+02 0.  0.
         -6    2    1    2    0  502  0.83949711877E+02  0.99773004776E+01  0.12627862304E+02  0.19218387893E+03  0.17212809116E+03 0.  0.
        -24    2    5    5    0    0  0.92543690394E+01 -0.32073253441E+02  0.48156996023E+02  0.99275038289E+02  0.80138006145E+02 0.  0.
          5    1    3    3  501    0  0.23019012900E+02 -0.20621534320E+02  0.89312179249E+02  0.94624933262E+02  0.47000000000E+01 0. -1.
        -13    1    4    4    0    0 -0.54107125938E+02 -0.74193488034E+01 -0.17764970106E+02  0.57430148674E+02  0.00000000000E+00 0.  1.
         14    1    4    4    0    0 -0.52861598840E+02  0.18063582646E+02  0.63707993733E+02  0.84731045759E+02  0.00000000000E+00 0. -1.
         -5    1    5    5    0  502  0.74695342837E+02  0.42050553918E+02 -0.35529133718E+02  0.92908840641E+02  0.47000000000E+01 0.  1.
         11    1    6    6    0    0  0.12478609298E+02 -0.38856558307E+02  0.67302295606E+02  0.78709254903E+02  0.00000000000E+00 0. -1.
        -12    1    6    6    0    0 -0.32242402589E+01  0.67833048665E+01 -0.19145299584E+02  0.20565783387E+02  0.00000000000E+00 0.  1.
</event>
<event>
12    1  0.8453150E-002  0.3731174E+03  0.7818608E-02  0.1053523E+00
         21   -1    0    0  503  502  0.00000000000E+00  0.00000000000E+00  0.34611886805E+03  0.34611886805E+03  0.00000000000E+00 0. -1.
         21   -1    0    0  501  503 -0.00000000000E+00 -0.00000000000E+00 -0.41044482897E+03  0.41044482897E+03  0.00000000000E+00 0.  1.
          6    2    1    2  501    0 -0.27168904065E+03 -0.18911684417E+03 -0.86276537941E+02  0.38296246432E+03  0.17215252691E+03 0.  0.
         24    2    3    3    0    0 -0.15880983810E+03 -0.12653658857E+03  0.15341203346E+02  0.21862665537E+03  0.79562484840E+02 0.  0.
         -6    2    1    2    0  502  0.27168904065E+03  0.18911684417E+03  0.21950577020E+02  0.37360123271E+03  0.17180203052E+03 0.  0.
        -24    2    5    5    0    0  0.66303916906E+02  0.88852746972E+02 -0.28878999584E+02  0.13941823994E+03  0.79450795910E+02 0.  0.
          5    1    3    3  501    0 -0.11287920255E+03 -0.62580255598E+02 -0.10161774129E+03  0.16433580895E+03  0.47000000000E+01 0. -1.
        -11    1    4    4    0    0  0.58675288174E+01 -0.20942383999E+02 -0.37630536610E+01  0.22071971250E+02  0.00000000000E+00 0.  1.
         12    1    4    4    0    0 -0.16467736692E+03 -0.10559420457E+03  0.19104257007E+02  0.19655468412E+03  0.00000000000E+00 0. -1.
         -5    1    5    5    0  502  0.20538512374E+03  0.10026409719E+03  0.50829576604E+02  0.23418299276E+03  0.47000000000E+01 0.  1.
         11    1    6    6    0    0  0.60200302289E+02  0.17074828379E+02 -0.22447963220E+01  0.62615215965E+02  0.00000000000E+00 0. -1.
        -12    1    6    6    0    0  0.61036146173E+01  0.71777918593E+02 -0.26634203262E+02  0.76803023979E+02  0.00000000000E+00 0.  1.
</event>
<event>
12    1  0.8453150E-002  0.1885651E+03  0.7818608E-02  0.1160131E+00
         21   -1    0    0  503  502  0.00000000000E+00  0.00000000000E+00  0.69819981399E+02  0.69819981399E+02  0.00000000000E+00 0.  1.
         21   -1    0    0  501  503 -0.00000000000E+00 -0.00000000000E+00 -0.71604989891E+03  0.71604989891E+03  0.00000000000E+00 0. -1.
          6    2    1    2  501    0  0.40912214635E+01 -0.74850308886E+02 -0.11072626722E+03  0.21867125426E+03  0.17302457732E+03 0.  0.
         24    2    3    3    0    0 -0.50990661668E+02 -0.86361288258E+02 -0.45270082431E+02  0.13222405291E+03  0.73317802180E+02 0.  0.
         -6    2    1    2    0  502 -0.40912214635E+01  0.74850308886E+02 -0.53550365030E+03  0.56719862605E+03  0.17126241584E+03 0.  0.
        -24    2    5    5    0    0 -0.26198230485E+02 -0.20681341868E+02 -0.26073100257E+03  0.27541597735E+03  0.82214595406E+02 0.  0.
          5    1    3    3  501    0  0.55081883131E+02  0.11510979372E+02 -0.65456184789E+02  0.86447201358E+02  0.47000000000E+01 0. -1.
        -13    1    4    4    0    0 -0.12249890385E+02 -0.28255408481E+02  0.19929686582E+02  0.36682697967E+02  0.00000000000E+00 0.  1.
         14    1    4    4    0    0 -0.38740771283E+02 -0.58105879777E+02 -0.65199769012E+02  0.95541354939E+02  0.00000000000E+00 0. -1.
         -5    1    5    5    0  502  0.22107009022E+02  0.95531650754E+02 -0.27477264772E+03  0.29178264870E+03  0.47000000000E+01 0.  1.
         11    1    6    6    0    0 -0.23638395612E+00  0.28193102567E+02 -0.13701888431E+03  0.13988953344E+03  0.00000000000E+00 0. -1.
        -12    1    6    6    0    0 -0.25961846529E+02 -0.48874444434E+02 -0.12371211826E+03  0.13552644391E+03  0.00000000000E+00 0.  1.
</event>
<event>
12    1  0.8453150E-002  0.2080335E+03  0.7818608E-02  0.1143482E+00
         21   -1    0    0  501  502  0.00000000000E+00  0.00000000000E+00  0.53488698163E+02  0.53488698163E+02  0.00000000000E+00 0. -1.
         21   -1    0    0  502  503 -0.00000000000E+00 -0.00000000000E+00 -0.25792772085E+04  0.25792772085E+04  0.00000000000E+00 0.  1.
         -6    2    1    2    0  503 -0.11041806049E+03  0.31676491015E+02 -0.23538574347E+04  0.23628803073E+04  0.17135628162E+03 0.  0.
        -24    2    3    3    0    0 -0.35665994991E+02 -0.45212734978E+02 -0.10534661707E+04  0.10580663918E+04  0.79982886196E+02 0.  0.
          6    2    1    2  501    0  0.11041806049E+03 -0.31676491015E+02 -0.17193107559E+03  0.26988559938E+03  0.17344276819E+03 0.  0.
         24    2    5    5    0    0  0.62599152829E+02 -0.70302694810E+02 -0.50081602866E+02  0.13332786232E+03  0.80043919771E+02 0.  0.
          5    1    5    5  501    0  0.47818907661E+02  0.38626203795E+02 -0.12184947273E+03  0.13655773707E+03  0.47000000000E+01 0. -1.
        -13    1    6    6    0    0  0.64091361215E+02 -0.33131465709E+02 -0.61083923975E+02  0.94533816016E+02  0.00000000000E+00 0.  1.
         14    1    6    6    0    0 -0.14922083859E+01 -0.37171229101E+02  0.11002321109E+02  0.38794046302E+02  0.00000000000E+00 0. -1.
         -5    1    3    3    0  503 -0.74752065498E+02  0.76889225993E+02 -0.13003912641E+04  0.13048139155E+04  0.47000000000E+01 0.  1.
         13    1    4    4    0    0 -0.30475041005E+02  0.17397070875E+02 -0.32165349249E+03  0.32356198082E+03  0.00000000000E+00 0. -1.
        -14    1    4    4    0    0 -0.51909539864E+01 -0.62609805852E+02 -0.73181267818E+03  0.73450441098E+03  0.00000000000E+00 0.  1.
</event>
<event>
12    1  0.8453150E-002  0.2191468E+03  0.7818608E-02  0.1134572E+00
         21   -1    0    0  503  502  0.00000000000E+00  0.00000000000E+00  0.62837761768E+02  0.62837761768E+02  0.00000000000E+00 0. -1.
         21   -1    0    0  501  503 -0.00000000000E+00 -0.00000000000E+00 -0.86800194749E+03  0.86800194749E+03  0.00000000000E+00 0.  1.
          6    2    1    2  501    0 -0.12987157804E+03  0.38410860753E+02 -0.24074054440E+03  0.32536522301E+03  0.17194329769E+03 0.  0.
         24    2    3    3    0    0 -0.12766774071E+03  0.82514123625E+02 -0.21359357091E+03  0.27331714077E+03  0.77281390332E+02 0.  0.
         -6    2    1    2    0  502  0.12987157804E+03 -0.38410860753E+02 -0.56442364132E+03  0.60547448624E+03  0.17228837920E+03 0.  0.
        -24    2    5    5    0    0  0.54671294990E+02  0.39773730018E+02 -0.34237690625E+03  0.35830095336E+03  0.81158654177E+02 0.  0.
          5    1    3    3  501    0 -0.22038373368E+01 -0.44103262872E+02 -0.27146973490E+02  0.52048082238E+02  0.47000000000E+01 0. -1.
        -13    1    4    4    0    0 -0.22817121530E+02 -0.11690154887E+02 -0.57752799729E+02  0.63187551249E+02  0.00000000000E+00 0.  1.
         14    1    4    4    0    0 -0.10485061918E+03  0.94204278513E+02 -0.15584077118E+03  0.21012958953E+03  0.00000000000E+00 0. -1.
         -5    1    5    5    0  502  0.75200283053E+02 -0.78184590772E+02 -0.22204673507E+03  0.24717353289E+03  0.47000000000E+01 0.  1.
         13    1    6    6    0    0  0.72268911600E+02  0.30745824638E+02 -0.20538804313E+03  0.21989167692E+03  0.00000000000E+00 0. -1.
        -14    1    6    6    0    0 -0.17597616610E+02  0.90279053803E+01 -0.13698886311E+03  0.13840927643E+03  0.00000000000E+00 0.  1.
</event>
<event>
12    1  0.8453150E-002  0.1973010E+03  0.7818608E-02  0.1152243E+00
         21   -1    0    0  501  502  0.00000000000E+00  0.00000000000E+00  0.25102466137E+03  0.25102466137E+03  0.00000000000E+00 0.  1.
         21   -1    0    0  502  503 -0.00000000000E+00 -0.00000000000E+00 -0.70905896752E+03  0.70905896752E+03  0.00000000000E+00 0.  1.
         -6    2    1    2    0  503 -0.37436825494E+01  0.94020422530E+02 -0.65373931624E+03  0.68286367365E+03  0.17341813106E+03 0.  0.
        -24    2    3    3    0    0 -0.10501699713E+02  0.72457101348E+01 -0.49938657830E+03  0.50560008682E+03  0.77985301125E+02 0.  0.
          6    2    1    2  501    0  0.37436825494E+01 -0.94020422530E+02  0.19570501008E+03  0.27721995524E+03  0.17232700775E+03 0.  0.
         24    2    5    5    0    0  0.72891387059E+02 -0.47804167014E+02  0.57936037019E+02  0.11622390792E+03  0.50527415287E+02 0.  0.
          5    1    5    5  501    0 -0.69147704510E+02 -0.46216255516E+02  0.13776897307E+03  0.16099604732E+03  0.47000000000E+01 0. -1.
        -11    1    6    6    0    0  0.71911892059E+02 -0.49190744378E+02  0.65163654137E+02  0.10879959270E+03  0.00000000000E+00 0.  1.
         12    1    6    6    0    0  0.97949500066E+00  0.13865773643E+01 -0.72276171180E+01  0.74243152175E+01  0.00000000000E+00 0. -1.
         -5    1    3    3    0  503  0.67580171632E+01  0.86774712395E+02 -0.15435273794E+03  0.17726358683E+03  0.47000000000E+01 0.  1.
         11    1    4    4    0    0 -0.34310583101E+02 -0.21745458967E+02 -0.22167348500E+03  0.22536462688E+03  0.00000000000E+00 0. -1.
        -12    1    4    4    0    0  0.23808883388E+02  0.28991169102E+02 -0.27771309330E+03  0.28023545994E+03  0.00000000000E+00 0.  1.
</event>
<event>
12    1  0.8453150E-002  0.1825776E+03  0.7818608E-02  0.1167498E+00
         21   -1    0    0  503  502  0.00000000000E+00  0.00000000000E+00  0.99095356218E+02  0.99095356218E+02  0.00000000000E+00 0. -1.
         21   -1    0    0  501  503 -0.00000000000E+00 -0.00000000000E+00 -0.42493687352E+03  0.42493687352E+03  0.00000000000E+00 0.  1.
          6    2    1    2  501    0 -0.20829461265E+02  0.63381607629E+02 -0.29601646492E+03  0.34779350971E+03  0.16995141438E+03 0.  0.
         24    2    3    3    0    0 -0.27094933513E+02 -0.13159282767E+02 -0.73827983265E+02  0.11266040820E+03  0.79589536487E+02 0.  0.
         -6    2    1    2    0  502  0.20829461265E+02 -0.63381607629E+02 -0.29825052389E+02  0.17623872003E+03  0.16037287192E+03 0.  0.
        -24    2    5    5    0    0 -0.11759828350E+02  0.20018053019E+02 -0.38991099344E+02  0.86107307027E+02  0.73178866388E+02 0.  0.
          5    1    3    3  501    0  0.62654722476E+01  0.76540890396E+02 -0.22218848165E+03  0.23513310151E+03  0.47000000000E+01 0. -1.
        -13    1    4    4    0    0  0.44343398729E+01  0.30704120245E+02 -0.24965838340E+02  0.39820841957E+02  0.00000000000E+00 0.  1.
         14    1    4    4    0    0 -0.31529273385E+02 -0.43863403012E+02 -0.48862144925E+02  0.72839566245E+02  0.00000000000E+00 0. -1.
         -5    1    5    5    0  502  0.32589289615E+02 -0.83399660648E+02  0.91660469554E+01  0.90131413007E+02  0.47000000000E+01 0.  1.
         11    1    6    6    0    0  0.30815178465E+02  0.59491214116E+01 -0.21167557328E+02  0.37855419065E+02  0.00000000000E+00 0. -1.
        -12    1    6    6    0    0 -0.42575006815E+02  0.14068931607E+02 -0.17823542016E+02  0.48251887961E+02  0.00000000000E+00 0.  1.
</event>
<event>
12    1  0.8453150E-002  0.2259045E+03  0.7818608E-02  0.1129601E+00
         21   -1    0    0  501  502  0.00000000000E+00  0.00000000000E+00  0.48316862843E+02  0.48316862843E+02  0.00000000000E+00 0.  1.
         21   -1    0    0  502  503 -0.00000000000E+00 -0.00000000000E+00 -0.11899506069E+04  0.11899506069E+04  0.00000000000E+00 0.  1.
         -6    2    1    2    0  503 -0.13749303303E+03  0.51464252089E+02 -0.77955936299E+03  0.81163146144E+03  0.17169719102E+03 0.  0.
        -24    2    3    3    0    0 -0.21352200091E+02  0.20875899700E+02 -0.50029393641E+03  0.50759921174E+03  0.80443876788E+02 0.  0.
          6    2    1    2  501    0  0.13749303303E+03 -0.51464252089E+02 -0.36207438109E+03  0.42663600832E+03  0.17136955034E+03 0.  0.
         24    2    5    5    0    0  0.14581074735E+03 -0.80972129508E+02 -0.33994314882E+03  0.38853376898E+03  0.87062537339E+02 0.  0.
          5    1    5    5  501    0 -0.83177143220E+01  0.29507877419E+02 -0.22131232268E+02  0.38102239344E+02  0.47000000000E+01 0. -1.
        -13    1    6    6    0    0  0.13171212183E+03 -0.54883834679E+02 -0.20122633607E+03  0.24668270445E+03  0.00000000000E+00 0.  1.
         14    1    6    6    0    0  0.14098625517E+02 -0.26088294828E+02 -0.13871681275E+03  0.14185106453E+03  0.00000000000E+00 0. -1.
         -5    1    3    3    0  503 -0.11614083293E+03  0.30588352389E+02 -0.27926542658E+03  0.30403224970E+03  0.47000000000E+01 0.  1.
         11    1    4    4    0    0 -0.22727633957E+00 -0.25786101501E+02 -0.29052745748E+03  0.29166963886E+03  0.00000000000E+00 0. -1.
        -12    1    4    4    0    0 -0.21124923751E+02  0.46662001200E+02 -0.20976647893E+03  0.21592957287E+03  0.00000000000E+00 0.  1.
</event>
<event>
12    1  0.8453150E-002  0.1987124E+03  0.7818608E-02  0.1151117E+00
         21   -1    0    0  503  502  0.00000000000E+00  0.00000000000E+00  0.29185868031E+03  0.29185868031E+03  0.00000000000E+00 0.  1.
         21   -1    0    0  501  503 -0.00000000000E+00 -0.00000000000E+00 -0.13438205850E+03  0.13438205850E+03  0.00000000000E+00 0.  1.
          6    2    1    2  501    0  0.34978030415E+02 -0.93588261212E+02  0.79441278616E+02  0.21275503144E+03  0.17021034459E+03 0.  0.
         24    2    3    3    0    0  0.28968641165E+01 -0.11419120909E+02 -0.49759011613E+01  0.90569438625E+02  0.89662006872E+02 0.  0.
         -6    2    1    2    0  502 -0.34978030415E+02  0.93588261212E+02  0.78035343196E+02  0.21348570738E+03  0.17176846980E+03 0.  0.
        -24    2    5    5    0    0 -0.32392723084E+02 -0.98375604597E+00 -0.70872341424E+01  0.86133858413E+02  0.79489347667E+02 0.  0.
          5    1    3    3  501    0  0.32081166298E+02 -0.82169140303E+02  0.84417179777E+02  0.12218559281E+03  0.47000000000E+01 0. -1.
        -13    1    4    4    0    0  0.45353570042E+01 -0.43606416609E+02 -0.27041538305E+02  0.51510521513E+02  0.00000000000E+00 0.  1.
         14    1    4    4    0    0 -0.16384928877E+01  0.32187295699E+02  0.22065637144E+02  0.39058917112E+02  0.00000000000E+00 0. -1.
         -5    1    5    5    0  502 -0.25853073307E+01  0.94572017258E+02  0.85122577339E+02  0.12735184897E+03  0.47000000000E+01 0.  1.
         11    1    6    6    0    0 -0.40122072401E+02  0.15157440848E+02  0.24817623653E+02  0.49552428302E+02  0.00000000000E+00 0. -1.
        -12    1    6    6    0    0  0.77293493169E+01 -0.16141196894E+02 -0.31904857796E+02  0.36581430111E+02  0.00000000000E+00 0.  1.
</event>
<event>
12    1  0.8453150E-002  0.2221584E+03  0.7818608E-02  0.1134132E+00
         21   -1    0    0  503  502  0.00000000000E+00  0.00000000000E+00  0.10247747375E+03  0.10247747375E+03  0.00000000000E+00 0.  1.
         21   -1    0    0  501  503 -0.00000000000E+00 -0.00000000000E+00 -0.50050951801E+03  0.50050951801E+03  0.00000000000E+00 0.  1.
          6    2    1    2  501    0 -0.13814878712E+03  0.26504981187E+02 -0.10977173427E+03  0.23905240708E+03  0.15908682622E+03 0.  0.
         24    2    3    3    0    0 -0.11867775562E+03  0.32695969450E+02 -0.13814745553E+03  0.20377180391E+03  0.85350995908E+02 0.  0.
         -6    2    1    2    0  502  0.13814878712E+03 -0.26504981187E+02 -0.28826030998E+03  0.36393458468E+03  0.17194991773E+03 0.  0.
        -24    2    5    5    0    0  0.10126510111E+03 -0.21682605234E+02 -0.29762252690E+03  0.32529001574E+03  0.80682524415E+02 0.  0.
          5    1    3    3  501    0 -0.19471031495E+02 -0.61909882628E+01  0.28375721258E+02  0.35280603170E+02  0.47000000000E+01 0. -1.
        -11    1    4    4    0    0 -0.66369002208E+02 -0.23677624792E+02 -0.47914702956E+02  0.85213221563E+02  0.00000000000E+00 0.  1.
         12    1    4    4    0    0 -0.52308753416E+02  0.56373594242E+02 -0.90232752576E+02  0.11855858235E+03  0.00000000000E+00 0. -1.
         -5    1    5    5    0  502  0.36883686006E+02 -0.48223759533E+01  0.93622169196E+01  0.38644568944E+02  0.47000000000E+01 0.  1.
         11    1    6    6    0    0  0.23717811086E+01 -0.16108463190E+02 -0.12669561099E+03  0.12773756603E+03  0.00000000000E+00 0. -1.
        -12    1    6    6    0    0  0.98893320004E+02 -0.55741420439E+01 -0.17092691591E+03  0.19755244970E+03  0.00000000000E+00 0.  1.
</event>
<event>
12    1  0.8453150E-002  0.2310046E+03  0.7818608E-02  0.1125991E+00
         21   -1    0    0  503  502  0.00000000000E+00  0.00000000000E+00  0.29801219523E+03  0.29801219523E+03  0.00000000000E+00 0. -1.
         21   -1    0    0  501  503 -0.00000000000E+00 -0.00000000000E+00 -0.23324064411E+03  0.23324064411E+03  0.00000000000E+00 0.  1.
          6    2    1    2  501    0  0.32978463703E+01  0.15701985126E+03 -0.95947421503E+02  0.24983909175E+03  0.16896021601E+03 0.  0.
         24    2    3    3    0    0 -0.42148124332E+02  0.29083242539E+02 -0.48752891665E+02  0.10602488609E+03  0.79007168298E+02 0.  0.
         -6    2    1    2    0  502 -0.32978463703E+01 -0.15701985126E+03  0.16071897263E+03  0.28141374759E+03  0.16940188809E+03 0.  0.
        -24    2    5    5    0    0  0.53093504992E+02 -0.51565798371E+02  0.57260954932E+02  0.12321705608E+03  0.80160302608E+02 0.  0.
          5    1    3    3  501    0  0.45445970702E+02  0.12793660873E+03 -0.47194529838E+02  0.14381420567E+03  0.47000000000E+01 0. -1.
        -13    1    4    4    0    0 -0.50706099496E+02  0.50115803918E+02 -0.34364478175E+02  0.79143033102E+02  0.00000000000E+00 0.  1.
         14    1    4    4    0    0  0.85579751640E+01 -0.21032561379E+02 -0.14388413490E+02  0.26881852983E+02  0.00000000000E+00 0. -1.
         -5    1    5    5    0  502 -0.56391351362E+02 -0.10545405289E+03  0.10345801770E+03  0.15819669151E+03  0.47000000000E+01 0.  1.
         11    1    6    6    0    0  0.45322892053E+02  0.58233832377E+01  0.44770700540E+02  0.63972587592E+02  0.00000000000E+00 0. -1.
        -12    1    6    6    0    0  0.77706129393E+01 -0.57389181608E+02  0.12490254393E+02  0.59244468484E+02  0.00000000000E+00 0.  1.
</event>
<event>
12    1  0.8453150E-002  0.1944469E+03  0.7818608E-02  0.1155183E+00
         21   -1    0    0  503  502  0.00000000000E+00  0.00000000000E+00  0.18601460193E+03  0.18601460193E+03  0.00000000000E+00 0. -1.
         21   -1    0    0  501  503 -0.00000000000E+00 -0.00000000000E+00 -0.29044888796E+03  0.29044888796E+03  0.00000000000E+00 0. -1.
          6    2    1    2  501    0 -0.22468440729E+02 -0.84410941311E+02  0.80374980941E+02  0.21040377851E+03  0.17372269457E+03 0.  0.
         24    2    3    3    0    0 -0.40339438617E+02 -0.57047975317E+02  0.11943028688E+03  0.15926170781E+03  0.78860359835E+02 0.  0.
         -6    2    1    2    0  502  0.22468440729E+02  0.84410941311E+02 -0.18480926697E+03  0.26605971138E+03  0.17030345569E+03 0.  0.
        -24    2    5    5    0    0 -0.39215640237E+02  0.91919678542E+02 -0.10359570091E+03  0.16369252772E+03  0.77949218341E+02 0.  0.
          5    1    3    3  501    0  0.17870997887E+02 -0.27362965994E+02 -0.39055305944E+02  0.51142070704E+02  0.47000000000E+01 0. -1.
        -11    1    4    4    0    0 -0.78073224138E+01  0.12888032377E+02 -0.22082949677E+01  0.15229321340E+02  0.00000000000E+00 0.  1.
         12    1    4    4    0    0 -0.32532116203E+02 -0.69936007694E+02  0.12163858185E+03  0.14403238647E+03  0.00000000000E+00 0. -1.
         -5    1    5    5    0  502  0.61684080966E+02 -0.75087372309E+01 -0.81213566062E+02  0.10236718367E+03  0.47000000000E+01 0.  1.
         13    1    6    6    0    0  0.11677958538E+02 -0.77436355478E+01 -0.17962101160E+02  0.22781037843E+02  0.00000000000E+00 0. -1.
        -14    1    6    6    0    0 -0.50893598775E+02  0.99663314089E+02 -0.85633599753E+02  0.14091148987E+03  0.00000000000E+00 0.  1.
</event>
<event>
12    1  0.8453150E-002  0.2172031E+03  0.7818608E-02  0.1136083E+00
         21   -1    0    0  503  502  0.00000000000E+00  0.00000000000E+00  0.77738361909E+02  0.77738361909E+02  0.00000000000E+00 0.  1.
         21   -1    0    0  501  503 -0.00000000000E+00 -0.00000000000E+00 -0.71373817664E+03  0.71373817664E+03  0.00000000000E+00 0. -1.
          6    2    1    2  501    0 -0.11305337916E+03  0.66894767479E+02 -0.47183136385E+03  0.51921110207E+03  0.17233501135E+03 0.  0.
         24    2    3    3    0    0 -0.59094662572E+02  0.10110545966E+03 -0.24033177127E+03  0.27901104811E+03  0.79833023048E+02 0.  0.
         -6    2    1    2    0  502  0.11305337916E+03 -0.66894767479E+02 -0.16416845087E+03  0.27226543648E+03  0.17297748750E+03 0.  0.
        -24    2    5    5    0    0  0.14210410265E+03 -0.32593350018E+02 -0.91947393103E+02  0.18706858818E+03  0.72694092807E+02 0.  0.
          5    1    3    3  501    0 -0.53958716588E+02 -0.34210692176E+02 -0.23149959258E+03  0.24020005395E+03  0.47000000000E+01 0. -1.
        -11    1    4    4    0    0 -0.37583638399E+01  0.61252185429E+02 -0.17136764737E+03  0.18202424587E+03  0.00000000000E+00 0.  1.
         12    1    4    4    0    0 -0.55336298732E+02  0.39853274226E+02 -0.68964123903E+02  0.96986802244E+02  0.00000000000E+00 0. -1.
         -5    1    5    5    0  502 -0.29050723488E+02 -0.34301417461E+02 -0.72221057772E+02  0.85196848303E+02  0.47000000000E+01 0.  1.
         11    1    6    6    0    0 -0.27577139554E+01  0.11215926288E+02 -0.72959415130E+01  0.13661359791E+02  0.00000000000E+00 0. -1.
        -12    1    6    6    0    0  0.14486181660E+03 -0.43809276306E+02 -0.84651451590E+02  0.17340722839E+03  0.00000000000E+00 0.  1.
</event>
<event>
12    1  0.8453150E-002  0.2026604E+03  0.7818608E-02  0.1149551E+00
         21   -1    0    0  501  502  0.00000000000E+00  0.00000000000E+00  0.35006250387E+02  0.35006250387E+02  0.00000000000E+00 0.  1.
         21   -1    0    0  502  503 -0.00000000000E+00 -0.00000000000E+00 -0.11347139564E+04  0.11347139564E+04  0.00000000000E+00 0. -1.
         -6    2    1    2    0  503  0.90785551834E+02  0.22936315898E+02 -0.46677620925E+03  0.50513499056E+03  0.16885863364E+03 0.  0.
        -24    2    3    3    0    0  0.31639552476E+02  0.79694577012E+01 -0.41830847547E+03  0.42707432631E+03  0.79661320670E+02 0.  0.
          6    2    1    2  501    0 -0.90785551834E+02 -0.22936315898E+02 -0.63293149678E+03  0.66458521625E+03  0.17973074035E+03 0.  0.
         24    2    5    5    0    0  0.11042372832E+02 -0.26633904696E+02 -0.15744568467E+03  0.17828135453E+03  0.78509864816E+02 0.  0.
          5    1    5    5  501    0 -0.10182792467E+03  0.36975887978E+01 -0.47548581211E+03  0.48630386172E+03  0.47000000000E+01 0. -1.
        -11    1    6    6    0    0 -0.27673148051E+02 -0.34210071284E+02 -0.88920233409E+02  0.99211592114E+02  0.00000000000E+00 0.  1.
         12    1    6    6    0    0  0.38715520883E+02  0.75761665880E+01 -0.68525451261E+02  0.79069762412E+02  0.00000000000E+00 0. -1.
         -5    1    3    3    0  503  0.59145999358E+02  0.14966858197E+02 -0.48467733780E+02  0.78060664243E+02  0.47000000000E+01 0.  1.
         13    1    4    4    0    0  0.57532113644E+02  0.58275015826E+01 -0.23915623766E+03  0.24604798289E+03  0.00000000000E+00 0. -1.
        -14    1    4    4    0    0 -0.25892561168E+02  0.21419561186E+01 -0.17915223781E+03  0.18102634342E+03  0.00000000000E+00 0.  1.
</event>
<event>
12    1  0.8453150E-002  0.2029076E+03  0.7818608E-02  0.1147621E+00
         21   -1    0    0  503  502  0.00000000000E+00  0.00000000000E+00  0.32376770887E+03  0.32376770887E+03  0.00000000000E+00 0. -1.
         21   -1    0    0  501  503 -0.00000000000E+00 -0.00000000000E+00 -0.14897133556E+03  0.14897133556E+03  0.00000000000E+00 0. -1.
          6    2    1    2  501    0  0.18586686359E+02 -0.10379446414E+03 -0.46891192779E+01  0.20296180881E+03  0.17335729664E+03 0.  0.
         24    2    3    3    0    0  0.27241457323E+02 -0.12545599259E+03  0.36483617753E+02  0.15540751194E+03  0.79618699627E+02 0.  0.
         -6    2    1    2    0  502 -0.18586686359E+02  0.10379446414E+03  0.17948549260E+03  0.26977723562E+03  0.17159824915E+03 0.  0.
        -24    2    5    5    0    0  0.34131486695E+02  0.10844586214E+03  0.16278341101E+03  0.21408261467E+03  0.80046633943E+02 0.  0.
          5    1    3    3  501    0 -0.86547709638E+01  0.21661528456E+02 -0.41172737031E+02  0.47554296863E+02  0.47000000000E+01 0. -1.
        -13    1    4    4    0    0  0.31938042109E+02 -0.72557618213E+01  0.89290659864E+01  0.33947206553E+02  0.00000000000E+00 0.  1.
         14    1    4    4    0    0 -0.46965847859E+01 -0.11820023077E+03  0.27554551767E+02  0.12146030539E+03  0.00000000000E+00 0. -1.
         -5    1    5    5    0  502 -0.52718173055E+02 -0.46513980005E+01  0.16702081586E+02  0.55694620951E+02  0.47000000000E+01 0.  1.
         13    1    6    6    0    0 -0.26084532842E+02  0.26013263716E+02  0.39300067182E+02  0.53866390479E+02  0.00000000000E+00 0. -1.
        -14    1    6    6    0    0  0.60216019537E+02  0.82432598420E+02  0.12348334383E+03  0.16021622419E+03  0.00000000000E+00 0.  1.
</event>
<event>
12    1  0.8453150E-002  0.2167951E+03  0.7818608E-02  0.1136537E+00
         21   -1    0    0  503  502  0.00000000000E+00  0.00000000000E+00  0.96979066929E+03  0.96979066929E+03  0.00000000000E+00 0. -1.
         21   -1    0    0  501  503 -0.00000000000E+00 -0.00000000000E+00 -0.48466600019E+02  0.48466600019E+02  0.00000000000E+00 0. -1.
          6    2    1    2  501    0  0.12058912457E+03 -0.52112629818E+02  0.49837310308E+03  0.54298090339E+03  0.17086558582E+03 0.  0.
         24    2    3    3    0    0  0.10345204470E+03  0.27570244164E+02  0.32591334540E+03  0.35217341419E+03  0.79650241924E+02 0.  0.
         -6    2    1    2    0  502 -0.12058912457E+03  0.52112629818E+02  0.42295096619E+03  0.47527636592E+03  0.17246054927E+03 0.  0.
        -24    2    5    5    0    0 -0.12758145522E+03  0.19394782711E+02  0.21576335900E+03  0.26535222538E+03  0.84881040981E+02 0.  0.
          5    1    3    3  501    0  0.17137079864E+02 -0.79682873982E+02  0.17245975768E+03  0.19080748919E+03  0.47000000000E+01 0. -1.
        -11    1    4    4    0    0  0.28516803416E+02 -0.24863470709E+02  0.59610591675E+02  0.70603278200E+02  0.00000000000E+00 0.  1.
         12    1    4    4    0    0  0.74935241288E+02  0.52433714872E+02  0.26630275373E+03  0.28157013599E+03  0.00000000000E+00 0. -1.
         -5    1    5    5    0  502  0.69923306515E+01  0.32717847107E+02  0.20718760719E+03  0.20992414054E+03  0.47000000000E+01 0.  1.
         11    1    6    6    0    0 -0.12756391463E+03  0.31788551256E+02  0.15456871463E+03  0.20291513460E+03  0.00000000000E+00 0. -1.
        -12    1    6    6    0    0 -0.17540587306E-01 -0.12393768545E+02  0.61194644366E+02  0.62437090784E+02  0.00000000000E+00 0.  1.
</event>
<event>
12    1  0.8453150E-002  0.1730915E+03  0.7818608E-02  0.1174853E+00
         21   -1    0    0  501  502  0.00000000000E+00  0.00000000000E+00  0.41356398274E+03  0.41356398274E+03  0.00000000000E+00 0.  1.
         21   -1    0    0  502  503 -0.00000000000E+00 -0.00000000000E+00 -0.79568064848E+02  0.79568064848E+02  0.00000000000E+00 0.  1.
         -6    2    1    2    0  503  0.46620172485E+01 -0.17846038165E+02  0.91949351570E+02  0.19599838449E+03  0.17210597894E+03 0.  0.
        -24    2    3    3    0    0 -0.44393447603E+02  0.34957982870E+02  0.33199992170E+02  0.10289478360E+03  0.79323755937E+02 0.  0.
          6    2    1    2  501    0 -0.46620172485E+01  0.17846038165E+02  0.24204656632E+03  0.29713366309E+03  0.17135243795E+03 0.  0.
         24    2    5    5    0    0  0.64339546132E+01 -0.40325843665E+02  0.21367046284E+03  0.23129764198E+03  0.78587295770E+02 0.  0.
          5    1    5    5  501    0 -0.11095971862E+02  0.58171881830E+02  0.28376103483E+02  0.65836021114E+02  0.47000000000E+01 0. -1.
        -13    1    6    6    0    0 -0.99016213146E+01 -0.61234337247E+02  0.14923406688E+03  0.16161216811E+03  0.00000000000E+00 0.  1.
         14    1    6    6    0    0  0.16335575928E+02  0.20908493582E+02  0.64436395959E+02  0.69685473873E+02  0.00000000000E+00 0. -1.
         -5    1    3    3    0  503  0.49055464851E+02 -0.52804021035E+02  0.58749359399E+02  0.93103600892E+02  0.47000000000E+01 0.  1.
         13    1    4    4    0    0  0.20455493467E+02 -0.56848365589E+00  0.18328397594E+02  0.27471449634E+02  0.00000000000E+00 0. -1.
        -14    1    4    4    0    0 -0.64848941069E+02  0.35526466526E+02  0.14871594576E+02  0.75423333968E+02  0.00000000000E+00 0.  1.
</event>
<event>
12    1  0.8453150E-002  0.1904913E+03  0.7818608E-02  0.1158668E+00
         21   -1    0    0  503  502  0.00000000000E+00  0.00000000000E+00  0.13290165491E+04  0.13290165491E+04  0.00000000000E+00 0. -1.
         21   -1    0    0  501  503 -0.00000000000E+00 -0.00000000000E+00 -0.97627848865E+02  0.97627848865E+02  0.00000000000E+00 0. -1.
          6    2    1    2  501    0  0.73987925933E+02  0.21246540490E+02  0.72451574174E+01  0.18776815143E+03  0.17111036707E+03 0.  0.
         24    2    3    3    0    0  0.86240786846E+02 -0.22345593897E+02  0.47214991193E+02  0.12718692997E+03  0.77527162211E+02 0.  0.
         -6    2    1    2    0  502 -0.73987925933E+02 -0.21246540490E+02  0.12241435428E+04  0.12388762465E+04  0.17424497738E+03 0.  0.
        -24    2    5    5    0    0 -0.83238672837E+02 -0.41846819809E+02  0.11960837936E+04  0.12025528746E+04  0.82687010923E+02 0.  0.
          5    1    3    3  501    0 -0.12252860913E+02  0.43592134386E+02 -0.39969833776E+02  0.60581221455E+02  0.47000000000E+01 0. -1.
        -11    1    4    4    0    0  0.10399004483E+02 -0.24402696818E+02 -0.13731530200E+02  0.29869479872E+02  0.00000000000E+00 0.  1.
         12    1    4    4    0    0  0.75841782362E+02  0.20571029206E+01  0.60946521393E+02  0.97317450102E+02  0.00000000000E+00 0. -1.
         -5    1    5    5    0  502  0.92507469039E+01  0.20600279319E+02  0.28059749188E+02  0.36323371964E+02  0.47000000000E+01 0.  1.
         13    1    6    6    0    0 -0.59273144846E+02  0.15921819208E+02  0.53110580716E+03  0.53464024205E+03  0.00000000000E+00 0. -1.
        -14    1    6    6    0    0 -0.23965527991E+02 -0.57768639017E+02  0.66497798648E+03  0.66791263253E+03  0.00000000000E+00 0.  1.
</event>
<event>
12    1  0.8453150E-002  0.1897254E+03  0.7818608E-02  0.1159060E+00
         21   -1    0    0  501  502  0.00000000000E+00  0.00000000000E+00  0.57515284104E+03  0.57515284104E+03  0.00000000000E+00 0.  1.
         21   -1    0    0  502  503 -0.00000000000E+00 -0.00000000000E+00 -0.62365460381E+02  0.62365460381E+02  0.00000000000E+00 0.  1.
         -6    2    1    2    0  503 -0.29359266420E+01 -0.74636656768E+02  0.23573081274E+03  0.30259664332E+03  0.17440316015E+03 0.  0.
        -24    2    3    3    0    0  0.58198362133E+01 -0.47908548949E+02  0.25264201254E+03  0.26944345630E+03  0.80266369597E+02 0.  0.
          6    2    1    2  501    0  0.29359266420E+01  0.74636656768E+02  0.27705656792E+03  0.33492165810E+03  0.17272210352E+03 0.  0.
         24    2    5    5    0    0 -0.42359378225E+02  0.15695266508E+02  0.22697943371E+03  0.24516887821E+03  0.80916359287E+02 0.  0.
          5    1    5    5  501    0  0.45295304867E+02  0.58941390260E+02  0.50077134207E+02  0.89752779897E+02  0.47000000000E+01 0. -1.
        -11    1    6    6    0    0 -0.18246247642E+02 -0.32492994685E+02  0.71705279614E+02  0.80810688532E+02  0.00000000000E+00 0.  1.
         12    1    6    6    0    0 -0.24113130583E+02  0.48188261193E+02  0.15527415409E+03  0.16435818967E+03  0.00000000000E+00 0. -1.
         -5    1    3    3    0  503 -0.87557628553E+01 -0.26728107819E+02 -0.16911199795E+02  0.33153187015E+02  0.47000000000E+01 0.  1.
         11    1    4    4    0    0 -0.88091722610E+01 -0.16727878249E+02  0.51887067148E+01  0.19604746976E+02  0.00000000000E+00 0. -1.
        -12    1    4    4    0    0  0.14629008474E+02 -0.31180670700E+02  0.24745330582E+03  0.24983870932E+03  0.00000000000E+00 0.  1.
</event>
<event>
12    1  0.8453150E-002  0.1917968E+03  0.7818608E-02  0.1157007E+00
         21   -1    0    0  501  502  0.00000000000E+00  0.00000000000E+00  0.12000443261E+03  0.12000443261E+03  0.00000000000E+00 0.  1.
         21   -1    0    0  502  503 -0.00000000000E+00 -0.00000000000E+00 -0.30557752251E+03  0.30557752251E+03  0.00000000000E+00 0.  1.
         -6    2    1    2    0  503 -0.49027879909E+02  0.69210447508E+02 -0.97429043193E+02  0.21450045349E+03  0.17124312259E+03 0.  0.
        -24    2    3    3    0    0 -0.33658331623E+01  0.76531049231E+02 -0.11952278988E+03  0.16303359653E+03  0.80161873526E+02 0.  0.
          6    2    1    2  501    0  0.49027879909E+02 -0.69210447508E+02 -0.88144046706E+02  0.21108150163E+03  0.17202385970E+03 0.  0.
         24    2    5    5    0    0  0.57601711335E+02 -0.15939889536E+02  0.80549087640E+01  0.10068407428E+03  0.80624835074E+02 0.  0.
          5    1    5    5  501    0 -0.85738314263E+01 -0.53270557971E+02 -0.96198955470E+02  0.11039742735E+03  0.47000000000E+01 0. -1.
        -11    1    6    6    0    0  0.54159233422E+02  0.48305242011E+01 -0.26292565401E+02  0.60397479453E+02  0.00000000000E+00 0.  1.
         12    1    6    6    0    0  0.34424779136E+01 -0.20770413737E+02  0.34347474165E+02  0.40286594824E+02  0.00000000000E+00 0. -1.
         -5    1    3    3    0  503 -0.45662046747E+02 -0.73206017231E+01  0.22093746685E+02  0.51466856959E+02  0.47000000000E+01 0.  1.
         13    1    4    4    0    0  0.18702271725E+02  0.80509666452E+02 -0.68674987758E+02  0.10746085475E+03  0.00000000000E+00 0. -1.
        -14    1    4    4    0    0 -0.22068104887E+02 -0.39786172212E+01 -0.50847802120E+02  0.55572741778E+02  0.00000000000E+00 0.  1.
</event>
<event>
12    1  0.8453150E-002  0.2137770E+03  0.7818608E-02  0.1140162E+00
         21   -1    0    0  503  502  0.00000000000E+00  0.00000000000E+00  0.62674235003E+03  0.62674235003E+03  0.00000000000E+00 0. -1.
         21   -1    0    0  501  503 -0.00000000000E+00 -0.00000000000E+00 -0.91782740100E+02  0.91782740100E+02  0.00000000000E+00 0. -1.
          6    2    1    2  501    0 -0.11421973063E+03  0.53587168334E+02  0.97367384587E+02  0.23490635503E+03  0.17257710328E+03 0.  0.
         24    2    3    3    0    0 -0.40475902758E+02 -0.15319054928E+02  0.99164247296E+02  0.13385419786E+03  0.78806257336E+02 0.  0.
         -6    2    1    2    0  502  0.11421973063E+03 -0.53587168334E+02  0.43759222534E+03  0.48361873510E+03  0.16273411992E+03 0.  0.
        -24    2    5    5    0    0  0.78246787676E+02 -0.82563089203E+02  0.40117204417E+03  0.42460876805E+03  0.80089783379E+02 0.  0.
          5    1    3    3  501    0 -0.73743827867E+02  0.68906223262E+02 -0.17968627083E+01  0.10105215717E+03  0.47000000000E+01 0. -1.
        -11    1    4    4    0    0 -0.29147137866E+01 -0.41577808039E+02  0.32016314672E+02  0.52557150635E+02  0.00000000000E+00 0.  1.
         12    1    4    4    0    0 -0.37561188972E+02  0.26258753111E+02  0.67147932624E+02  0.81297047225E+02  0.00000000000E+00 0. -1.
         -5    1    5    5    0  502  0.35972942950E+02  0.28975920869E+02  0.36420181173E+02  0.59009967051E+02  0.47000000000E+01 0.  1.
         13    1    6    6    0    0  0.67289825194E+02 -0.26577693393E+02  0.29860201177E+03  0.30724168954E+03  0.00000000000E+00 0. -1.
        -14    1    6    6    0    0  0.10956962482E+02 -0.55985395810E+02  0.10257003241E+03  0.11736707851E+03  0.00000000000E+00 0.  1.
</event>
<event>
12    1  0.8453150E-002  0.2010719E+03  0.7818608E-02  0.1149128E+00
         21   -1    0    0  501  502  0.00000000000E+00  0.00000000000E+00  0.11909751386E+03  0.11909751386E+03  0.00000000000E+00 0.  1.
         21   -1    0    0  502  503 -0.00000000000E+00 -0.00000000000E+00 -0.39480137951E+03  0.39480137951E+03  0.00000000000E+00 0.  1.
         -6    2    1    2    0  503  0.48150317846E+02  0.90312228582E+02 -0.23564189227E+03  0.30887484260E+03  0.17146957531E+03 0.  0.
        -24    2    3    3    0    0 -0.70710173450E+01  0.29682708031E+02 -0.47801333459E+02  0.10385898917E+03  0.87009538029E+02 0.  0.
          6    2    1    2  501    0 -0.48150317846E+02 -0.90312228582E+02 -0.40061973383E+02  0.20502405077E+03  0.17307555559E+03 0.  0.
         24    2    5    5    0    0 -0.77187271149E+02 -0.15930784182E+02 -0.54398021318E+02  0.12376301338E+03  0.78399451816E+02 0.  0.
          5    1    5    5  501    0  0.29036953303E+02 -0.74381444400E+02  0.14336047935E+02  0.81261037395E+02  0.47000000000E+01 0. -1.
        -13    1    6    6    0    0 -0.37608773533E+01  0.18988515061E+02  0.83276638613E+01  0.21072681084E+02  0.00000000000E+00 0.  1.
         14    1    6    6    0    0 -0.73426393796E+02 -0.34919299243E+02 -0.62725685179E+02  0.10269033229E+03  0.00000000000E+00 0. -1.
         -5    1    3    3    0  503  0.55221335191E+02  0.60629520551E+02 -0.18784055881E+03  0.20501585343E+03  0.47000000000E+01 0.  1.
         13    1    4    4    0    0 -0.45050677463E+02  0.26402900238E+02 -0.37753428141E+02  0.64435999389E+02  0.00000000000E+00 0. -1.
        -14    1    4    4    0    0  0.37979660118E+02  0.32798077937E+01 -0.10047905319E+02  0.39422989779E+02  0.00000000000E+00 0.  1.
</event>
<event>
12    1  0.8453150E-002  0.1793333E+03  0.7818608E-02  0.1168972E+00
         21   -1    0    0  503  502  0.00000000000E+00  0.00000000000E+00  0.12883952796E+04  0.12883952796E+04  0.00000000000E+00 0.  1.
         21   -1    0    0  501  503 -0.00000000000E+00 -0.00000000000E+00 -0.43388079447E+02  0.43388079447E+02  0.00000000000E+00 0.  1.
          6    2    1    2  501    0  0.47488614895E+02  0.12140694198E+02  0.18297172422E+03  0.25471336139E+03  0.17028705060E+03 0.  0.
         24    2    3    3    0    0  0.50349258812E+02 -0.51309018488E+02  0.82884152189E+02  0.13608089787E+03  0.80501955508E+02 0.  0.
         -6    2    1    2    0  502 -0.47488614895E+02 -0.12140694198E+02  0.10620354759E+04  0.10770699976E+04  0.17250467450E+03 0.  0.
        -24    2    5    5    0    0 -0.92184689874E+02 -0.94283545796E+01  0.69461498939E+03  0.70690111750E+03  0.92910147611E+02 0.  0.
          5    1    3    3  501    0 -0.28606439167E+01  0.63449712687E+02  0.10008757203E+03  0.11863246351E+03  0.47000000000E+01 0. -1.
        -13    1    4    4    0    0  0.59455898958E+02 -0.52988058583E+02  0.92950477226E+02  0.12240314330E+03  0.00000000000E+00 0.  1.
         14    1    4    4    0    0 -0.91066401462E+01  0.16790400947E+01 -0.10066325037E+02  0.13677754572E+02  0.00000000000E+00 0. -1.
         -5    1    5    5    0  502  0.44696074979E+02 -0.27123396185E+01  0.36742048651E+03  0.37016888013E+03  0.47000000000E+01 0.  1.
         11    1    6    6    0    0  0.11567710317E+02 -0.89189864078E+01  0.22502970726E+02  0.26828043761E+02  0.00000000000E+00 0. -1.
        -12    1    6    6    0    0 -0.10375240019E+03 -0.50936817186E+00  0.67211201866E+03  0.68007307374E+03  0.00000000000E+00 0.  1.
</event>
<event>
12    1  0.8453150E-002  0.2042040E+03  0.7818608E-02  0.1146653E+00
         21   -1    0    0  503  502  0.00000000000E+00  0.00000000000E+00  0.16080299474E+03  0.16080299474E+03  0.00000000000E+00 0. -1.
         21   -1    0    0  501  503 -0.00000000000E+00 -0.00000000000E+00 -0.26085123471E+03  0.26085123471E+03  0.00000000000E+00 0. -1.
          6    2    1    2  501    0 -0.53839929488E+02  0.96073293144E+02 -0.23946644779E+02  0.20560329607E+03  0.17196062891E+03 0.  0.
         24    2    3    3    0    0 -0.41586235603E+02 -0.23284679906E+01 -0.49583376471E+02  0.10307334132E+03  0.80192055181E+02 0.  0.
         -6    2    1    2    0  502  0.53839929488E+02 -0.96073293144E+02 -0.76101595189E+02  0.21605093338E+03  0.16958106428E+03 0.  0.
        -24    2    5    5    0    0  0.14162457720E+02  0.98363091286E+01 -0.66044077596E+02  0.10240943885E+03  0.76344906801E+02 0.  0.
          5    1    3    3  501    0 -0.12253693885E+02  0.98401761135E+02  0.25636731693E+02  0.10252995475E+03  0.47000000000E+01 0. -1.
        -11    1    4    4    0    0 -0.40298693549E+02  0.34780522579E+02 -0.29310525979E+02  0.60768218551E+02  0.00000000000E+00 0.  1.
         12    1    4    4    0    0 -0.12875420542E+01 -0.37108990569E+02 -0.20272850492E+02  0.42305122771E+02  0.00000000000E+00 0. -1.
         -5    1    5    5    0  502  0.39677471768E+02 -0.10590960227E+03 -0.10057517592E+02  0.11364149453E+03  0.47000000000E+01 0.  1.
         13    1    6    6    0    0  0.31623121145E+02  0.24980357820E+01 -0.75019376442E+02  0.81450407092E+02  0.00000000000E+00 0. -1.
        -14    1    6    6    0    0 -0.17460663425E+02  0.73382733465E+01  0.89752988456E+01  0.20959031760E+02  0.00000000000E+00 0.  1.
</event>
<event>
12    1  0.8453150E-002  0.2329475E+03  0.7818608E-02  0.1124624E+00
         21   -1    0    0  501  502  0.00000000000E+00  0.00000000000E+00  0.13921440105E+03  0.13921440105E+03  0.00000000000E+00 0. -1.
         21   -1    0    0  502  503 -0.00000000000E+00 -0.00000000000E+00 -0.53495121182E+03  0.53495121182E+03  0.00000000000E+00 0.  1.
         -6    2    1    2    0  503 -0.14368231320E+03  0.61923922693E+02 -0.37362914730E+03  0.44017143558E+03  0.17225845019E+03 0.  0.
        -24    2    3    3    0    0 -0.61697750022E+01 -0.15555096912E+02 -0.14271201630E+03  0.16042600125E+03  0.71342519697E+02 0.  0.
          6    2    1    2  501    0  0.14368231320E+03 -0.61923922693E+02 -0.22107663470E+02  0.23399417730E+03  0.17258431823E+03 0.  0.
         24    2    5    5    0    0  0.14667391849E+02 -0.44436654030E+02  0.24249126266E+02  0.95712954966E+02  0.79894937377E+02 0.  0.
          5    1    5    5  501    0  0.12901492135E+03 -0.17487268663E+02 -0.46356789736E+02  0.13828122233E+03  0.47000000000E+01 0. -1.
        -11    1    6    6    0    0  0.72900376109E+01 -0.27594467498E+02 -0.28206935833E+02  0.40127677655E+02  0.00000000000E+00 0.  1.
         12    1    6    6    0    0  0.73773542386E+01 -0.16842186531E+02  0.52456062099E+02  0.55585277310E+02  0.00000000000E+00 0. -1.
         -5    1    3    3    0  503 -0.13751253819E+03  0.77479019605E+02 -0.23091713099E+03  0.27974543433E+03  0.47000000000E+01 0.  1.
         13    1    4    4    0    0  0.35260506729E+01  0.27670987489E+02 -0.42220943332E+02  0.50603603012E+02  0.00000000000E+00 0. -1.
        -14    1    4    4    0    0 -0.96958256752E+01 -0.43226084401E+02 -0.10049107297E+03  0.10982239824E+03  0.00000000000E+00 0.  1.
</event>
<event>
12    1  0.8453150E-002  0.2028461E+03  0.7818608E-02  0.1147688E+00
         21   -1    0    0  503  502  0.00000000000E+00  0.00000000000E+00  0.14740620164E+03  0.14740620164E+03  0.00000000000E+00 0. -1.
         21   -1    0    0  501  503 -0.00000000000E+00 -0.00000000000E+00 -0.86780358564E+03  0.86780358564E+03  0.00000000000E+00 0. -1.
          6    2    1    2  501    0 -0.10569730380E+03 -0.28518120710E+01 -0.77948561969E+03  0.80544669277E+03  0.17310832079E+03 0.  0.
         24    2    3    3    0    0 -0.37598540480E+02 -0.63358024377E+02 -0.35738387507E+03  0.37360133144E+03  0.80167519557E+02 0.  0.
         -6    2    1    2    0  502  0.10569730380E+03  0.28518120710E+01  0.59088235684E+02  0.20976309451E+03  0.17125736002E+03 0.  0.
        -24    2    5    5    0    0  0.50617701255E+00 -0.14067657903E+02  0.64308668078E+02  0.10298863814E+03  0.79201638763E+02 0.  0.
          5    1    3    3  501    0 -0.68098763316E+02  0.60506212306E+02 -0.42210174462E+03  0.43184536133E+03  0.47000000000E+01 0. -1.
        -13    1    4    4    0    0  0.24680028177E+02 -0.16341393527E+02 -0.12535541358E+03  0.12880265776E+03  0.00000000000E+00 0.  1.
         14    1    4    4    0    0 -0.62278568658E+02 -0.47016630850E+02 -0.23202846149E+03  0.24479867367E+03  0.00000000000E+00 0. -1.
         -5    1    5    5    0  502  0.10519112678E+03  0.16919469974E+02 -0.52204323942E+01  0.10677445637E+03  0.47000000000E+01 0.  1.
         13    1    6    6    0    0 -0.49245387442E+01 -0.40660048314E+02  0.63833402400E+02  0.75843219029E+02  0.00000000000E+00 0. -1.
        -14    1    6    6    0    0  0.54307157568E+01  0.26592390412E+02  0.47526567827E+00  0.27145419115E+02  0.00000000000E+00 0.  1.
</event>
<event>
12    1  0.8453150E-002  0.1796942E+03  0.7818608E-02  0.1168490E+00
         21   -1    0    0  501  502  0.00000000000E+00  0.00000000000E+00  0.30100827379E+03  0.30100827379E+03  0.00000000000E+00 0.  1.
         21   -1    0    0  502  503 -0.00000000000E+00 -0.00000000000E+00 -0.12207437508E+03  0.12207437508E+03  0.00000000000E+00 0.  1.
         -6    2    1    2    0  503 -0.38752315383E+02 -0.37113824415E+02  0.13117385077E+02  0.17857266112E+03  0.16981446228E+03 0.  0.
        -24    2    3    3    0    0 -0.18086220925E+02 -0.42847071508E+02 -0.54561545956E+02  0.10742151715E+03  0.79996481962E+02 0.  0.
          6    2    1    2  501    0  0.38752315383E+02  0.37113824415E+02  0.16581651364E+03  0.24450998775E+03  0.17149588917E+03 0.  0.
         24    2    5    5    0    0  0.63855669101E+02 -0.41184536059E+01  0.40495292417E+02  0.11013075718E+03  0.79965035067E+02 0.  0.
          5    1    5    5  501    0 -0.25103353718E+02  0.41232278021E+02  0.12532122122E+03  0.13437923056E+03  0.47000000000E+01 0. -1.
        -11    1    6    6    0    0  0.53540034481E+01 -0.34425347170E+02  0.47167272602E+01  0.35157039079E+02  0.00000000000E+00 0.  1.
         12    1    6    6    0    0  0.58501665653E+02  0.30306893564E+02  0.35778565157E+02  0.74973718105E+02  0.00000000000E+00 0. -1.
         -5    1    3    3    0  503 -0.20666094458E+02  0.57332470931E+01  0.67678931033E+02  0.71151143969E+02  0.47000000000E+01 0.  1.
         13    1    4    4    0    0 -0.42339894105E+02 -0.44133910249E+02 -0.18412326449E+02  0.63870826141E+02  0.00000000000E+00 0. -1.
        -14    1    4    4    0    0  0.24253673180E+02  0.12868387405E+01 -0.36149219507E+02  0.43550691012E+02  0.00000000000E+00 0.  1.
</event>
<event>
12    1  0.8453150E-002  0.2253812E+03  0.7818608E-02  0.1130260E+00
         21   -1    0    0  503  502  0.00000000000E+00  0.00000000000E+00  0.84439363622E+02  0.84439363622E+02  0.00000000000E+00 0.  1.
         21   -1    0    0  501  503 -0.00000000000E+00 -0.00000000000E+00 -0.68869043215E+03  0.68869043215E+03  0.00000000000E+00 0.  1.
          6    2    1    2  501    0  0.29237937513E+02 -0.14087643207E+03 -0.16195675985E+03  0.27753677973E+03  0.17348096708E+03 0.  0.
         24    2    3    3    0    0  0.24654144228E+02 -0.11783214025E+01 -0.58331411423E+02  0.10347680121E+03  0.81827132184E+02 0.  0.
         -6    2    1    2    0  502 -0.29237937513E+02  0.14087643207E+03 -0.44229430869E+03  0.49559301605E+03  0.17113490573E+03 0.  0.
        -24    2    5    5    0    0 -0.58334338342E+02  0.60546997148E+02 -0.35656523504E+03  0.37446918386E+03  0.77585880990E+02 0.  0.
          5    1    3    3  501    0  0.45837932850E+01 -0.13969811067E+03 -0.10362534842E+03  0.17405997851E+03  0.47000000000E+01 0. -1.
        -13    1    4    4    0    0  0.20577690458E+02 -0.40340041212E+02 -0.24074684369E+02  0.51286944704E+02  0.00000000000E+00 0.  1.
         14    1    4    4    0    0  0.40764537704E+01  0.39161719810E+02 -0.34256727054E+02  0.52189856508E+02  0.00000000000E+00 0. -1.
         -5    1    5    5    0  502  0.29096400829E+02  0.80329434921E+02 -0.85729073649E+02  0.12112383219E+03  0.47000000000E+01 0.  1.
         13    1    6    6    0    0 -0.58001346890E+02  0.22280801672E+02 -0.12313727065E+03  0.13792526160E+03  0.00000000000E+00 0. -1.
        -14    1    6    6    0    0 -0.33299145234E+00  0.38266195476E+02 -0.23342796439E+03  0.23654392226E+03  0.00000000000E+00 0.  1.
</event>
<event>
12    1  0.8453150E-002  0.2050434E+03  0.7818608E-02  0.1145891E+00
         21   -1    0    0  501  502  0.00000000000E+00  0.00000000000E+00  0.39342823656E+03  0.39342823656E+03  0.00000000000E+00 0. -1.
         21   -1    0    0  502  503 -0.00000000000E+00 -0.00000000000E+00 -0.12169971188E+03  0.12169971188E+03  0.00000000000E+00 0. -1.
         -6    2    1    2    0  503  0.10894957483E+03  0.52261263714E+01  0.43846790899E+02  0.20967913771E+03  0.17362453014E+03 0.  0.
        -24    2    3    3    0    0  0.12922481985E+03  0.41973729787E+02  0.14977545483E+02  0.15852256190E+03  0.80275947244E+02 0.  0.
          6    2    1    2  501    0 -0.10894957483E+03 -0.52261263714E+01  0.22788173378E+03  0.30544881074E+03  0.17167285499E+03 0.  0.
         24    2    5    5    0    0 -0.12847488027E+03 -0.25667246698E+02  0.23081995827E+03  0.27664255940E+03  0.78029802804E+02 0.  0.
          5    1    5    5  501    0  0.19525305441E+02  0.20441120327E+02 -0.29382244899E+01  0.28806251335E+02  0.47000000000E+01 0. -1.
        -13    1    6    6    0    0 -0.27766105121E+02 -0.16331287472E+02  0.99464213349E+01  0.33713481598E+02  0.00000000000E+00 0.  1.
         14    1    6    6    0    0 -0.10070877515E+03 -0.93359592262E+01  0.22087353693E+03  0.24292907781E+03  0.00000000000E+00 0. -1.
         -5    1    3    3    0  503 -0.20275245019E+02 -0.36747603416E+02  0.28869245416E+02  0.51156575807E+02  0.47000000000E+01 0.  1.
         11    1    4    4    0    0  0.87522399265E+02  0.64147430036E+02 -0.14313262967E+01  0.10852240252E+03  0.00000000000E+00 0. -1.
        -12    1    4    4    0    0  0.41702420581E+02 -0.22173700249E+02  0.16408871780E+02  0.50000159381E+02  0.00000000000E+00 0.  1.
</event>
<event>
12    1  0.8453150E-002  0.2244581E+03  0.7818608E-02  0.1130836E+00
         21   -1    0    0  501  502  0.00000000000E+00  0.00000000000E+00  0.25676066765E+03  0.25676066765E+03  0.00000000000E+00 0. -1.
         21   -1    0    0  502  503 -0.00000000000E+00 -0.00000000000E+00 -0.23466822971E+03  0.23466822971E+03  0.00000000000E+00 0. -1.
         -6    2    1    2    0  503  0.13829051541E+03 -0.34833545267E+02 -0.89822457373E+02  0.24176334377E+03  0.17333146861E+03 0.  0.
        -24    2    3    3    0    0  0.70406467774E+02  0.47515906044E+02 -0.40784777538E+02  0.12421990457E+03  0.80946615619E+02 0.  0.
          6    2    1    2  501    0 -0.13829051541E+03  0.34833545267E+02  0.11191489531E+03  0.24966555360E+03  0.17166916535E+03 0.  0.
         24    2    5    5    0    0 -0.92659068474E+02  0.52219632438E+02  0.58762784070E+01  0.13282898718E+03  0.79349960338E+02 0.  0.
          5    1    5    5  501    0 -0.45631446940E+02 -0.17386087170E+02  0.10603861690E+03  0.11683656642E+03  0.47000000000E+01 0. -1.
        -11    1    6    6    0    0  0.77568663698E+01  0.10309334279E+02  0.19276909454E+02  0.23195917470E+02  0.00000000000E+00 0.  1.
         12    1    6    6    0    0 -0.10041593484E+03  0.41910298158E+02 -0.13400631047E+02  0.10963306971E+03  0.00000000000E+00 0. -1.
         -5    1    3    3    0  503  0.67884047640E+02 -0.82349451311E+02 -0.49037679835E+02  0.11754343920E+03  0.47000000000E+01 0.  1.
         13    1    4    4    0    0  0.62935861378E+02  0.11044437633E+02 -0.55060574318E+02  0.84347905097E+02  0.00000000000E+00 0. -1.
        -14    1    4    4    0    0  0.74706063951E+01  0.36471468411E+02  0.14275796780E+02  0.39871999469E+02  0.00000000000E+00 0.  1.
</event>
<event>
12    1  0.8453150E-002  0.2091060E+03  0.7818608E-02  0.1142277E+00
         21   -1    0    0  503  502  0.00000000000E+00  0.00000000000E+00  0.22831166325E+03  0.22831166325E+03  0.00000000000E+00 0.  1.
         21   -1    0    0  501  503 -0.00000000000E+00 -0.00000000000E+00 -0.20060851142E+03  0.20060851142E+03  0.00000000000E+00 0.  1.
          6    2    1    2  501    0  0.99480344374E+02  0.64467948902E+02 -0.31819868580E+02  0.21151319404E+03  0.17225815471E+03 0.  0.
         24    2    3    3    0    0  0.13002464467E+03  0.81571577046E+02 -0.20210739892E+02  0.17433322302E+03  0.80145294552E+02 0.  0.
         -6    2    1    2    0  502 -0.99480344374E+02 -0.64467948902E+02  0.59523020417E+02  0.21740698063E+03  0.17225083430E+03 0.  0.
        -24    2    5    5    0    0 -0.59151558495E+02  0.31341090575E+02  0.27451611733E+02  0.10851966149E+03  0.80881117153E+02 0.  0.
          5    1    3    3  501    0 -0.30544300292E+02 -0.17103628144E+02 -0.11609128689E+02  0.37179971019E+02  0.47000000000E+01 0. -1.
        -13    1    4    4    0    0  0.70992775793E+02  0.87130715709E+02 -0.23764329621E+01  0.11241611659E+03  0.00000000000E+00 0.  1.
         14    1    4    4    0    0  0.59031868874E+02 -0.55591386621E+01 -0.17834306929E+02  0.61917106434E+02  0.00000000000E+00 0. -1.
         -5    1    5    5    0  502 -0.40328785879E+02 -0.95809039477E+02  0.32071408684E+02  0.10888731915E+03  0.47000000000E+01 0.  1.
         13    1    6    6    0    0 -0.21323112482E+01  0.30738886877E+02  0.39642041618E+02  0.50208738097E+02  0.00000000000E+00 0. -1.
        -14    1    6    6    0    0 -0.57019247247E+02  0.60220369808E+00 -0.12190429885E+02  0.58310923391E+02  0.00000000000E+00 0.  1.
</event>
<event>
12    1  0.8453150E-002  0.1919915E+03  0.7818608E-02  0.1157459E+00
         21   -1    0    0  501  502  0.00000000000E+00  0.00000000000E+00  0.48722217569E+02  0.48722217569E+02  0.00000000000E+00 0.  1.
         21   -1    0    0  502  503 -0.00000000000E+00 -0.00000000000E+00 -0.15083343636E+04  0.15083343636E+04  0.00000000000E+00 0.  1.
         -6    2    1    2    0  503 -0.67536490528E+01 -0.77734313733E+02 -0.12876808016E+04  0.13019149693E+04  0.17542093719E+03 0.  0.
        -24    2    3    3    0    0  0.44843338432E+02 -0.90597805739E+02 -0.68032024076E+03  0.69221286221E+03  0.78128926857E+02 0.  0.
          6    2    1    2  501    0  0.67536490528E+01  0.77734313733E+02 -0.17193134447E+03  0.25514161190E+03  0.17160600107E+03 0.  0.
         24    2    5    5    0    0 -0.17736233105E+02 -0.12494418956E+02 -0.41333347683E+02  0.94458989015E+02  0.82118027895E+02 0.  0.
          5    1    5    5  501    0  0.24489882158E+02  0.90228732690E+02 -0.13059799679E+03  0.16068262288E+03  0.47000000000E+01 0. -1.
        -13    1    6    6    0    0  0.21363212150E+02  0.17166232700E+02 -0.35779178411E+02  0.45069013593E+02  0.00000000000E+00 0.  1.
         14    1    6    6    0    0 -0.39099445255E+02 -0.29660651656E+02 -0.55541692717E+01  0.49389975422E+02  0.00000000000E+00 0. -1.
         -5    1    3    3    0  503 -0.51596987485E+02  0.12863492006E+02 -0.60736056082E+03  0.60970210709E+03  0.47000000000E+01 0.  1.
         11    1    4    4    0    0  0.13686038564E+02 -0.86420297843E+02 -0.36550534571E+03  0.37583232068E+03  0.00000000000E+00 0. -1.
        -12    1    4    4    0    0  0.31157299869E+02 -0.41775078965E+01 -0.31481489506E+03  0.31638054153E+03  0.00000000000E+00 0.  1.
</event>
<event>
12    1  0.8453150E-002  0.1798034E+03  0.7818608E-02  0.1168276E+00
         21   -1    0    0  503  502  0.00000000000E+00  0.00000000000E+00  0.12945842823E+03  0.12945842823E+03  0.00000000000E+00 0.  1.
         21   -1    0    0  501  503 -0.00000000000E+00 -0.00000000000E+00 -0.80338323569E+03  0.80338323569E+03  0.00000000000E+00 0.  1.
          6    2    1    2  501    0 -0.17078798908E+02 -0.47081570694E+02 -0.72506496560E+03  0.74702642458E+03  0.17268733309E+03 0.  0.
         24    2    3    3    0    0  0.31033850263E+02  0.27594125248E+02 -0.39754515709E+03  0.40764080093E+03  0.80027089455E+02 0.  0.
         -6    2    1    2    0  502  0.17078798908E+02  0.47081570694E+02  0.51140158137E+02  0.18581523934E+03  0.17147486034E+03 0.  0.
        -24    2    5    5    0    0 -0.42335100965E+02  0.62146508310E+01 -0.15396421046E+02  0.87584271688E+02  0.74853671971E+02 0.  0.
          5    1    3    3  501    0 -0.48112649171E+02 -0.74675695942E+02 -0.32751980851E+03  0.33938562365E+03  0.47000000000E+01 0. -1.
        -11    1    4    4    0    0  0.18589116094E+02 -0.69603414493E+01 -0.33131386659E+03  0.33190793872E+03  0.00000000000E+00 0.  1.
         12    1    4    4    0    0  0.12444734169E+02  0.34554466697E+02 -0.66231290500E+02  0.75732862210E+02  0.00000000000E+00 0. -1.
         -5    1    5    5    0  502  0.59413899873E+02  0.40866919863E+02  0.66536579182E+02  0.98230967655E+02  0.47000000000E+01 0.  1.
         13    1    6    6    0    0 -0.11474933061E+02 -0.41421738524E+01  0.29618664581E+02  0.32032748626E+02  0.00000000000E+00 0. -1.
        -14    1    6    6    0    0 -0.30860167904E+02  0.10356824683E+02 -0.45015085627E+02  0.55551523062E+02  0.00000000000E+00 0.  1.
</event>
<event>
12    1  0.8453150E-002  0.2271269E+03  0.7818608E-02  0.1128788E+00
         21   -1    0    0  501  502  0.00000000000E+00  0.00000000000E+00  0.68140603849E+02  0.68140603849E+02  0.00000000000E+00 0.  1.
         21   -1    0    0  502  503 -0.00000000000E+00 -0.00000000000E+00 -0.76274392263E+03  0.76274392263E+03  0.00000000000E+00 0. -1.
         -6    2    1    2    0  503 -0.68704268741E+02 -0.13236452203E+03 -0.38864487895E+03  0.44983703915E+03  0.17049303980E+03 0.  0.
        -24    2    3    3    0    0 -0.15544191344E+02 -0.12967821302E+03 -0.20461931266E+03  0.25821055577E+03  0.88008903984E+02 0.  0.
          6    2    1    2  501    0  0.68704268741E+02  0.13236452203E+03 -0.30595843983E+03  0.38104748733E+03  0.17130667663E+03 0.  0.
         24    2    5    5    0    0 -0.22773322540E+02  0.98454528456E+02 -0.15859036597E+03  0.20424964638E+03  0.79718852693E+02 0.  0.
          5    1    5    5  501    0  0.91477591281E+02  0.33909993576E+02 -0.14736807385E+03  0.17679784094E+03  0.47000000000E+01 0. -1.
        -13    1    6    6    0    0 -0.66967272684E+00 -0.13020047582E+01  0.83746713243E+01  0.85016938160E+01  0.00000000000E+00 0.  1.
         14    1    6    6    0    0 -0.22103649813E+02  0.99756533215E+02 -0.16696503730E+03  0.19574795257E+03  0.00000000000E+00 0. -1.
         -5    1    3    3    0  503 -0.53160077397E+02 -0.26863090157E+01 -0.18402556629E+03  0.19162648338E+03  0.47000000000E+01 0.  1.
         11    1    4    4    0    0  0.33594684584E+02 -0.39542438274E+02 -0.93467045949E+02  0.10690320826E+03  0.00000000000E+00 0. -1.
        -12    1    4    4    0    0 -0.49138875928E+02 -0.90135774742E+02 -0.11115226671E+03  0.15130734751E+03  0.00000000000E+00 0.  1.
</event>
<event>
12    1  0.8453150E-002  0.3756313E+03  0.7818608E-02  0.1052632E+00
         21   -1    0    0  501  502  0.00000000000E+00  0.00000000000E+00  0.42219672422E+03  0.42219672422E+03  0.00000000000E+00 0. -1.
         21   -1    0    0  502  503 -0.00000000000E+00 -0.00000000000E+00 -0.95159560310E+03  0.95159560310E+03  0.00000000000E+00 0.  1.
         -6    2    1    2    0  503 -0.25734526648E+03  0.21249340806E+03 -0.81837699826E+03  0.90046641777E+03  0.17239148357E+03 0.  0.
        -24    2    3    3    0    0 -0.68512642025E+02  0.78457209287E+02 -0.19805947071E+03  0.23831886048E+03  0.81968344608E+02 0.  0.
          6    2    1    2  501    0  0.25734526648E+03 -0.21249340806E+03  0.28897811937E+03  0.47332590955E+03  0.17073086576E+03 0.  0.
         24    2    5    5    0    0  0.88192977658E+02 -0.28867794933E+02  0.12330289925E+03  0.17365737404E+03  0.79636221041E+02 0.  0.
          5    1    5    5  501    0  0.16915228883E+03 -0.18362561313E+03  0.16567522012E+03  0.29966853551E+03  0.47000000000E+01 0. -1.
        -11    1    6    6    0    0  0.97187607240E+02 -0.25292009658E+02  0.77524098863E+02  0.12686647571E+03  0.00000000000E+00 0.  1.
         12    1    6    6    0    0 -0.89946295823E+01 -0.35757852750E+01  0.45778800392E+02  0.46790898334E+02  0.00000000000E+00 0. -1.
         -5    1    3    3    0  503 -0.18883262446E+03  0.13403619878E+03 -0.62031752754E+03  0.66214755729E+03  0.47000000000E+01 0.  1.
         13    1    4    4    0    0 -0.33443810869E+02  0.89961599369E+01 -0.12014754945E+02  0.36657519221E+02  0.00000000000E+00 0. -1.
        -14    1    4    4    0    0 -0.35068831156E+02  0.69461049350E+02 -0.18604471577E+03  0.20166134126E+03  0.00000000000E+00 0.  1.
</event>
<event>
12    1  0.8453150E-002  0.2347352E+03  0.7818608E-02  0.1123887E+00
         21   -1    0    0  501  502  0.00000000000E+00  0.00000000000E+00  0.30058834068E+03  0.30058834068E+03  0.00000000000E+00 0.  1.
         21   -1    0    0  502  503 -0.00000000000E+00 -0.00000000000E+00 -0.46860460039E+03  0.46860460039E+03  0.00000000000E+00 0. -1.
         -6    2    1    2    0  503  0.37105155692E+02  0.15551538173E+03 -0.38557868529E+03  0.45141062054E+03  0.17186855225E+03 0.  0.
        -24    2    3    3    0    0  0.69768517871E+02  0.13723431700E+03 -0.37328231593E+03  0.41173212188E+03  0.80515519942E+02 0.  0.
          6    2    1    2  501    0 -0.37105155692E+02 -0.15551538173E+03  0.21756242557E+03  0.31778232054E+03  0.16760181291E+03 0.  0.
         24    2    5    5    0    0 -0.25882090040E+02 -0.92124447559E+01  0.82767343079E+02  0.11847775251E+03  0.80198460314E+02 0.  0.
          5    1    5    5  501    0 -0.11223065652E+02 -0.14630293698E+03  0.13479508249E+03  0.19930456803E+03  0.47000000000E+01 0. -1.
        -13    1    6    6    0    0 -0.17163083397E+02 -0.43692486137E+02  0.60269928854E+02  0.76394169284E+02  0.00000000000E+00 0.  1.
         14    1    6    6    0    0 -0.87190066428E+01  0.34480041381E+02  0.22497414225E+02  0.42083583228E+02  0.00000000000E+00 0. -1.
         -5    1    3    3    0  503 -0.32663362179E+02  0.18281064732E+02 -0.12296369356E+02  0.39678498660E+02  0.47000000000E+01 0.  1.
         13    1    4    4    0    0  0.38262254464E+02  0.13230634900E+03 -0.26231710949E+03  0.29627560823E+03  0.00000000000E+00 0. -1.
        -14    1    4    4    0    0  0.31506263408E+02  0.49279679973E+01 -0.11096520644E+03  0.11545651365E+03  0.00000000000E+00 0.  1.
</event>
<event>
12    1  0.8453150E-002  0.2097527E+03  0.7818608E-02  0.1142378E+00
         21   -1    0    0  503  502  0.00000000000E+00  0.00000000000E+00  0.33048486132E+03  0.33048486132E+03  0.00000000000E+00 0.  1.
         21   -1    0    0  501  503 -0.00000000000E+00 -0.00000000000E+00 -0.30382218414E+03  0.30382218414E+03  0.00000000000E+00 0.  1.
          6    2    1    2  501    0  0.33198819341E+02 -0.11540904245E+03 -0.22578516068E+03  0.30609050275E+03  0.16819943045E+03 0.  0.
         24    2    3    3    0    0 -0.36964485745E+02 -0.41007083211E+02 -0.81544184969E+02  0.12921175899E+03  0.83655666148E+02 0.  0.
         -6    2    1    2    0  502 -0.33198819341E+02  0.11540904245E+03  0.25244783787E+03  0.32821654271E+03  0.17197319378E+03 0.  0.
        -24    2    5    5    0    0 -0.36795536327E+02  0.70730719092E+02  0.25897196649E+03  0.28267817201E+03  0.80521570961E+02 0.  0.
          5    1    3    3  501    0  0.70163305086E+02 -0.74401959241E+02 -0.14424097571E+03  0.17687874376E+03  0.47000000000E+01 0. -1.
        -11    1    4    4    0    0 -0.44003200152E+02 -0.61981204170E+02 -0.51157638016E+02  0.91624533948E+02  0.00000000000E+00 0.  1.
         12    1    4    4    0    0  0.70387144065E+01  0.20974120958E+02 -0.30386546953E+02  0.37587225040E+02  0.00000000000E+00 0. -1.
         -5    1    5    5    0  502  0.35967169859E+01  0.44678323360E+02 -0.65241286212E+01  0.45538370696E+02  0.47000000000E+01 0.  1.
         11    1    6    6    0    0 -0.11786888547E+02 -0.15277618276E+02  0.83100993045E+02  0.85311847987E+02  0.00000000000E+00 0. -1.
        -12    1    6    6    0    0 -0.25008647779E+02  0.86008337368E+02  0.17587097344E+03  0.19736632403E+03  0.00000000000E+00 0.  1.
</event>
<event>
12    1  0.8453150E-002  0.2322059E+03  0.7818608E-02  0.1125100E+00
         21   -1    0    0  501  502  0.00000000000E+00  0.00000000000E+00  0.55082234873E+02  0.55082234873E+02  0.00000000000E+00 0.  1.
         21   -1    0    0  502  503 -0.00000000000E+00 -0.00000000000E+00 -0.98439951737E+03  0.98439951737E+03  0.00000000000E+00 0.  1.
         -6    2    1    2    0  503 -0.10052148520E+03 -0.11919258288E+03 -0.42551593382E+03  0.48474273335E+03  0.17204728071E+03 0.  0.
        -24    2    3    3    0    0 -0.28406466266E+02 -0.22835324503E+02 -0.29550534445E+03  0.30751367098E+03  0.76895187588E+02 0.  0.
          6    2    1    2  501    0  0.10052148520E+03  0.11919258288E+03 -0.50380134868E+03  0.55473901889E+03  0.17207015824E+03 0.  0.
         24    2    5    5    0    0  0.12627744259E+03  0.83851003456E+02 -0.46521920893E+03  0.49623202713E+03  0.82706282170E+02 0.  0.
          5    1    5    5  501    0 -0.25755957395E+02  0.35341579421E+02 -0.38582139750E+02  0.58506991762E+02  0.47000000000E+01 0. -1.
        -13    1    6    6    0    0  0.18623155047E+02 -0.17831126773E+01 -0.11140055430E+02  0.21773888713E+02  0.00000000000E+00 0.  1.
         14    1    6    6    0    0  0.10765428755E+03  0.85634116133E+02 -0.45407915350E+03  0.47445813842E+03  0.00000000000E+00 0. -1.
         -5    1    3    3    0  503 -0.72115018932E+02 -0.96357258375E+02 -0.13001058937E+03  0.17722906236E+03  0.47000000000E+01 0.  1.
         13    1    4    4    0    0  0.12120090040E+02 -0.11022453592E+02 -0.22310604993E+03  0.22370672896E+03  0.00000000000E+00 0. -1.
        -14    1    4    4    0    0 -0.40526556306E+02 -0.11812870911E+02 -0.72399294519E+02  0.83806942028E+02  0.00000000000E+00 0.  1.
</event>
<event>
12    1  0.8453150E-002  0.2182764E+03  0.7818608E-02  0.1135185E+00
         21   -1    0    0  501  502  0.00000000000E+00  0.00000000000E+00  0.63893495743E+03  0.63893495743E+03  0.00000000000E+00 0. -1.
         21   -1    0    0  502  503 -0.00000000000E+00 -0.00000000000E+00 -0.77918515719E+02  0.77918515719E+02  0.00000000000E+00 0. -1.
         -6    2    1    2    0  503 -0.13161847510E+03  0.24340904503E+02  0.20601655123E+03  0.30014566203E+03  0.17242011610E+03 0.  0.
        -24    2    3    3    0    0  0.67733760445E+01  0.82137237740E+01  0.72147638773E+02  0.10687029851E+03  0.78119364066E+02 0.  0.
          6    2    1    2  501    0  0.13161847510E+03 -0.24340904503E+02  0.35499989048E+03  0.41670781112E+03  0.17235015227E+03 0.  0.
         24    2    5    5    0    0  0.13089113906E+03  0.19937483855E+02  0.33135739257E+03  0.36628794994E+03  0.82699136126E+02 0.  0.
          5    1    5    5  501    0  0.72733603394E+00 -0.44278388358E+02  0.23642497911E+02  0.50419861174E+02  0.47000000000E+01 0. -1.
        -11    1    6    6    0    0 -0.70694373350E+01 -0.95435247728E+01  0.10768908460E+02  0.16032005449E+02  0.00000000000E+00 0.  1.
         12    1    6    6    0    0  0.13796057640E+03  0.29481008628E+02  0.32058848411E+03  0.35025594449E+03  0.00000000000E+00 0. -1.
         -5    1    3    3    0  503 -0.13839185114E+03  0.16127180729E+02  0.13386891246E+03  0.19327536352E+03  0.47000000000E+01 0.  1.
         13    1    4    4    0    0 -0.18299546803E+02 -0.39588361642E+01  0.76413840792E+02  0.78674143538E+02  0.00000000000E+00 0. -1.
        -14    1    4    4    0    0  0.25072922848E+02  0.12172559938E+02 -0.42662020185E+01  0.28196154973E+02  0.00000000000E+00 0.  1.
</event>
<event>
12    1  0.8453150E-002  0.2705515E+03  0.7818608E-02  0.1102526E+00
         21   -1    0    0  501  502  0.00000000000E+00  0.00000000000E+00  0.31660039630E+03  0.31660039630E+03  0.00000000000E+00 0.  1.
         21   -1    0    0  502  503 -0.00000000000E+00 -0.00000000000E+00 -0.89057440405E+03  0.89057440405E+03  0.00000000000E+00 0.  1.
         -6    2    1    2    0  503 -0.14716328560E+03  0.12679732425E+03 -0.81132501469E+03  0.85524638075E+03  0.18831754633E+03 0.  0.
        -24    2    3    3    0    0 -0.16637954631E+03  0.14946623813E+03 -0.64175927191E+03  0.68303205075E+03  0.68231294110E+02 0.  0.
          6    2    1    2  501    0  0.14716328560E+03 -0.12679732425E+03  0.23735100694E+03  0.35192841960E+03  0.17257901948E+03 0.  0.
         24    2    5    5    0    0  0.16446289432E+03 -0.14344365141E+03  0.19812703322E+03  0.30570086522E+03  0.81083740452E+02 0.  0.
          5    1    5    5  501    0 -0.17299608722E+02  0.16646327159E+02  0.39223973723E+02  0.46227554385E+02  0.47000000000E+01 0. -1.
        -13    1    6    6    0    0  0.10418215222E+03 -0.13133436651E+03  0.11941843008E+03  0.20582370639E+03  0.00000000000E+00 0.  1.
         14    1    6    6    0    0  0.60280742100E+02 -0.12109284902E+02  0.78708603134E+02  0.99877158832E+02  0.00000000000E+00 0. -1.
         -5    1    3    3    0  503  0.19216260710E+02 -0.22668913882E+02 -0.16956574278E+03  0.17221433000E+03  0.47000000000E+01 0.  1.
         13    1    4    4    0    0 -0.59566041559E+02  0.77673259060E+02 -0.19625684840E+03  0.21931256012E+03  0.00000000000E+00 0. -1.
        -14    1    4    4    0    0 -0.10681350475E+03  0.71792979071E+02 -0.44550242350E+03  0.46371949063E+03  0.00000000000E+00 0.  1.
</event>
<event>
12    1  0.8453150E-002  0.1752671E+03  0.7818608E-02  0.1173081E+00
         21   -1    0    0  501  502  0.00000000000E+00  0.00000000000E+00  0.21971795800E+03  0.21971795800E+03  0.00000000000E+00 0.  1.
         21   -1    0    0  502  503 -0.00000000000E+00 -0.00000000000E+00 -0.37640636938E+03  0.37640636938E+03  0.00000000000E+00 0.  1.
         -6    2    1    2    0  503  0.10814946974E+02 -0.17111900443E+02 -0.31542020656E+03  0.35966223081E+03  0.17163109668E+03 0.  0.
        -24    2    3    3    0    0  0.19931022544E+02  0.26780610568E+02 -0.68046704226E+02  0.10821562611E+03  0.77238727437E+02 0.  0.
          6    2    1    2  501    0 -0.10814946974E+02  0.17111900443E+02  0.15873179519E+03  0.23646209658E+03  0.17409411276E+03 0.  0.
         24    2    5    5    0    0  0.33668146875E+02 -0.45916820293E+02  0.94095036283E+02  0.13570810967E+03  0.79504192828E+02 0.  0.
          5    1    5    5  501    0 -0.44483093848E+02  0.63028720736E+02  0.64636758904E+02  0.10075398691E+03  0.47000000000E+01 0. -1.
        -13    1    6    6    0    0 -0.16465979655E+01  0.11683507798E+02  0.57839917096E+02  0.59031107468E+02  0.00000000000E+00 0.  1.
         14    1    6    6    0    0  0.35314744840E+02 -0.57600328090E+02  0.36255119187E+02  0.76677002201E+02  0.00000000000E+00 0. -1.
         -5    1    3    3    0  503 -0.91160755700E+01 -0.43892511011E+02 -0.24737350234E+03  0.25144660470E+03  0.47000000000E+01 0.  1.
         13    1    4    4    0    0 -0.22078819299E+02 -0.11222413889E+00  0.20599273334E+01  0.22174989437E+02  0.00000000000E+00 0. -1.
        -14    1    4    4    0    0  0.42009841843E+02  0.26892834707E+02 -0.70106631559E+02  0.86040636671E+02  0.00000000000E+00 0.  1.
</event>
<event>
12    1  0.8453150E-002  0.1734517E+03  0.7818608E-02  0.1174511E+00
         21   -1    0    0  503  502  0.00000000000E+00  0.00000000000E+00  0.80535650956E+03  0.80535650956E+03  0.00000000000E+00 0.  1.
         21   -1    0    0  501  503 -0.00000000000E+00 -0.00000000000E+00 -0.54615961195E+02  0.54615961195E+02  0.00000000000E+00 0.  1.
          6    2    1    2  501    0  0.59437225361E+01  0.19851656409E+01  0.13300892834E+03  0.21857916422E+03  0.17333841839E+03 0.  0.
         24    2    3    3    0    0  0.33213692181E+02 -0.55084302818E+02  0.50696159967E+02  0.11466546294E+03  0.80253585537E+02 0.  0.
         -6    2    1    2    0  502 -0.59437225361E+01 -0.19851656409E+01  0.61773162002E+03  0.64139330654E+03  0.17249275514E+03 0.  0.
        -24    2    5    5    0    0  0.26503417507E+02 -0.53233144977E+02  0.49118666092E+03  0.50098358837E+03  0.78638547057E+02 0.  0.
          5    1    3    3  501    0 -0.27269969645E+02  0.57069468459E+02  0.82312768377E+02  0.10391370127E+03  0.47000000000E+01 0. -1.
        -13    1    4    4    0    0  0.11701075632E+00 -0.87653745535E+01 -0.21211176250E+02  0.22951241371E+02  0.00000000000E+00 0.  1.
         14    1    4    4    0    0  0.33096681425E+02 -0.46318928264E+02  0.71907336217E+02  0.91714221573E+02  0.00000000000E+00 0. -1.
         -5    1    5    5    0  502 -0.32447140043E+02  0.51247979336E+02  0.12654495910E+03  0.14040971817E+03  0.47000000000E+01 0.  1.
         13    1    6    6    0    0  0.67411334467E+01 -0.38019839064E+02  0.77894815908E+02  0.86939941270E+02  0.00000000000E+00 0. -1.
        -14    1    6    6    0    0  0.19762284061E+02 -0.15213305913E+02  0.41329184501E+03  0.41404364710E+03  0.00000000000E+00 0.  1.
</event>
<event>
12    1  0.8453150E-002  0.2064214E+03  0.7818608E-02  0.1144576E+00
         21   -1    0    0  503  502  0.00000000000E+00  0.00000000000E+00  0.10227163860E+03  0.10227163860E+03  0.00000000000E+00 0.  1.
         21   -1    0    0  501  503 -0.00000000000E+00 -0.00000000000E+00 -0.62021070279E+03  0.62021070279E+03  0.00000000000E+00 0.  1.
          6    2    1    2  501    0 -0.63486357101E+02 -0.94069301455E+02 -0.46695813113E+03  0.51054840977E+03  0.17242456749E+03 0.  0.
         24    2    3    3    0    0 -0.46255425212E+02 -0.12819108442E+03 -0.29553213207E+03  0.33484933681E+03  0.78818264300E+02 0.  0.
         -6    2    1    2    0  502  0.63486357101E+02  0.94069301455E+02 -0.50980933064E+02  0.21193393162E+03  0.17157326371E+03 0.  0.
        -24    2    5    5    0    0  0.84030218135E+02  0.11458094608E+03 -0.69698540419E+02  0.17707397441E+03  0.79419362337E+02 0.  0.
          5    1    3    3  501    0 -0.17230931889E+02  0.34121782964E+02 -0.17142599906E+03  0.17569907296E+03  0.47000000000E+01 0. -1.
        -13    1    4    4    0    0  0.22266580982E+01 -0.48626658786E+02 -0.17980100261E+03  0.18627375148E+03  0.00000000000E+00 0.  1.
         14    1    4    4    0    0 -0.48482083310E+02 -0.79564425634E+02 -0.11573112946E+03  0.14857558532E+03  0.00000000000E+00 0. -1.
         -5    1    5    5    0  502 -0.20543861034E+02 -0.20511644622E+02  0.18717607355E+02  0.34859957206E+02  0.47000000000E+01 0.  1.
         11    1    6    6    0    0  0.40380166293E+02  0.29817446771E+01 -0.31503000056E+02  0.51301926316E+02  0.00000000000E+00 0. -1.
        -12    1    6    6    0    0  0.43650051842E+02  0.11159920140E+03 -0.38195540363E+02  0.12577204810E+03  0.00000000000E+00 0.  1.
</event>
<event>
12    1  0.8453150E-002  0.1820766E+03  0.7818608E-02  0.1166357E+00
         21   -1    0    0  501  502  0.00000000000E+00  0.00000000000E+00  0.22893582277E+03  0.22893582277E+03  0.00000000000E+00 0.  1.
         21   -1    0    0  502  503 -0.00000000000E+00 -0.00000000000E+00 -0.14558726725E+03  0.14558726725E+03  0.00000000000E+00 0.  1.
         -6    2    1    2    0  503 -0.61029320855E+02 -0.45085796600E+01  0.66916348810E+02  0.19398373162E+03  0.17148464975E+03 0.  0.
        -24    2    3    3    0    0 -0.68562516919E+02  0.56024550806E+02  0.30464226660E+02  0.12276676639E+03  0.79397989930E+02 0.  0.
          6    2    1    2  501    0  0.61029320855E+02  0.45085796600E+01  0.16432206716E+02  0.18053935840E+03  0.16905483495E+03 0.  0.
         24    2    5    5    0    0  0.56301982597E+02 -0.52257692487E+02 -0.19313542609E+02  0.11312566562E+03  0.80768952108E+02 0.  0.
          5    1    5    5  501    0  0.47273382580E+01  0.56766272147E+02  0.35745749325E+02  0.67413692788E+02  0.47000000000E+01 0. -1.
        -11    1    6    6    0    0  0.46998784231E+02  0.35375588272E+01  0.11774362020E+02  0.48580198050E+02  0.00000000000E+00 0.  1.
         12    1    6    6    0    0  0.93031983661E+01 -0.55795251314E+02 -0.31087904629E+02  0.64545467566E+02  0.00000000000E+00 0. -1.
         -5    1    3    3    0  503  0.75331960639E+01 -0.60533130466E+02  0.36452122150E+02  0.71216965227E+02  0.47000000000E+01 0.  1.
         13    1    4    4    0    0  0.87421132014E+00  0.34168936817E+02  0.36149435155E+02  0.49749996489E+02  0.00000000000E+00 0. -1.
        -14    1    4    4    0    0 -0.69436728239E+02  0.21855613989E+02 -0.56852084950E+01  0.73016769902E+02  0.00000000000E+00 0.  1.
</event>
<event>
12    1  0.8453150E-002  0.2174458E+03  0.7818608E-02  0.1135840E+00
         21   -1    0    0  501  502  0.00000000000E+00  0.00000000000E+00  0.98578148564E+02  0.98578148564E+02  0.00000000000E+00 0.  1.
         21   -1    0    0  502  503 -0.00000000000E+00 -0.00000000000E+00 -0.66684800776E+03  0.66684800776E+03  0.00000000000E+00 0.  1.
         -6    2    1    2    0  503  0.28290780867E+02  0.13040512105E+03 -0.48724932125E+03  0.53356779934E+03  0.17168818117E+03 0.  0.
        -24    2    3    3    0    0 -0.33567032680E+02  0.52684187363E+02 -0.14272414349E+03  0.17497803269E+03  0.79654011259E+02 0.  0.
          6    2    1    2  501    0 -0.28290780867E+02 -0.13040512105E+03 -0.81020537942E+02  0.23185835698E+03  0.17142959562E+03 0.  0.
         24    2    5    5    0    0 -0.85175802315E+02 -0.88290984628E+02 -0.46097924527E+02  0.15279392073E+03  0.78554110654E+02 0.  0.
          5    1    5    5  501    0  0.56885021447E+02 -0.42114136422E+02 -0.34922613416E+02  0.79064436249E+02  0.47000000000E+01 0. -1.
        -13    1    6    6    0    0 -0.48421960433E+02 -0.42167992824E+02  0.17003863723E+02  0.66422565838E+02  0.00000000000E+00 0.  1.
         14    1    6    6    0    0 -0.36753841882E+02 -0.46122991804E+02 -0.63101788250E+02  0.86371354895E+02  0.00000000000E+00 0. -1.
         -5    1    3    3    0  503  0.61857813548E+02  0.77720933687E+02 -0.34452517777E+03  0.35858976665E+03  0.47000000000E+01 0.  1.
         11    1    4    4    0    0 -0.35668820790E+02  0.71852264565E+02 -0.12643493783E+03  0.14973578798E+03  0.00000000000E+00 0. -1.
        -12    1    4    4    0    0  0.21017881096E+01 -0.19168077202E+02 -0.16289205657E+02  0.25242244707E+02  0.00000000000E+00 0.  1.
</event>
<event>
12    1  0.8453150E-002  0.2152395E+03  0.7818608E-02  0.1139950E+00
         21   -1    0    0  503  502  0.00000000000E+00  0.00000000000E+00  0.16721330218E+03  0.16721330218E+03  0.00000000000E+00 0. -1.
         21   -1    0    0  501  503 -0.00000000000E+00 -0.00000000000E+00 -0.27854489851E+03  0.27854489851E+03  0.00000000000E+00 0.  1.
          6    2    1    2  501    0 -0.70620172295E+02 -0.82014240972E+02 -0.11273654167E+03  0.24297645562E+03  0.18604968610E+03 0.  0.
         24    2    3    3    0    0 -0.38719248509E+02 -0.82681342661E+02 -0.15077877476E+03  0.19310245977E+03  0.78860233461E+02 0.  0.
         -6    2    1    2    0  502  0.70620172295E+02  0.82014240972E+02  0.14049453402E+01  0.20278174507E+03  0.17147862201E+03 0.  0.
        -24    2    5    5    0    0  0.54261788970E+02 -0.15784279654E+02  0.20016901673E+02  0.10178351608E+03  0.82254012461E+02 0.  0.
          5    1    3    3  501    0 -0.31900923787E+02  0.66710168861E+00  0.38042233091E+02  0.49873995846E+02  0.47000000000E+01 0. -1.
        -13    1    4    4    0    0 -0.55187647816E+02 -0.52749254105E+02 -0.63240298581E+02  0.99133726071E+02  0.00000000000E+00 0.  1.
         14    1    4    4    0    0  0.16468399307E+02 -0.29932088556E+02 -0.87538476182E+02  0.93968733701E+02  0.00000000000E+00 0. -1.
         -5    1    5    5    0  502  0.16358383326E+02  0.97798520626E+02 -0.18611956333E+02  0.10099822900E+03  0.47000000000E+01 0.  1.
         13    1    6    6    0    0  0.45095512306E+02 -0.54037660117E+01  0.50731236527E+02  0.68091587416E+02  0.00000000000E+00 0. -1.
        -14    1    6    6    0    0  0.91662766632E+01 -0.10380513643E+02 -0.30714334854E+02  0.33691928660E+02  0.00000000000E+00 0.  1.
</event>
<event>
12    1  0.8453150E-002  0.2535906E+03  0.7818608E-02  0.1111138E+00
         21   -1    0    0  501  502  0.00000000000E+00  0.00000000000E+00  0.35879424148E+03  0.35879424148E+03  0.00000000000E+00 0. -1.
         21   -1    0    0  502  503 -0.00000000000E+00 -0.00000000000E+00 -0.21259942865E+03  0.21259942865E+03  0.00000000000E+00 0.  1.
         -6    2    1    2    0  503 -0.81385804756E+02 -0.16694435245E+03 -0.40648674183E+02  0.25682777055E+03  0.17266766628E+03 0.  0.
        -24    2    3    3    0    0 -0.45375592855E+02 -0.18926307806E+03 -0.25186809213E+02  0.21148441224E+03  0.78815126210E+02 0.  0.
          6    2    1    2  501    0  0.81385804756E+02  0.16694435245E+03  0.18684348701E+03  0.31456589958E+03  0.17189284601E+03 0.  0.
         24    2    5    5    0    0  0.53216281952E+02  0.24958364130E+02  0.11880144898E+03  0.15454917597E+03  0.79478115920E+02 0.  0.
          5    1    5    5  501    0  0.28169522804E+02  0.14198598832E+03  0.68042038035E+02  0.16001672361E+03  0.47000000000E+01 0. -1.
        -11    1    6    6    0    0  0.21797056970E+02  0.14908511821E+02 -0.46081155228E+01  0.26806904818E+02  0.00000000000E+00 0.  1.
         12    1    6    6    0    0  0.31419224982E+02  0.10049852309E+02  0.12340956450E+03  0.12774227115E+03  0.00000000000E+00 0. -1.
         -5    1    3    3    0  503 -0.36010211901E+02  0.22318725607E+02 -0.15461864970E+02  0.45343358303E+02  0.47000000000E+01 0.  1.
         13    1    4    4    0    0  0.18511545094E+02 -0.33543104386E+02  0.98552529449E+01  0.39559362536E+02  0.00000000000E+00 0. -1.
        -14    1    4    4    0    0 -0.63887137950E+02 -0.15571997367E+03 -0.35042062157E+02  0.17192504971E+03  0.00000000000E+00 0.  1.
</event>
<event>
12    1  0.8453150E-002  0.2313908E+03  0.7818608E-02  0.1125699E+00
         21   -1    0    0  503  502  0.00000000000E+00  0.00000000000E+00  0.64818739026E+02  0.64818739026E+02  0.00000000000E+00 0.  1.
         21   -1    0    0  501  503 -0.00000000000E+00 -0.00000000000E+00 -0.85352688674E+03  0.85352688674E+03  0.00000000000E+00 0.  1.
          6    2    1    2  501    0 -0.71467295292E+02  0.13679383660E+03 -0.47800279851E+03  0.53106345590E+03  0.17239950922E+03 0.  0.
         24    2    3    3    0    0 -0.15005751888E+00  0.12936523954E+03 -0.37967528302E+03  0.40927789534E+03  0.81361461149E+02 0.  0.
         -6    2    1    2    0  502  0.71467295292E+02 -0.13679383660E+03 -0.31070534920E+03  0.38728216987E+03  0.17213232423E+03 0.  0.
        -24    2    5    5    0    0  0.33296462175E+02 -0.17148455453E+02 -0.54076130479E+02  0.10153284680E+03  0.77343177941E+02 0.  0.
          5    1    3    3  501    0 -0.71317237773E+02  0.74285970578E+01 -0.98327515491E+02  0.12178556056E+03  0.47000000000E+01 0. -1.
        -11    1    4    4    0    0 -0.29764207836E+02  0.11695729372E+03 -0.29654262156E+03  0.32016002721E+03  0.00000000000E+00 0.  1.
         12    1    4    4    0    0  0.29614150317E+02  0.12407945817E+02 -0.83132661464E+02  0.89117868132E+02  0.00000000000E+00 0. -1.
         -5    1    5    5    0  502  0.38170833117E+02 -0.11964538114E+03 -0.25662921873E+03  0.28574932307E+03  0.47000000000E+01 0.  1.
         13    1    6    6    0    0  0.60597504492E+01  0.60855838587E+01 -0.63847922411E+02  0.64422915974E+02  0.00000000000E+00 0. -1.
        -14    1    6    6    0    0  0.27236711726E+02 -0.23234039311E+02  0.97717919321E+01  0.37109930826E+02  0.00000000000E+00 0.  1.
</event>
<event>
12    1  0.8453150E-002  0.1909475E+03  0.7818608E-02  0.1157800E+00
         21   -1    0    0  501  502  0.00000000000E+00  0.00000000000E+00  0.63801660805E+02  0.63801660805E+02  0.00000000000E+00 0. -1.
         21   -1    0    0  502  503 -0.00000000000E+00 -0.00000000000E+00 -0.68708567151E+03  0.68708567151E+03  0.00000000000E+00 0. -1.
         -6    2    1    2    0  503 -0.50088301577E+02 -0.66410353504E+02 -0.46675415835E+03  0.50398136341E+03  0.17093448252E+03 0.  0.
        -24    2    3    3    0    0 -0.72631905343E+02 -0.20299656174E+02 -0.16521378985E+03  0.19806782282E+03  0.79043003267E+02 0.  0.
          6    2    1    2  501    0  0.50088301577E+02  0.66410353504E+02 -0.15652985235E+03  0.24690596890E+03  0.17187725212E+03 0.  0.
         24    2    5    5    0    0 -0.12999367091E+02  0.43968602495E+02 -0.15505344952E+03  0.17976465605E+03  0.78559135743E+02 0.  0.
          5    1    5    5  501    0  0.63087668667E+02  0.22441751010E+02 -0.14764028348E+01  0.67141312853E+02  0.47000000000E+01 0. -1.
        -11    1    6    6    0    0  0.27251464259E+02  0.27267513798E+02 -0.11223280717E+03  0.11866913086E+03  0.00000000000E+00 0.  1.
         12    1    6    6    0    0 -0.40250831350E+02  0.16701088697E+02 -0.42820642347E+02  0.61095525197E+02  0.00000000000E+00 0. -1.
         -5    1    3    3    0  503  0.22543603766E+02 -0.46110697330E+02 -0.30154036850E+03  0.30591354058E+03  0.47000000000E+01 0.  1.
         11    1    4    4    0    0 -0.88708359575E+02 -0.25070341799E+02 -0.13420119578E+03  0.16281171962E+03  0.00000000000E+00 0. -1.
        -12    1    4    4    0    0  0.16076454231E+02  0.47706856248E+01 -0.31012594074E+02  0.35256103205E+02  0.00000000000E+00 0.  1.
</event>
<event>
12    1  0.8453150E-002  0.2446045E+03  0.7818608E-02  0.1116813E+00
         21   -1    0    0  501  502  0.00000000000E+00  0.00000000000E+00  0.15064506341E+03  0.15064506341E+03  0.00000000000E+00 0. -1.
         21   -1    0    0  502  503 -0.00000000000E+00 -0.00000000000E+00 -0.66255801368E+03  0.66255801368E+03  0.00000000000E+00 0.  1.
         -6    2    1    2    0  503  0.12030694540E+03 -0.12502410781E+03 -0.51362914568E+03  0.56889916594E+03  0.17241395845E+03 0.  0.
        -24    2    3    3    0    0  0.12372701226E+03 -0.34388381226E+02 -0.26732526528E+03  0.30638397916E+03  0.76924709292E+02 0.  0.
          6    2    1    2  501    0 -0.12030694540E+03  0.12502410781E+03  0.17161954135E+01  0.24430391114E+03  0.17197868190E+03 0.  0.
         24    2    5    5    0    0 -0.44842385810E+02 -0.48213267731E+01 -0.37528030018E+01  0.93948543496E+02  0.82329584826E+02 0.  0.
          5    1    5    5  501    0 -0.75464559589E+02  0.12984543458E+03  0.54689984153E+01  0.15035536764E+03  0.47000000000E+01 0. -1.
        -11    1    6    6    0    0  0.23073226123E+02 -0.98083841956E+01  0.40793283279E+01  0.25401163041E+02  0.00000000000E+00 0.  1.
         12    1    6    6    0    0 -0.67915611933E+02  0.49870574226E+01 -0.78321313297E+01  0.68547380454E+02  0.00000000000E+00 0. -1.
         -5    1    3    3    0  503 -0.34200668658E+01 -0.90635726582E+02 -0.24630388040E+03  0.26251518678E+03  0.47000000000E+01 0.  1.
         13    1    4    4    0    0  0.46983278250E+02  0.17323407949E+02 -0.14217683569E+03  0.15073745886E+03  0.00000000000E+00 0. -1.
        -14    1    4    4    0    0  0.76743734015E+02 -0.51711789176E+02 -0.12514842959E+03  0.15564652029E+03  0.00000000000E+00 0.  1.
</event>
<event>
12    1  0.8453150E-002  0.2150653E+03  0.7818608E-02  0.1138088E+00
         21   -1    0    0  501  502  0.00000000000E+00  0.00000000000E+00  0.10256460213E+03  0.10256460213E+03  0.00000000000E+00 0. -1.
         21   -1    0    0  502  503 -0.00000000000E+00 -0.00000000000E+00 -0.58308178406E+03  0.58308178406E+03  0.00000000000E+00 0. -1.
         -6    2    1    2    0  503 -0.12486625203E+03 -0.20926774005E+02 -0.40761610861E+03  0.46087303635E+03  0.17384922454E+03 0.  0.
        -24    2    3    3    0    0 -0.51337809021E+02 -0.32156718871E+02 -0.91930179186E+02  0.13650867390E+03  0.80708332913E+02 0.  0.
          6    2    1    2  501    0  0.12486625203E+03  0.20926774005E+02 -0.72901073322E+02  0.22477334984E+03  0.17081856322E+03 0.  0.
         24    2    5    5    0    0  0.52714100802E+02  0.11551010265E+02  0.27977433426E+02  0.10030487594E+03  0.79788026006E+02 0.  0.
          5    1    5    5  501    0  0.72152151230E+02  0.93757637398E+01 -0.10087850675E+03  0.12446847391E+03  0.47000000000E+01 0. -1.
        -13    1    6    6    0    0 -0.19952623681E+02 -0.72434561964E+01  0.49837779046E+01  0.21803965044E+02  0.00000000000E+00 0.  1.
         14    1    6    6    0    0  0.72666724483E+02  0.18794466461E+02  0.22993655522E+02  0.78500910892E+02  0.00000000000E+00 0. -1.
         -5    1    3    3    0  503 -0.73528443011E+02  0.11229944867E+02 -0.31568592942E+03  0.32436436245E+03  0.47000000000E+01 0.  1.
         11    1    4    4    0    0 -0.63903512913E+02 -0.33349175633E+02 -0.98673821630E+02  0.12219799325E+03  0.00000000000E+00 0. -1.
        -12    1    4    4    0    0  0.12565703893E+02  0.11924567616E+01  0.67436424436E+01  0.14310680657E+02  0.00000000000E+00 0.  1.
</event>
<event>
12    1  0.8453150E-002  0.1910970E+03  0.7818608E-02  0.1157550E+00
         21   -1    0    0  501  502  0.00000000000E+00  0.00000000000E+00  0.25895260862E+02  0.25895260862E+02  0.00000000000E+00 0. -1.
         21   -1    0    0  502  503 -0.00000000000E+00 -0.00000000000E+00 -0.14131027496E+04  0.14131027496E+04  0.00000000000E+00 0. -1.
         -6    2    1    2    0  503 -0.80273605035E+02 -0.10309475171E+02 -0.65003019713E+03  0.67753767784E+03  0.17311242232E+03 0.  0.
        -24    2    3    3    0    0 -0.23161383187E+02 -0.34160659301E+02 -0.15970101959E+03  0.18329535142E+03  0.79933534141E+02 0.  0.
          6    2    1    2  501    0  0.80273605035E+02  0.10309475171E+02 -0.73717729156E+03  0.76146033258E+03  0.17274646728E+03 0.  0.
         24    2    5    5    0    0  0.59005183437E+02  0.66604675276E+02 -0.35103719699E+03  0.37063075597E+03  0.78881234559E+02 0.  0.
          5    1    5    5  501    0  0.21268421598E+02 -0.56295200105E+02 -0.38614009457E+03  0.39082957660E+03  0.47000000000E+01 0. -1.
        -13    1    6    6    0    0 -0.89453390435E+00  0.50630131854E+02 -0.10048495237E+03  0.11252304695E+03  0.00000000000E+00 0.  1.
         14    1    6    6    0    0  0.59899717342E+02  0.15974543421E+02 -0.25055224461E+03  0.25810770902E+03  0.00000000000E+00 0. -1.
         -5    1    3    3    0  503 -0.57112221848E+02  0.23851184130E+02 -0.49032917754E+03  0.49424232641E+03  0.47000000000E+01 0.  1.
         13    1    4    4    0    0  0.49948373375E+01  0.15031275570E+02 -0.98947998223E+02  0.10020775418E+03  0.00000000000E+00 0. -1.
        -14    1    4    4    0    0 -0.28156220525E+02 -0.49191934871E+02 -0.60753021368E+02  0.83087597245E+02  0.00000000000E+00 0.  1.
</event>
<event>
12    1  0.8453150E-002  0.2727086E+03  0.7818608E-02  0.1099745E+00
         21   -1    0    0  501  502  0.00000000000E+00  0.00000000000E+00  0.56562160894E+03  0.56562160894E+03  0.00000000000E+00 0.  1.
         21   -1    0    0  502  503 -0.00000000000E+00 -0.00000000000E+00 -0.15636104552E+03  0.15636104552E+03  0.00000000000E+00 0. -1.
         -6    2    1    2    0  503 -0.16575338206E+03 -0.13069604461E+03  0.60573761884E+02  0.27931748824E+03  0.17260776016E+03 0.  0.
        -24    2    3    3    0    0 -0.14366660687E+02 -0.74843301338E+02  0.38516471518E+02  0.11638780280E+03  0.79086543531E+02 0.  0.
          6    2    1    2  501    0  0.16575338206E+03  0.13069604461E+03  0.34868680154E+03  0.44266516621E+03  0.17266824858E+03 0.  0.
         24    2    5    5    0    0  0.30922724874E+02  0.23968028535E+01  0.10672878665E+03  0.13736896164E+03  0.80729413143E+02 0.  0.
          5    1    5    5  501    0  0.13483065719E+03  0.12829924176E+03  0.24195801489E+03  0.30529620457E+03  0.47000000000E+01 0. -1.
        -11    1    6    6    0    0  0.54499970767E+02  0.16605834825E+02  0.84860685961E+02  0.10221221349E+03  0.00000000000E+00 0.  1.
         12    1    6    6    0    0 -0.23577245893E+02 -0.14209031971E+02  0.21868100685E+02  0.35156748157E+02  0.00000000000E+00 0. -1.
         -5    1    3    3    0  503 -0.15138672138E+03 -0.55852743273E+02  0.22057290366E+02  0.16292968544E+03  0.47000000000E+01 0.  1.
         13    1    4    4    0    0 -0.26238272134E+02 -0.68214946512E+02 -0.25473606239E+01  0.73131490471E+02  0.00000000000E+00 0. -1.
        -14    1    4    4    0    0  0.11871611447E+02 -0.66283548256E+01  0.41063832142E+02  0.43256312328E+02  0.00000000000E+00 0.  1.
</event>
<event>
12    1  0.8453150E-002  0.2291022E+03  0.7818608E-02  0.1127403E+00
         21   -1    0    0  503  502  0.00000000000E+00  0.00000000000E+00  0.16643061161E+02  0.16643061161E+02  0.00000000000E+00 0.  1.
         21   -1    0    0  501  503 -0.00000000000E+00 -0.00000000000E+00 -0.33023380211E+04  0.33023380211E+04  0.00000000000E+00 0. -1.
          6    2    1    2  501    0 -0.62248291148E+02  0.14072468394E+03 -0.20041249709E+04  0.20170941916E+04  0.16874179224E+03 0.  0.
         24    2    3    3    0    0 -0.32450671445E+02  0.14800035480E+03 -0.11828550594E+04  0.11952382486E+04  0.80568159250E+02 0.  0.
         -6    2    1    2    0  502  0.62248291148E+02 -0.14072468394E+03 -0.12815699891E+04  0.13018868907E+04  0.16973377039E+03 0.  0.
        -24    2    5    5    0    0  0.70252175450E+02 -0.61895567925E+02 -0.10488025767E+04  0.10559583443E+04  0.79339462911E+02 0.  0.
          5    1    3    3  501    0 -0.29797619703E+02 -0.72756708661E+01 -0.82126991148E+03  0.82185594299E+03  0.47000000000E+01 0. -1.
        -13    1    4    4    0    0 -0.22436992483E+02  0.68418354622E+02 -0.84199463888E+03  0.84506772615E+03  0.00000000000E+00 0.  1.
         14    1    4    4    0    0 -0.10013678962E+02  0.79582000180E+02 -0.34086042052E+03  0.35017052246E+03  0.00000000000E+00 0. -1.
         -5    1    5    5    0  502 -0.80038843027E+01 -0.78829116012E+02 -0.23276741238E+03  0.24592854645E+03  0.47000000000E+01 0.  1.
         11    1    6    6    0    0  0.22241843149E+02 -0.47286079387E+02 -0.82249698438E+03  0.82415530223E+03  0.00000000000E+00 0. -1.
        -12    1    6    6    0    0  0.48010332302E+02 -0.14609488538E+02 -0.22630559236E+03  0.23180304203E+03  0.00000000000E+00 0.  1.
</event>
<event>
12    1  0.8453150E-002  0.2387920E+03  0.7818608E-02  0.1120605E+00
         21   -1    0    0  501  502  0.00000000000E+00  0.00000000000E+00  0.13224367218E+03  0.13224367218E+03  0.00000000000E+00 0.  1.
         21   -1    0    0  502  503 -0.00000000000E+00 -0.00000000000E+00 -0.95241235730E+03  0.95241235730E+03  0.00000000000E+00 0.  1.
         -6    2    1    2    0  503 -0.17699094526E+01 -0.16607004076E+03 -0.81129395243E+03  0.84569918571E+03  0.17154254411E+03 0.  0.
        -24    2    3    3    0    0  0.22601950963E+01 -0.12424877126E+03 -0.77797172986E+03  0.79186870324E+03  0.79832105477E+02 0.  0.
          6    2    1    2  501    0  0.17699094526E+01  0.16607004076E+03 -0.88747326978E+01  0.23895684378E+03  0.17157861548E+03 0.  0.
         24    2    5    5    0    0  0.38267376357E+02  0.89287835505E+02 -0.59781768596E+02  0.13975407951E+03  0.80750437892E+02 0.  0.
          5    1    5    5  501    0 -0.36497466905E+02  0.76782205260E+02  0.50907035898E+02  0.99202764271E+02  0.47000000000E+01 0. -1.
        -13    1    6    6    0    0 -0.56444146992E+01  0.42369738074E+02  0.11016159794E+02  0.44140796304E+02  0.00000000000E+00 0.  1.
         14    1    6    6    0    0  0.43911791057E+02  0.46918097431E+02 -0.70797928390E+02  0.95613283202E+02  0.00000000000E+00 0. -1.
         -5    1    3    3    0  503 -0.40301045489E+01 -0.41821269508E+02 -0.33322222568E+02  0.53830482468E+02  0.47000000000E+01 0.  1.
         13    1    4    4    0    0  0.21162488376E+02 -0.31763764437E+01 -0.64689593163E+02  0.68137241984E+02  0.00000000000E+00 0. -1.
        -14    1    4    4    0    0 -0.18902293280E+02 -0.12107239481E+03 -0.71328213670E+03  0.72373146125E+03  0.00000000000E+00 0.  1.
</event>
<event>
12    1  0.8453150E-002  0.1965167E+03  0.7818608E-02  0.1152834E+00
         21   -1    0    0  503  502  0.00000000000E+00  0.00000000000E+00  0.44871528757E+03  0.44871528757E+03  0.00000000000E+00 0.  1.
         21   -1    0    0  501  503 -0.00000000000E+00 -0.00000000000E+00 -0.22217896860E+03  0.22217896860E+03  0.00000000000E+00 0.  1.
          6    2    1    2  501    0 -0.23493433095E+02 -0.91188161991E+02 -0.14946456224E+03  0.24689771383E+03  0.17248653119E+03 0.  0.
         24    2    3    3    0    0  0.77957851649E+01 -0.49590823005E+02  0.85376929688E+00  0.87752985403E+02  0.71971060382E+02 0.  0.
         -6    2    1    2    0  502  0.23493433095E+02  0.91188161991E+02  0.37600088121E+03  0.42399654234E+03  0.17184057427E+03 0.  0.
        -24    2    5    5    0    0  0.43417624875E+02  0.34286800808E+02  0.76198491548E+02  0.11815622262E+03  0.71372319357E+02 0.  0.
          5    1    3    3  501    0 -0.31289218260E+02 -0.41597338987E+02 -0.15031833153E+03  0.15914472842E+03  0.47000000000E+01 0. -1.
        -11    1    4    4    0    0 -0.27045083379E+02 -0.35029990157E+00 -0.35154140043E+01  0.27274848865E+02  0.00000000000E+00 0.  1.
         12    1    4    4    0    0  0.34840868544E+02 -0.49240523103E+02  0.43691833012E+01  0.60478136538E+02  0.00000000000E+00 0. -1.
         -5    1    5    5    0  502 -0.19924191780E+02  0.56901361184E+02  0.29980238966E+03  0.30584031972E+03  0.47000000000E+01 0.  1.
         11    1    6    6    0    0  0.25506457505E+02  0.49200035248E+02  0.22860811831E+02  0.59948641022E+02  0.00000000000E+00 0. -1.
        -12    1    6    6    0    0  0.17911167370E+02 -0.14913234440E+02  0.53337679717E+02  0.58207581599E+02  0.00000000000E+00 0.  1.
</event>
<event>
12    1  0.8453150E-002  0.1728032E+03  0.7818608E-02  0.1175335E+00
         21   -1    0    0  501  502  0.00000000000E+00  0.00000000000E+00  0.41915310012E+02  0.41915310012E+02  0.00000000000E+00 0.  1.
         21   -1    0    0  502  503 -0.00000000000E+00 -0.00000000000E+00 -0.71004765021E+03  0.71004765021E+03  0.00000000000E+00 0.  1.
         -6    2    1    2    0  503  0.67715641349E+01  0.78227945531E+01 -0.35986355744E+03  0.39856431705E+03  0.17101077350E+03 0.  0.
        -24    2    3    3    0    0 -0.86715808931E+01  0.70305543143E+02 -0.21366556559E+03  0.23875653432E+03  0.79584188428E+02 0.  0.
          6    2    1    2  501    0 -0.67715641349E+01 -0.78227945531E+01 -0.30826878276E+03  0.35339864318E+03  0.17249321257E+03 0.  0.
         24    2    5    5    0    0  0.28234376179E+02  0.46793677829E+02 -0.12115579753E+03  0.15530337783E+03  0.80334199485E+02 0.  0.
          5    1    5    5  501    0 -0.35005940314E+02 -0.54616472382E+02 -0.18711298523E+03  0.19809526535E+03  0.47000000000E+01 0. -1.
        -11    1    6    6    0    0 -0.18297420999E+02  0.41811037585E+02 -0.83808651921E+02  0.95429809891E+02  0.00000000000E+00 0.  1.
         12    1    6    6    0    0  0.46531797178E+02  0.49826402445E+01 -0.37347145609E+02  0.59873567937E+02  0.00000000000E+00 0. -1.
         -5    1    3    3    0  503  0.15443145028E+02 -0.62482748590E+02 -0.14619799185E+03  0.15980778273E+03  0.47000000000E+01 0.  1.
         13    1    4    4    0    0  0.28577435513E+02  0.61237923738E+02 -0.12351605126E+03  0.14079406253E+03  0.00000000000E+00 0. -1.
        -14    1    4    4    0    0 -0.37249016406E+02  0.90676194051E+01 -0.90149514325E+02  0.97962471784E+02  0.00000000000E+00 0.  1.
</event>
<event>
12    1  0.8453150E-002  0.2327844E+03  0.7818608E-02  0.1124850E+00
         21   -1    0    0  503  502  0.00000000000E+00  0.00000000000E+00  0.11030650654E+04  0.11030650654E+04  0.00000000000E+00 0.  1.
         21   -1    0    0  501  503 -0.00000000000E+00 -0.00000000000E+00 -0.50246381193E+02  0.50246381193E+02  0.00000000000E+00 0.  1.
          6    2    1    2  501    0  0.44768951273E+02  0.14988386747E+03  0.62048793345E+03  0.66271701897E+03  0.17239239815E+03 0.  0.
         24    2    3    3    0    0 -0.96651587088E+01  0.83576097145E+02  0.17948614168E+03  0.21342372602E+03  0.79095084981E+02 0.  0.
         -6    2    1    2    0  502 -0.44768951273E+02 -0.14988386747E+03  0.43233075073E+03  0.49059442761E+03  0.17118288945E+03 0.  0.
        -24    2    5    5    0    0 -0.65912298229E+02 -0.60296459321E+02  0.14246970487E+03  0.18643252873E+03  0.80494576823E+02 0.  0.
          5    1    3    3  501    0  0.54434109982E+02  0.66307770327E+02  0.44100179178E+03  0.44929329295E+03  0.47000000000E+01 0. -1.
        -13    1    4    4    0    0  0.21376265293E+02  0.80717459306E+02  0.11893615098E+03  0.14532054557E+03  0.00000000000E+00 0.  1.
         14    1    4    4    0    0 -0.31041424002E+02  0.28586378396E+01  0.60549990694E+02  0.68103180451E+02  0.00000000000E+00 0. -1.
         -5    1    5    5    0  502  0.21143346956E+02 -0.89587408151E+02  0.28986104586E+03  0.30416189888E+03  0.47000000000E+01 0.  1.
         11    1    6    6    0    0  0.61407881677E+01  0.91950004777E+01  0.46359201836E+02  0.47659552117E+02  0.00000000000E+00 0. -1.
        -12    1    6    6    0    0 -0.72053086396E+02 -0.69491459799E+02  0.96110503034E+02  0.13877297661E+03  0.00000000000E+00 0.  1.
</event>
<event>
12    1  0.8453150E-002  0.2314556E+03  0.7818608E-02  0.1126236E+00
         21   -1    0    0  503  502  0.00000000000E+00  0.00000000000E+00  0.59333906293E+02  0.59333906293E+02  0.00000000000E+00 0.  1.
         21   -1    0    0  501  503 -0.00000000000E+00 -0.00000000000E+00 -0.13763656694E+04  0.13763656694E+04  0.00000000000E+00 0. -1.
          6    2    1    2  501    0  0.15367092691E+03  0.14942409460E+02 -0.10823095834E+04  0.11060540141E+04  0.16770038308E+03 0.  0.
         24    2    3    3    0    0  0.82988670232E+02 -0.56220554556E+02 -0.62711798642E+03  0.63991923875E+03  0.78560760533E+02 0.  0.
         -6    2    1    2    0  502 -0.15367092691E+03 -0.14942409460E+02 -0.23472217976E+03  0.32964556161E+03  0.17243452450E+03 0.  0.
        -24    2    5    5    0    0 -0.63157847239E+02  0.52188973504E+02 -0.15329833299E+03  0.19053706800E+03  0.78047375119E+02 0.  0.
          5    1    3    3  501    0  0.70682256677E+02  0.71162964016E+02 -0.45519159694E+03  0.46613477534E+03  0.47000000000E+01 0. -1.
        -11    1    4    4    0    0  0.78610858374E+02 -0.43987176401E+02 -0.61675747083E+03  0.62330114437E+03  0.00000000000E+00 0.  1.
         12    1    4    4    0    0  0.43778118588E+01 -0.12233378155E+02 -0.10360515581E+02  0.16618094381E+02  0.00000000000E+00 0. -1.
         -5    1    5    5    0  502 -0.90513079670E+02 -0.67131382964E+02 -0.81423846766E+02  0.13910849360E+03  0.47000000000E+01 0.  1.
         13    1    6    6    0    0 -0.49185897611E+02  0.58742642037E+02 -0.63752520565E+02  0.99671131205E+02  0.00000000000E+00 0. -1.
        -14    1    6    6    0    0 -0.13971949629E+02 -0.65536685330E+01 -0.89545812425E+02  0.90865936800E+02  0.00000000000E+00 0.  1.
</event>
<event>
12    1  0.8453150E-002  0.1892278E+03  0.7818608E-02  0.1159508E+00
         21   -1    0    0  501  502  0.00000000000E+00  0.00000000000E+00  0.18380552222E+03  0.18380552222E+03  0.00000000000E+00 0.  1.
         21   -1    0    0  502  503 -0.00000000000E+00 -0.00000000000E+00 -0.39314310798E+03  0.39314310798E+03  0.00000000000E+00 0.  1.
         -6    2    1    2    0  503 -0.17834526861E+02 -0.75514483456E+02 -0.31058134130E+03  0.36368659613E+03  0.17258813135E+03 0.  0.
        -24    2    3    3    0    0 -0.46939369433E+02 -0.10335485664E+03 -0.18292304837E+03  0.22974292143E+03  0.80221178796E+02 0.  0.
          6    2    1    2  501    0  0.17834526861E+02  0.75514483456E+02  0.10124375554E+03  0.21326203406E+03  0.17090900964E+03 0.  0.
         24    2    5    5    0    0  0.38092040888E+01  0.10168240002E+02  0.11915136638E+03  0.14391065528E+03  0.79970778744E+02 0.  0.
          5    1    5    5  501    0  0.14025322772E+02  0.65346243454E+02 -0.17907610843E+02  0.69351378779E+02  0.47000000000E+01 0. -1.
        -11    1    6    6    0    0  0.34874162044E+02  0.25316570535E+02  0.85116718780E+02  0.95404359113E+02  0.00000000000E+00 0.  1.
         12    1    6    6    0    0 -0.31064957956E+02 -0.15148330533E+02  0.34034647599E+02  0.48506296167E+02  0.00000000000E+00 0. -1.
         -5    1    3    3    0  503  0.29104842572E+02  0.27840373184E+02 -0.12765829293E+03  0.13394367471E+03  0.47000000000E+01 0.  1.
         11    1    4    4    0    0 -0.69374020052E+02 -0.72659196119E+02 -0.14126298117E+03  0.17334169518E+03  0.00000000000E+00 0. -1.
        -12    1    4    4    0    0  0.22434650619E+02 -0.30695660521E+02 -0.41660067200E+02  0.56401226249E+02  0.00000000000E+00 0.  1.
</event>
<event>
12    1  0.8453150E-002  0.1831352E+03  0.7818608E-02  0.1164809E+00
         21   -1    0    0  503  502  0.00000000000E+00  0.00000000000E+00  0.32901055693E+04  0.32901055693E+04  0.00000000000E+00 0. -1.
         21   -1    0    0  501  503 -0.00000000000E+00 -0.00000000000E+00 -0.14070377090E+02  0.14070377090E+02  0.00000000000E+00 0. -1.
          6    2    1    2  501    0 -0.40854723236E+02  0.47919998997E+02  0.77075944590E+03  0.79221753292E+03  0.17196819857E+03 0.  0.
         24    2    3    3    0    0  0.37614908034E+02  0.20360979930E+02  0.26678968221E+03  0.28140974591E+03  0.78646422360E+02 0.  0.
         -6    2    1    2    0  502  0.40854723236E+02 -0.47919998997E+02  0.25052757463E+04  0.25119584135E+04  0.17193914968E+03 0.  0.
        -24    2    5    5    0    0  0.86232935798E+02 -0.56982439407E+01  0.13845930176E+04  0.13895530824E+04  0.79318063561E+02 0.  0.
          5    1    3    3  501    0 -0.78469631270E+02  0.27559019067E+02  0.50396976369E+03  0.51080778702E+03  0.47000000000E+01 0. -1.
        -11    1    4    4    0    0  0.28019870378E+02  0.10147303870E+02  0.26568662554E+03  0.26735269571E+03  0.00000000000E+00 0.  1.
         12    1    4    4    0    0  0.95950376553E+01  0.10213676060E+02  0.11030566651E+01  0.14057050198E+02  0.00000000000E+00 0. -1.
         -5    1    5    5    0  502 -0.45378212561E+02 -0.42221755056E+02  0.11206827287E+04  0.11224053310E+04  0.47000000000E+01 0.  1.
         11    1    6    6    0    0  0.63085265660E+02 -0.36203624856E+02  0.67040150189E+03  0.67433569306E+03  0.00000000000E+00 0. -1.
        -12    1    6    6    0    0  0.23147670138E+02  0.30505380915E+02  0.71419151576E+03  0.71521738938E+03  0.00000000000E+00 0.  1.
</event>
<event>
12    1  0.8453150E-002  0.3877332E+03  0.7818608E-02  0.1048361E+00
         21   -1    0    0  501  502  0.00000000000E+00  0.00000000000E+00  0.28470367203E+03  0.28470367203E+03  0.00000000000E+00 0. -1.
         21   -1    0    0  502  503 -0.00000000000E+00 -0.00000000000E+00 -0.52486065025E+03  0.52486065025E+03  0.00000000000E+00 0.  1.
         -6    2    1    2    0  503 -0.33432531804E+03  0.82399557357E+02 -0.13276362121E+03  0.40723316247E+03  0.17219048802E+03 0.  0.
        -24    2    3    3    0    0 -0.12675584294E+03  0.68292011286E+02 -0.12242347292E+02  0.16675119367E+03  0.83218044919E+02 0.  0.
          6    2    1    2  501    0  0.33432531804E+03 -0.82399557357E+02 -0.10739335701E+03  0.40233115981E+03  0.17825241566E+03 0.  0.
         24    2    5    5    0    0  0.23241714019E+03 -0.90840642118E+02 -0.13655577820E+03  0.29589307718E+03  0.81458475590E+02 0.  0.
          5    1    5    5  501    0  0.10190817785E+03  0.84410847612E+01  0.29162421195E+02  0.10643808263E+03  0.47000000000E+01 0. -1.
        -13    1    6    6    0    0  0.71247271020E+02  0.29356776234E+01 -0.13754352677E+02  0.72622131947E+02  0.00000000000E+00 0.  1.
         14    1    6    6    0    0  0.16116986917E+03 -0.93776319742E+02 -0.12280142552E+03  0.22327094523E+03  0.00000000000E+00 0. -1.
         -5    1    3    3    0  503 -0.20756947510E+03  0.14107546071E+02 -0.12052127392E+03  0.24048196880E+03  0.47000000000E+01 0.  1.
         13    1    4    4    0    0 -0.13802173143E+03  0.70223168587E+02 -0.10892281076E+02  0.15524153291E+03  0.00000000000E+00 0. -1.
        -14    1    4    4    0    0  0.11265888494E+02 -0.19311573006E+01 -0.13500662154E+01  0.11509660762E+02  0.00000000000E+00 0.  1.
</event>
<event>
12    1  0.8453150E-002  0.2089212E+03  0.7818608E-02  0.1142836E+00
         21   -1    0    0  501  502  0.00000000000E+00  0.00000000000E+00  0.67948997940E+02  0.67948997940E+02  0.00000000000E+00 0. -1.
         21   -1    0    0  502  503 -0.00000000000E+00 -0.00000000000E+00 -0.96362048134E+03  0.96362048134E+03  0.00000000000E+00 0.  1.
         -6    2    1    2    0  503 -0.10132545363E+03  0.61520373798E+02 -0.14564683235E+03  0.25299062673E+03  0.16952773665E+03 0.  0.
        -24    2    3    3    0    0 -0.87185573031E+02  0.83592945768E+02 -0.48676264209E+02  0.15242962165E+03  0.79223141395E+02 0.  0.
          6    2    1    2  501    0  0.10132545363E+03 -0.61520373798E+02 -0.75002465105E+03  0.77857885255E+03  0.17203618373E+03 0.  0.
         24    2    5    5    0    0  0.84141494966E+02 -0.47364766840E+02 -0.26846093506E+03  0.29647785463E+03  0.80651300774E+02 0.  0.
          5    1    5    5  501    0  0.17183958659E+02 -0.14155606959E+02 -0.48156371599E+03  0.48210099793E+03  0.47000000000E+01 0. -1.
        -13    1    6    6    0    0  0.10346918103E+02 -0.22033525285E+02 -0.16557392718E+03  0.16735369823E+03  0.00000000000E+00 0.  1.
         14    1    6    6    0    0  0.73794576863E+02 -0.25331241555E+02 -0.10288700788E+03  0.12912415639E+03  0.00000000000E+00 0. -1.
         -5    1    3    3    0  503 -0.14139880595E+02 -0.22072571970E+02 -0.96970568139E+02  0.10056100508E+03  0.47000000000E+01 0.  1.
         13    1    4    4    0    0 -0.92330479876E+02  0.49557128985E+02 -0.53523910930E+02  0.11766747889E+03  0.00000000000E+00 0. -1.
        -14    1    4    4    0    0  0.51449068453E+01  0.34035816783E+02  0.48476467210E+01  0.34762142760E+02  0.00000000000E+00 0.  1.
</event>
<event>
12    1  0.8453150E-002  0.2337775E+03  0.7818608E-02  0.1124247E+00
         21   -1    0    0  501  502  0.00000000000E+00  0.00000000000E+00  0.20390110470E+03  0.20390110470E+03  0.00000000000E+00 0.  1.
         21   -1    0    0  502  503 -0.00000000000E+00 -0.00000000000E+00 -0.31182710322E+03  0.31182710322E+03  0.00000000000E+00 0. -1.
         -6    2    1    2    0  503 -0.13250070248E+03 -0.85253543609E+02 -0.15219015447E+03  0.27779704756E+03  0.17083545785E+03 0.  0.
        -24    2    3    3    0    0 -0.14263926534E+03 -0.50393648523E+02 -0.16588341087E+03  0.23871254919E+03  0.81122717587E+02 0.  0.
          6    2    1    2  501    0  0.13250070248E+03  0.85253543609E+02  0.44264155958E+02  0.23793116036E+03  0.17270587342E+03 0.  0.
         24    2    5    5    0    0  0.11623412779E+03  0.66647670727E+02  0.93692461593E+02  0.18246921525E+03  0.81021310018E+02 0.  0.
          5    1    5    5  501    0  0.16266574689E+02  0.18605872882E+02 -0.49428305635E+02  0.55461945113E+02  0.47000000000E+01 0. -1.
        -11    1    6    6    0    0  0.63421659350E+02  0.64711673521E+02  0.92678174870E+02  0.12961154139E+03  0.00000000000E+00 0.  1.
         12    1    6    6    0    0  0.52812468439E+02  0.19359972062E+01  0.10142867228E+01  0.52857673855E+02  0.00000000000E+00 0. -1.
         -5    1    3    3    0  503  0.10138562860E+02 -0.34859895086E+02  0.13693256401E+02  0.39084498374E+02  0.47000000000E+01 0.  1.
         13    1    4    4    0    0 -0.11722503699E+02 -0.36116430236E+02 -0.53378597925E+02  0.65506399248E+02  0.00000000000E+00 0. -1.
        -14    1    4    4    0    0 -0.13091676164E+03 -0.14277218287E+02 -0.11250481295E+03  0.17320614994E+03  0.00000000000E+00 0.  1.
</event>
<event>
12    1  0.8453150E-002  0.1895679E+03  0.7818608E-02  0.1159393E+00
         21   -1    0    0  501  502  0.00000000000E+00  0.00000000000E+00  0.82470293577E+03  0.82470293577E+03  0.00000000000E+00 0.  1.
         21   -1    0    0  502  503 -0.00000000000E+00 -0.00000000000E+00 -0.45419427911E+02  0.45419427911E+02  0.00000000000E+00 0.  1.
         -6    2    1    2    0  503  0.46443704565E+02  0.61557229222E+02  0.49175805334E+03  0.52703127927E+03  0.17317527576E+03 0.  0.
        -24    2    3    3    0    0  0.41014568647E+02  0.90965543824E+02  0.22491621829E+03  0.25847778475E+03  0.79161448659E+02 0.  0.
          6    2    1    2  501    0 -0.46443704565E+02 -0.61557229222E+02  0.28752545451E+03  0.34309108441E+03  0.17057049876E+03 0.  0.
         24    2    5    5    0    0 -0.81900568232E+02  0.18337347342E+01  0.23100787843E+03  0.25093941650E+03  0.53804137361E+02 0.  0.
          5    1    5    5  501    0  0.35456863667E+02 -0.63390963956E+02  0.56517576083E+02  0.92151667911E+02  0.47000000000E+01 0. -1.
        -11    1    6    6    0    0 -0.56712529882E+02  0.21720196922E+02  0.18598972605E+03  0.19565340835E+03  0.00000000000E+00 0.  1.
         12    1    6    6    0    0 -0.25188038350E+02 -0.19886462188E+02  0.45018152377E+02  0.55286008155E+02  0.00000000000E+00 0. -1.
         -5    1    3    3    0  503  0.54291359179E+01 -0.29408314602E+02  0.26684183505E+03  0.26855349452E+03  0.47000000000E+01 0.  1.
         13    1    4    4    0    0 -0.24374684229E+01  0.42762294820E+02  0.16389008975E+03  0.16939455903E+03  0.00000000000E+00 0. -1.
        -14    1    4    4    0    0  0.43452037070E+02  0.48203249004E+02  0.61026128547E+02  0.89083225725E+02  0.00000000000E+00 0.  1.
</event>
<event>
12    1  0.8453150E-002  0.1910390E+03  0.7818608E-02  0.1157582E+00
         21   -1    0    0  503  502  0.00000000000E+00  0.00000000000E+00  0.41056077351E+03  0.41056077351E+03  0.00000000000E+00 0. -1.
         21   -1    0    0  501  503 -0.00000000000E+00 -0.00000000000E+00 -0.13407406596E+03  0.13407406596E+03  0.00000000000E+00 0. -1.
          6    2    1    2  501    0 -0.72030799925E+02 -0.40562951510E+02 -0.20094659769E+02  0.19185106019E+03  0.17195710155E+03 0.  0.
         24    2    3    3    0    0 -0.82386665833E+00 -0.85225135783E-01 -0.57601614814E+02  0.10164166293E+03  0.83740047734E+02 0.  0.
         -6    2    1    2    0  502  0.72030799925E+02  0.40562951510E+02  0.29658136732E+03  0.35278377928E+03  0.17222688033E+03 0.  0.
        -24    2    5    5    0    0  0.66392191151E+02  0.87310907082E+02  0.25919316183E+03  0.29247513007E+03  0.79558085898E+02 0.  0.
          5    1    3    3  501    0 -0.71206933267E+02 -0.40477726374E+02  0.37506955045E+02  0.90209397262E+02  0.47000000000E+01 0. -1.
        -13    1    4    4    0    0 -0.16800303289E+02 -0.20811760682E+02 -0.68314966128E+02  0.73364256763E+02  0.00000000000E+00 0.  1.
         14    1    4    4    0    0  0.15976436631E+02  0.20726535546E+02  0.10713351314E+02  0.28277406167E+02  0.00000000000E+00 0. -1.
         -5    1    5    5    0  502  0.56386087739E+01 -0.46747955572E+02  0.37388205493E+02  0.60308649206E+02  0.47000000000E+01 0.  1.
         13    1    6    6    0    0  0.20181363143E+02  0.85807817457E+02  0.15153478633E+03  0.17530847219E+03  0.00000000000E+00 0. -1.
        -14    1    6    6    0    0  0.46210828008E+02  0.15030896243E+01  0.10765837550E+03  0.11716665788E+03  0.00000000000E+00 0.  1.
</event>
<event>
12    1  0.8453150E-002  0.1931649E+03  0.7818608E-02  0.1156142E+00
         21   -1    0    0  503  502  0.00000000000E+00  0.00000000000E+00  0.31002012758E+03  0.31002012758E+03  0.00000000000E+00 0. -1.
         21   -1    0    0  501  503 -0.00000000000E+00 -0.00000000000E+00 -0.34076289785E+03  0.34076289785E+03  0.00000000000E+00 0. -1.
          6    2    1    2  501    0 -0.25419221431E+02 -0.82420198307E+02 -0.27786804722E+03  0.33712143824E+03  0.17029676024E+03 0.  0.
         24    2    3    3    0    0  0.17026288564E+02 -0.46165216002E+02 -0.26315948534E+03  0.27920359252E+03  0.79250297656E+02 0.  0.
         -6    2    1    2    0  502  0.25419221431E+02  0.82420198307E+02  0.24712527695E+03  0.31366158718E+03  0.17283941350E+03 0.  0.
        -24    2    5    5    0    0  0.84350564144E+02  0.51474099702E+02  0.15185570472E+03  0.19734759161E+03  0.78238841039E+02 0.  0.
          5    1    3    3  501    0 -0.42445509995E+02 -0.36254982305E+02 -0.14708561880E+02  0.57917845723E+02  0.47000000000E+01 0. -1.
        -13    1    4    4    0    0  0.81396334644E+01 -0.32635739719E+02 -0.26066422388E+03  0.26282538452E+03  0.00000000000E+00 0.  1.
         14    1    4    4    0    0  0.88866550997E+01 -0.13529476283E+02 -0.24952614647E+01  0.16378207995E+02  0.00000000000E+00 0. -1.
         -5    1    5    5    0  502 -0.58931342714E+02  0.30946098605E+02  0.95269572228E+02  0.11631399557E+03  0.47000000000E+01 0.  1.
         13    1    6    6    0    0  0.28946757045E+02 -0.11112430715E+02  0.97880359294E+01  0.32514712165E+02  0.00000000000E+00 0. -1.
        -14    1    6    6    0    0  0.55403807099E+02  0.62586530417E+02  0.14206766880E+03  0.16483287945E+03  0.00000000000E+00 0.  1.
</event>
<event>
12    1  0.8453150E-002  0.1936125E+03  0.7818608E-02  0.1155268E+00
         21   -1    0    0  501  502  0.00000000000E+00  0.00000000000E+00  0.58151047047E+02  0.58151047047E+02  0.00000000000E+00 0. -1.
         21   -1    0    0  502  503 -0.00000000000E+00 -0.00000000000E+00 -0.75966940583E+03  0.75966940583E+03  0.00000000000E+00 0. -1.
         -6    2    1    2    0  503 -0.91678603020E+02  0.18680615810E+02 -0.51005798190E+03  0.54552853395E+03  0.16937622263E+03 0.  0.
        -24    2    3    3    0    0 -0.27260851837E+02 -0.50980701607E+02 -0.28188783882E+03  0.29837261149E+03  0.78887740717E+02 0.  0.
          6    2    1    2  501    0  0.91678603020E+02 -0.18680615810E+02 -0.19146037689E+03  0.27229191893E+03  0.16950481273E+03 0.  0.
         24    2    5    5    0    0 -0.58744818796E+01  0.10843176249E+02 -0.13058672232E+03  0.15348135336E+03  0.79696610809E+02 0.  0.
          5    1    5    5  501    0  0.97553084900E+02 -0.29523792059E+02 -0.60873654565E+02  0.11881056557E+03  0.47000000000E+01 0. -1.
        -13    1    6    6    0    0 -0.32736234524E+01  0.41602895077E+01  0.10739470354E+02  0.11973338832E+02  0.00000000000E+00 0.  1.
         14    1    6    6    0    0 -0.26008584272E+01  0.66828867417E+01 -0.14132619268E+03  0.14150801453E+03  0.00000000000E+00 0. -1.
         -5    1    3    3    0  503 -0.64417751183E+02  0.69661317417E+02 -0.22817014308E+03  0.24715592245E+03  0.47000000000E+01 0.  1.
         13    1    4    4    0    0 -0.14239939052E+02 -0.21872321255E+02 -0.25592378206E+03  0.25725115456E+03  0.00000000000E+00 0. -1.
        -14    1    4    4    0    0 -0.13020912786E+02 -0.29108380352E+02 -0.25964056761E+02  0.41121456929E+02  0.00000000000E+00 0.  1.
</event>
<event>
12    1  0.8453150E-002  0.2144567E+03  0.7818608E-02  0.1138176E+00
         21   -1    0    0  503  502  0.00000000000E+00  0.00000000000E+00  0.17159594437E+04  0.17159594437E+04  0.00000000000E+00 0. -1.
         21   -1    0    0  501  503 -0.00000000000E+00 -0.00000000000E+00 -0.27849247139E+02  0.27849247139E+02  0.00000000000E+00 0. -1.
          6    2    1    2  501    0  0.71090923115E+02  0.10565592795E+03  0.67118343191E+03  0.70461255941E+03  0.17255307924E+03 0.  0.
         24    2    3    3    0    0  0.14048896290E+01  0.98643056231E+02  0.28152972080E+03  0.30868652060E+03  0.79347073339E+02 0.  0.
         -6    2    1    2    0  502 -0.71090923115E+02 -0.10565592795E+03  0.10169267646E+04  0.10391961314E+04  0.17196354392E+03 0.  0.
        -24    2    5    5    0    0 -0.59572969751E+02 -0.62087909103E+02  0.95808538044E+03  0.96493150989E+03  0.75903724405E+02 0.  0.
          5    1    3    3  501    0  0.69686033486E+02  0.70128717144E+01  0.38965371110E+03  0.39592603881E+03  0.47000000000E+01 0. -1.
        -13    1    4    4    0    0 -0.27309881453E+02  0.73662957135E+01  0.93876127149E+02  0.98044985522E+02  0.00000000000E+00 0.  1.
         14    1    4    4    0    0  0.28714771082E+02  0.91276760517E+02  0.18765359365E+03  0.21064153508E+03  0.00000000000E+00 0. -1.
         -5    1    5    5    0  502 -0.11517953364E+02 -0.43568018843E+02  0.58841384202E+02  0.74264621526E+02  0.47000000000E+01 0.  1.
         13    1    6    6    0    0 -0.52989700881E+02 -0.23474016971E+02  0.79882550983E+03  0.80092517318E+03  0.00000000000E+00 0. -1.
        -14    1    6    6    0    0 -0.65832688695E+01 -0.38613892132E+02  0.15925987061E+03  0.16400633671E+03  0.00000000000E+00 0.  1.
</event>
<event>
12    1  0.8453150E-002  0.1889861E+03  0.7818608E-02  0.1159922E+00
         21   -1    0    0  503  502  0.00000000000E+00  0.00000000000E+00  0.21872584291E+02  0.21872584291E+02  0.00000000000E+00 0.  1.
         21   -1    0    0  501  503 -0.00000000000E+00 -0.00000000000E+00 -0.16129623694E+04  0.16129623694E+04  0.00000000000E+00 0. -1.
          6    2    1    2  501    0  0.77685554479E+02  0.43744025672E+01 -0.81549315969E+03  0.83710503039E+03  0.17222531063E+03 0.  0.
         24    2    3    3    0    0  0.11789872775E+03 -0.13768465163E+02 -0.67983263889E+03  0.69437406018E+03  0.76767427343E+02 0.  0.
         -6    2    1    2    0  502 -0.77685554479E+02 -0.43744025672E+01 -0.77559662537E+03  0.79772992326E+03  0.16961345584E+03 0.  0.
        -24    2    5    5    0    0 -0.23175837640E+02 -0.30434242674E+02 -0.67178831416E+03  0.67752726117E+03  0.79248268190E+02 0.  0.
          5    1    3    3  501    0 -0.40213173271E+02  0.18142867731E+02 -0.13566052080E+03  0.14273097021E+03  0.47000000000E+01 0. -1.
        -13    1    4    4    0    0  0.62654148315E+02 -0.44845489327E+02 -0.41203627908E+03  0.41917842918E+03  0.00000000000E+00 0.  1.
         14    1    4    4    0    0  0.55244579436E+02  0.31077024163E+02 -0.26779635981E+03  0.27519563099E+03  0.00000000000E+00 0. -1.
         -5    1    5    5    0  502 -0.54509716839E+02  0.26059840107E+02 -0.10380831121E+03  0.12020266209E+03  0.47000000000E+01 0.  1.
         11    1    6    6    0    0 -0.37198584926E+02 -0.30008372944E+02 -0.20381539169E+03  0.20934409726E+03  0.00000000000E+00 0. -1.
        -12    1    6    6    0    0  0.14022747285E+02 -0.42586973034E+00 -0.46797292247E+03  0.46818316392E+03  0.00000000000E+00 0.  1.
</event>
<event>
12    1  0.8453150E-002  0.3296328E+03  0.7818608E-02  0.1071502E+00
         21   -1    0    0  503  502  0.00000000000E+00  0.00000000000E+00  0.45685745740E+03  0.45685745740E+03  0.00000000000E+00 0. -1.
         21   -1    0    0  501  503 -0.00000000000E+00 -0.00000000000E+00 -0.64500171612E+03  0.64500171612E+03  0.00000000000E+00 0.  1.
          6    2    1    2  501    0  0.16849145698E+03  0.22103396007E+03 -0.53240514401E+03  0.62523212152E+03  0.17382343292E+03 0.  0.
         24    2    3    3    0    0  0.98639359548E+02  0.12557381375E+03 -0.44083560413E+03  0.47556908104E+03  0.79570189289E+02 0.  0.
         -6    2    1    2    0  502 -0.16849145698E+03 -0.22103396007E+03  0.34426088529E+03  0.47662705200E+03  0.17723545632E+03 0.  0.
        -24    2    5    5    0    0 -0.23467433567E+02 -0.36736661210E+02  0.67117902464E+02  0.11354609042E+03  0.80545633664E+02 0.  0.
          5    1    3    3  501    0  0.69852097429E+02  0.95460146321E+02 -0.91569539879E+02  0.14966304048E+03  0.47000000000E+01 0. -1.
        -11    1    4    4    0    0  0.68151808822E+02  0.42331939357E+02 -0.28716569399E+03  0.29816236842E+03  0.00000000000E+00 0.  1.
         12    1    4    4    0    0  0.30487550725E+02  0.83241874396E+02 -0.15366991013E+03  0.17740671262E+03  0.00000000000E+00 0. -1.
         -5    1    5    5    0  502 -0.14502402341E+03 -0.18429729887E+03  0.27714298283E+03  0.36308096158E+03  0.47000000000E+01 0.  1.
         13    1    6    6    0    0 -0.48036180654E+02 -0.14816433194E+02  0.62640503950E+02  0.80317084605E+02  0.00000000000E+00 0. -1.
        -14    1    6    6    0    0  0.24568747087E+02 -0.21920228016E+02  0.44773985143E+01  0.33229005810E+02  0.00000000000E+00 0.  1.
</event>
<event>
12    1  0.8453150E-002  0.2075072E+03  0.7818608E-02  0.1143789E+00
         21   -1    0    0  503  502  0.00000000000E+00  0.00000000000E+00  0.73289108261E+02  0.73289108261E+02  0.00000000000E+00 0. -1.
         21   -1    0    0  501  503 -0.00000000000E+00 -0.00000000000E+00 -0.60034605890E+03  0.60034605890E+03  0.00000000000E+00 0. -1.
          6    2    1    2  501    0 -0.11417810618E+03  0.10915847729E+02 -0.31796676603E+03  0.37905421130E+03  0.17153260664E+03 0.  0.
         24    2    3    3    0    0  0.84729514871E+01 -0.10257206438E+02 -0.12440192660E+03  0.14887815427E+03  0.80696123106E+02 0.  0.
         -6    2    1    2    0  502  0.11417810618E+03 -0.10915847729E+02 -0.20909018461E+03  0.29458095586E+03  0.17292610733E+03 0.  0.
        -24    2    5    5    0    0  0.51379598509E+02  0.15128037259E+02 -0.20967643082E+03  0.22643133961E+03  0.66620006467E+02 0.  0.
          5    1    3    3  501    0 -0.12265105766E+03  0.21173054168E+02 -0.19356483942E+03  0.23017605703E+03  0.47000000000E+01 0. -1.
        -11    1    4    4    0    0  0.11879242210E+02 -0.41413270004E+02 -0.10087004531E+03  0.10968564796E+03  0.00000000000E+00 0.  1.
         12    1    4    4    0    0 -0.34062907231E+01  0.31156063565E+02 -0.23531881299E+02  0.39192506310E+02  0.00000000000E+00 0. -1.
         -5    1    5    5    0  502  0.62798507667E+02 -0.26043884988E+02  0.58624621323E+00  0.68149616251E+02  0.47000000000E+01 0.  1.
         13    1    6    6    0    0  0.43755385171E+02  0.33992848897E+02 -0.95113631806E+02  0.11007565790E+03  0.00000000000E+00 0. -1.
        -14    1    6    6    0    0  0.76242133373E+01 -0.18864811639E+02 -0.11456279902E+03  0.11635568171E+03  0.00000000000E+00 0.  1.
</event>
<event>
12    1  0.8453150E-002  0.2263238E+03  0.7818608E-02  0.1130641E+00
         21   -1    0    0  503  502  0.00000000000E+00  0.00000000000E+00  0.85918427490E+03  0.85918427490E+03  0.00000000000E+00 0. -1.
         21   -1    0    0  501  503 -0.00000000000E+00 -0.00000000000E+00 -0.10722853970E+03  0.10722853970E+03  0.00000000000E+00 0.  1.
          6    2    1    2  501    0 -0.12326090916E+03  0.55521786400E+02  0.50836445115E+02  0.23196294568E+03  0.18151182751E+03 0.  0.
         24    2    3    3    0    0 -0.57943072824E+02  0.10138967690E+03  0.11034460896E+02  0.14265129431E+03  0.81181070284E+02 0.  0.
         -6    2    1    2    0  502  0.12326090916E+03 -0.55521786400E+02  0.70111929008E+03  0.73444986892E+03  0.17196636455E+03 0.  0.
        -24    2    5    5    0    0  0.44758261413E+02  0.33392104681E+02  0.24911496564E+03  0.26711878174E+03  0.78586530854E+02 0.  0.
          5    1    3    3  501    0 -0.65317836335E+02 -0.45867890498E+02  0.39801984219E+02  0.89311651368E+02  0.47000000000E+01 0. -1.
        -13    1    4    4    0    0 -0.32368397849E+02  0.13787317275E+02 -0.26427280560E+02  0.44002323288E+02  0.00000000000E+00 0.  1.
         14    1    4    4    0    0 -0.25574674975E+02  0.87602359622E+02  0.37461741457E+02  0.98648971026E+02  0.00000000000E+00 0. -1.
         -5    1    5    5    0  502  0.78502647746E+02 -0.88913891081E+02  0.45200432444E+03  0.46733108718E+03  0.47000000000E+01 0.  1.
         13    1    6    6    0    0  0.48220745284E+02  0.16971210508E+02  0.24439716689E+03  0.24968627805E+03  0.00000000000E+00 0. -1.
        -14    1    6    6    0    0 -0.34624838706E+01  0.16420894173E+02  0.47177987563E+01  0.17432503696E+02  0.00000000000E+00 0.  1.
</event>
<event>
12    1  0.8453150E-002  0.1808810E+03  0.7818608E-02  0.1167303E+00
         21   -1    0    0  503  502  0.00000000000E+00  0.00000000000E+00  0.60804050195E+02  0.60804050195E+02  0.00000000000E+00 0.  1.
         21   -1    0    0  501  503 -0.00000000000E+00 -0.00000000000E+00 -0.56315536355E+03  0.56315536355E+03  0.00000000000E+00 0.  1.
          6    2    1    2  501    0  0.45141359448E+02 -0.27465207365E+02 -0.32146201606E+03  0.36814915864E+03  0.17147564052E+03 0.  0.
         24    2    3    3    0    0  0.60711960772E+02 -0.76860561841E+02 -0.25837369785E+03  0.28638993553E+03  0.75291030579E+02 0.  0.
         -6    2    1    2    0  502 -0.45141359448E+02  0.27465207365E+02 -0.18088929729E+03  0.25581025510E+03  0.17299095002E+03 0.  0.
        -24    2    5    5    0    0  0.19886688409E+02 -0.14446944147E+02 -0.34892256276E+02  0.90515060255E+02  0.79820498707E+02 0.  0.
          5    1    3    3  501    0 -0.15570601324E+02  0.49395354476E+02 -0.63088318205E+02  0.81759223109E+02  0.47000000000E+01 0. -1.
        -11    1    4    4    0    0  0.77401230264E+01 -0.16239711483E+02 -0.15162280936E+03  0.15268632568E+03  0.00000000000E+00 0.  1.
         12    1    4    4    0    0  0.52971837745E+02 -0.60620850358E+02 -0.10675088850E+03  0.13370360985E+03  0.00000000000E+00 0. -1.
         -5    1    5    5    0  502 -0.65028047857E+02  0.41912151512E+02 -0.14599704102E+03  0.16529519484E+03  0.47000000000E+01 0.  1.
         13    1    6    6    0    0 -0.37843212153E+01 -0.82328849918E+01 -0.56890957848E+02  0.57608007839E+02  0.00000000000E+00 0. -1.
        -14    1    6    6    0    0  0.23671009625E+02 -0.62140591553E+01  0.21998701572E+02  0.32907052416E+02  0.00000000000E+00 0.  1.
</event>
<event>
12    1  0.8453150E-002  0.1870531E+03  0.7818608E-02  0.1161333E+00
         21   -1    0    0  501  502  0.00000000000E+00  0.00000000000E+00  0.93930271815E+02  0.93930271815E+02  0.00000000000E+00 0. -1.
         21   -1    0    0  502  503 -0.00000000000E+00 -0.00000000000E+00 -0.13022129113E+04  0.13022129113E+04  0.00000000000E+00 0. -1.
         -6    2    1    2    0  503 -0.69215801461E+02 -0.31311458897E+02 -0.11941173591E+04  0.12085544484E+04  0.17004808970E+03 0.  0.
        -24    2    3    3    0    0 -0.32913188327E+01  0.26506052306E+02 -0.69616234783E+03  0.70291605462E+03  0.93464226964E+02 0.  0.
          6    2    1    2  501    0  0.69215801461E+02  0.31311458897E+02 -0.14165280436E+02  0.18758873477E+03  0.17093169282E+03 0.  0.
         24    2    5    5    0    0  0.16881979160E+02 -0.18750048261E+01  0.41633209239E+02  0.10406788838E+03  0.93852460899E+02 0.  0.
          5    1    5    5  501    0  0.52333822301E+02  0.33186463723E+02 -0.55798489675E+02  0.83520846386E+02  0.47000000000E+01 0. -1.
        -13    1    6    6    0    0  0.78743923881E+01  0.38708033655E+02 -0.69706833873E+01  0.40111199830E+02  0.00000000000E+00 0.  1.
         14    1    6    6    0    0  0.90075867719E+01 -0.40583038481E+02  0.48603892626E+02  0.63956688550E+02  0.00000000000E+00 0. -1.
         -5    1    3    3    0  503 -0.65924482628E+02 -0.57817511203E+02 -0.49795501123E+03  0.50563839373E+03  0.47000000000E+01 0.  1.
         13    1    4    4    0    0 -0.80826132395E+01  0.53437882003E+02 -0.61283599461E+03  0.61521450906E+03  0.00000000000E+00 0. -1.
        -14    1    4    4    0    0  0.47912944068E+01 -0.26931829697E+02 -0.83326353217E+02  0.87701545558E+02  0.00000000000E+00 0.  1.
</event>
<event>
12    1  0.8453150E-002  0.2473823E+03  0.7818608E-02  0.1115319E+00
         21   -1    0    0  501  502  0.00000000000E+00  0.00000000000E+00  0.38066992229E+03  0.38066992229E+03  0.00000000000E+00 0. -1.
         21   -1    0    0  502  503 -0.00000000000E+00 -0.00000000000E+00 -0.23362543502E+03  0.23362543502E+03  0.00000000000E+00 0.  1.
         -6    2    1    2    0  503  0.13645192214E+03  0.10949629472E+03 -0.99870799863E+02  0.26477399616E+03  0.17182120580E+03 0.  0.
        -24    2    3    3    0    0  0.86361031252E+02  0.87825004766E+02 -0.13537798922E+03  0.19949312105E+03  0.79365270735E+02 0.  0.
          6    2    1    2  501    0 -0.13645192214E+03 -0.10949629472E+03  0.24691528713E+03  0.34952136115E+03  0.17489841985E+03 0.  0.
         24    2    5    5    0    0 -0.76761441396E+02 -0.44884498961E+02  0.28848674884E+02  0.11433467994E+03  0.65827318505E+02 0.  0.
          5    1    5    5  501    0 -0.59690480748E+02 -0.64611795758E+02  0.21806661224E+03  0.23518668121E+03  0.47000000000E+01 0. -1.
        -11    1    6    6    0    0 -0.68345655187E+02 -0.61510784836E+02  0.22679163879E+02  0.94705066962E+02  0.00000000000E+00 0.  1.
         12    1    6    6    0    0 -0.84157862096E+01  0.16626285875E+02  0.61695110048E+01  0.19629612975E+02  0.00000000000E+00 0. -1.
         -5    1    3    3    0  503  0.50090890892E+02  0.21671289954E+02  0.35507189361E+02  0.65280875108E+02  0.47000000000E+01 0.  1.
         13    1    4    4    0    0  0.27150749751E+02  0.79067243682E+02 -0.98483556281E+02  0.12918127996E+03  0.00000000000E+00 0. -1.
        -14    1    4    4    0    0  0.59210281501E+02  0.87577610842E+01 -0.36894432943E+02  0.70311841086E+02  0.00000000000E+00 0.  1.
</event>
<event>
12    1  0.8453150E-002  0.2162195E+03  0.7818608E-02  0.1137280E+00
         21   -1    0    0  503  502  0.00000000000E+00  0.00000000000E+00  0.41510472594E+03  0.41510472594E+03  0.00000000000E+00 0. -1.
         21   -1    0    0  501  503 -0.00000000000E+00 -0.00000000000E+00 -0.12935196060E+03  0.12935196060E+03  0.00000000000E+00 0.  1.
          6    2    1    2  501    0 -0.12761317872E+03 -0.23637463359E+02  0.41563842278E+02  0.22017814577E+03  0.17293643293E+03 0.  0.
         24    2    3    3    0    0 -0.25859419856E+02 -0.63638664792E+02 -0.14524487783E+01  0.10259236919E+03  0.76187238801E+02 0.  0.
         -6    2    1    2    0  502  0.12761317872E+03  0.23637463359E+02  0.24418892306E+03  0.32427854077E+03  0.16936495743E+03 0.  0.
        -24    2    5    5    0    0  0.11166778308E+03 -0.27135392241E+02  0.10386645752E+03  0.17412987163E+03  0.79542114052E+02 0.  0.
          5    1    3    3  501    0 -0.10175375886E+03  0.40001201433E+02  0.43016291056E+02  0.11758577659E+03  0.47000000000E+01 0. -1.
        -11    1    4    4    0    0 -0.41006893140E+02 -0.46770917648E+02  0.25628293675E+02  0.67274760938E+02  0.00000000000E+00 0.  1.
         12    1    4    4    0    0  0.15147473284E+02 -0.16867747144E+02 -0.27080742453E+02  0.35317608249E+02  0.00000000000E+00 0. -1.
         -5    1    5    5    0  502  0.15945395638E+02  0.50772855600E+02  0.14032246554E+03  0.15014866914E+03  0.47000000000E+01 0.  1.
         13    1    6    6    0    0  0.78095551534E+02  0.11536666539E+02  0.92619387384E+02  0.12169782563E+03  0.00000000000E+00 0. -1.
        -14    1    6    6    0    0  0.33572231548E+02 -0.38672058780E+02  0.11247070132E+02  0.52432046002E+02  0.00000000000E+00 0.  1.
</event>
<event>
12    1  0.8453150E-002  0.2121172E+03  0.7818608E-02  0.1139911E+00
         21   -1    0    0  503  502  0.00000000000E+00  0.00000000000E+00  0.22794736819E+03  0.22794736819E+03  0.00000000000E+00 0. -1.
         21   -1    0    0  501  503 -0.00000000000E+00 -0.00000000000E+00 -0.20017124169E+03  0.20017124169E+03  0.00000000000E+00 0. -1.
          6    2    1    2  501    0 -0.68546722568E+02 -0.10370513121E+03 -0.11590211514E+02  0.21237937611E+03  0.17180587586E+03 0.  0.
         24    2    3    3    0    0  0.75619464744E+01 -0.80863260651E+02 -0.49552696434E+02  0.12418912260E+03  0.79821165676E+02 0.  0.
         -6    2    1    2    0  502  0.68546722568E+02  0.10370513121E+03  0.39366338016E+02  0.21573923376E+03  0.17187292108E+03 0.  0.
        -24    2    5    5    0    0  0.15520049543E+02  0.59308803696E+02 -0.41714023143E+02  0.10906694629E+03  0.79982078695E+02 0.  0.
          5    1    3    3  501    0 -0.76108669043E+02 -0.22841870561E+02  0.37962484920E+02  0.88190253518E+02  0.47000000000E+01 0. -1.
        -11    1    4    4    0    0 -0.26274599907E+02 -0.35228086897E+01 -0.24587238566E+02  0.36156563466E+02  0.00000000000E+00 0.  1.
         12    1    4    4    0    0  0.33836546382E+02 -0.77340451961E+02 -0.24965457869E+02  0.88032559131E+02  0.00000000000E+00 0. -1.
         -5    1    5    5    0  502  0.53026673025E+02  0.44396327516E+02  0.81080361159E+02  0.10667228747E+03  0.47000000000E+01 0.  1.
         13    1    6    6    0    0  0.69344408572E+01  0.15167283953E+02 -0.58680205345E+02  0.61004093894E+02  0.00000000000E+00 0. -1.
        -14    1    6    6    0    0  0.85856086861E+01  0.44141519743E+02  0.16966182203E+02  0.48062852395E+02  0.00000000000E+00 0.  1.
</event>
<event>
12    1  0.8453150E-002  0.1741809E+03  0.7818608E-02  0.1173650E+00
         21   -1    0    0  503  502  0.00000000000E+00  0.00000000000E+00  0.33056551337E+03  0.33056551337E+03  0.00000000000E+00 0. -1.
         21   -1    0    0  501  503 -0.00000000000E+00 -0.00000000000E+00 -0.15466392209E+03  0.15466392209E+03  0.00000000000E+00 0. -1.
          6    2    1    2  501    0  0.23232927152E+00 -0.25593357236E+02 -0.67045332247E+02  0.18629434512E+03  0.17191693499E+03 0.  0.
         24    2    3    3    0    0 -0.54428522857E+02 -0.34652047638E+02 -0.37822965718E+01  0.10206744734E+03  0.78995123472E+02 0.  0.
         -6    2    1    2    0  502 -0.23232927152E+00  0.25593357236E+02  0.24294692352E+03  0.29893509034E+03  0.17229018161E+03 0.  0.
        -24    2    5    5    0    0 -0.37771460839E+02  0.20845869245E+02  0.24252087255E+03  0.26080378351E+03  0.85679672951E+02 0.  0.
          5    1    3    3  501    0  0.54660852128E+02  0.90586904015E+01 -0.63263035675E+02  0.84226897782E+02  0.47000000000E+01 0. -1.
        -13    1    4    4    0    0 -0.53720540249E+02  0.45595536210E+01 -0.22733419242E+02  0.58510634284E+02  0.00000000000E+00 0.  1.
         14    1    4    4    0    0 -0.70798260727E+00 -0.39211601259E+02  0.18951122671E+02  0.43556813051E+02  0.00000000000E+00 0. -1.
         -5    1    5    5    0  502  0.37539131567E+02  0.47474879915E+01  0.42605097782E+00  0.38131306829E+02  0.47000000000E+01 0.  1.
         11    1    6    6    0    0 -0.99307407770E+01 -0.31364542103E+02  0.12460623374E+03  0.12887617158E+03  0.00000000000E+00 0. -1.
        -12    1    6    6    0    0 -0.27840720062E+02  0.52210411348E+02  0.11791463880E+03  0.13192761193E+03  0.00000000000E+00 0.  1.
</event>
<event>
12    1  0.8453150E-002  0.1941700E+03  0.7818608E-02  0.1155155E+00
         21   -1    0    0  501  502  0.00000000000E+00  0.00000000000E+00  0.73960420555E+03  0.73960420555E+03  0.00000000000E+00 0. -1.
         21   -1    0    0  502  503 -0.00000000000E+00 -0.00000000000E+00 -0.61612614960E+02  0.61612614960E+02  0.00000000000E+00 0. -1.
         -6    2    1    2    0  503  0.78753372153E+02  0.25951537688E+02  0.17015999393E+03  0.25817906701E+03  0.17557457439E+03 0.  0.
        -24    2    3    3    0    0  0.65526615171E+02  0.50618760201E+02  0.31803124718E+02  0.11694121010E+03  0.76209000108E+02 0.  0.
          6    2    1    2  501    0 -0.78753372153E+02 -0.25951537688E+02  0.50783159666E+03  0.54303775350E+03  0.17355545288E+03 0.  0.
         24    2    5    5    0    0 -0.20313848871E+02  0.32191160595E+02  0.38594769022E+03  0.39581843448E+03  0.79168745138E+02 0.  0.
          5    1    5    5  501    0 -0.58439523282E+02 -0.58142698283E+02  0.12188390644E+03  0.14721931902E+03  0.47000000000E+01 0. -1.
        -13    1    6    6    0    0  0.19427483211E+02 -0.99466215458E+01  0.45326846366E+02  0.50307905796E+02  0.00000000000E+00 0.  1.
         14    1    6    6    0    0 -0.39741332082E+02  0.42137782141E+02  0.34062084386E+03  0.34551052868E+03  0.00000000000E+00 0. -1.
         -5    1    3    3    0  503  0.13226756982E+02 -0.24667222514E+02  0.13835686921E+03  0.14123785691E+03  0.47000000000E+01 0.  1.
         11    1    4    4    0    0  0.56326930452E+02  0.25032646609E+02  0.53918079489E+02  0.81893319546E+02  0.00000000000E+00 0. -1.
        -12    1    4    4    0    0  0.91996847190E+01  0.25586113592E+02 -0.22114954771E+02  0.35047890553E+02  0.00000000000E+00 0.  1.
</event>
<event>
12    1  0.8453150E-002  0.1798785E+03  0.7818608E-02  0.1168588E+00
         21   -1    0    0  501  502  0.00000000000E+00  0.00000000000E+00  0.86287825279E+02  0.86287825279E+02  0.00000000000E+00 0. -1.
         21   -1    0    0  502  503 -0.00000000000E+00 -0.00000000000E+00 -0.36958359347E+03  0.36958359347E+03  0.00000000000E+00 0. -1.
         -6    2    1    2    0  503 -0.42250675336E+02  0.11851010059E+02 -0.13645833548E+03  0.22578122032E+03  0.17444402002E+03 0.  0.
        -24    2    3    3    0    0 -0.62187689720E+02 -0.43574482891E+01 -0.16088913878E+03  0.19001597442E+03  0.79589317421E+02 0.  0.
          6    2    1    2  501    0  0.42250675336E+02 -0.11851010059E+02 -0.14683743271E+03  0.23009019843E+03  0.17162372145E+03 0.  0.
         24    2    5    5    0    0  0.21749690855E+02  0.46177412071E+01 -0.27155397901E+01  0.83513528556E+02  0.80453481648E+02 0.  0.
          5    1    5    5  501    0  0.20500984482E+02 -0.16468751267E+02 -0.14412189292E+03  0.14657666988E+03  0.47000000000E+01 0. -1.
        -11    1    6    6    0    0  0.45925949969E+02  0.16319862364E+02 -0.18761933834E+02  0.52225864754E+02  0.00000000000E+00 0.  1.
         12    1    6    6    0    0 -0.24176259114E+02 -0.11702121157E+02  0.16046394044E+02  0.31287663801E+02  0.00000000000E+00 0. -1.
         -5    1    3    3    0  503  0.19937014384E+02  0.16208458349E+02  0.24430803299E+02  0.35765245902E+02  0.47000000000E+01 0.  1.
         13    1    4    4    0    0 -0.43518135926E+02  0.15203108810E+02 -0.26997608055E+02  0.53421283330E+02  0.00000000000E+00 0. -1.
        -14    1    4    4    0    0 -0.18669553794E+02 -0.19560557099E+02 -0.13389153073E+03  0.13659469109E+03  0.00000000000E+00 0.  1.
</event>
<event>
12    1  0.8453150E-002  0.1955383E+03  0.7818608E-02  0.1154920E+00
         21   -1    0    0  501  502  0.00000000000E+00  0.00000000000E+00  0.70086546845E+02  0.70086546845E+02  0.00000000000E+00 0.  1.
         21   -1    0    0  502  503 -0.00000000000E+00 -0.00000000000E+00 -0.55913766673E+03  0.55913766673E+03  0.00000000000E+00 0.  1.
         -6    2    1    2    0  503  0.75690636758E+02 -0.52589191611E+02 -0.31447703420E+03  0.36709575392E+03  0.16543515931E+03 0.  0.
        -24    2    3    3    0    0  0.85228514964E+02 -0.88108994371E+02 -0.28349327975E+03  0.31877691133E+03  0.78887165512E+02 0.  0.
          6    2    1    2  501    0 -0.75690636758E+02  0.52589191611E+02 -0.17457408569E+03  0.26212845966E+03  0.17245440674E+03 0.  0.
         24    2    5    5    0    0 -0.54048048648E+02  0.10014231707E+03 -0.10252775903E+03  0.17300795390E+03  0.80437152555E+02 0.  0.
          5    1    5    5  501    0 -0.21642588109E+02 -0.47553125463E+02 -0.72046326661E+02  0.89120505759E+02  0.47000000000E+01 0. -1.
        -11    1    6    6    0    0 -0.10895764184E+02  0.27054228854E+02  0.11076634872E+02  0.31198410475E+02  0.00000000000E+00 0.  1.
         12    1    6    6    0    0 -0.43152284464E+02  0.73088088220E+02 -0.11360439390E+03  0.14180954343E+03  0.00000000000E+00 0. -1.
         -5    1    3    3    0  503 -0.95378782061E+01  0.35519802761E+02 -0.30983754451E+02  0.48318842584E+02  0.47000000000E+01 0.  1.
         11    1    4    4    0    0  0.46442593435E+02 -0.39312637491E+02 -0.55296144857E+02  0.82219593696E+02  0.00000000000E+00 0. -1.
        -12    1    4    4    0    0  0.38785921529E+02 -0.48796356880E+02 -0.22819713489E+03  0.23655731764E+03  0.00000000000E+00 0.  1.
</event>
<event>
12    1  0.8453150E-002  0.1744278E+03  0.7818608E-02  0.1173776E+00
         21   -1    0    0  503  502  0.00000000000E+00  0.00000000000E+00  0.18765173652E+03  0.18765173652E+03  0.00000000000E+00 0.  1.
         21   -1    0    0  501  503 -0.00000000000E+00 -0.00000000000E+00 -0.24175044537E+03  0.24175044537E+03  0.00000000000E+00 0.  1.
          6    2    1    2  501    0  0.30766287915E+02 -0.43784439181E+01 -0.15167284918E+03  0.23114870580E+03  0.17163722140E+03 0.  0.
         24    2    3    3    0    0  0.78057753631E+02 -0.35562201409E+02 -0.10001163580E+03  0.15433802667E+03  0.80375469575E+02 0.  0.
         -6    2    1    2    0  502 -0.30766287915E+02  0.43784439181E+01  0.97574140327E+02  0.19825347609E+03  0.16975863064E+03 0.  0.
        -24    2    5    5    0    0  0.45655013696E+02 -0.90929311455E+01  0.66452096287E+02  0.11451361156E+03  0.80811041688E+02 0.  0.
          5    1    3    3  501    0 -0.47291465716E+02  0.31183757491E+02 -0.51661213384E+02  0.76810679135E+02  0.47000000000E+01 0. -1.
        -13    1    4    4    0    0  0.58302595374E+02  0.16387844277E+02 -0.40201972948E+02  0.72690802006E+02  0.00000000000E+00 0.  1.
         14    1    4    4    0    0  0.19755158256E+02 -0.51950045686E+02 -0.59809662850E+02  0.81647224660E+02  0.00000000000E+00 0. -1.
         -5    1    5    5    0  502 -0.76421301611E+02  0.13471375064E+02  0.31122044041E+02  0.83739864529E+02  0.47000000000E+01 0.  1.
         11    1    6    6    0    0  0.33985796171E+02  0.32419617945E+02  0.19761275926E+02  0.50956589321E+02  0.00000000000E+00 0. -1.
        -12    1    6    6    0    0  0.11669217525E+02 -0.41512549090E+02  0.46690820361E+02  0.63557022237E+02  0.00000000000E+00 0.  1.
</event>
<event>
12    1  0.8453150E-002  0.1939572E+03  0.7818608E-02  0.1155461E+00
         21   -1    0    0  501  502  0.00000000000E+00  0.00000000000E+00  0.27488362748E+02  0.27488362748E+02  0.00000000000E+00 0.  1.
         21   -1    0    0  502  503 -0.00000000000E+00 -0.00000000000E+00 -0.14088837149E+04  0.14088837149E+04  0.00000000000E+00 0. -1.
         -6    2    1    2    0  503  0.48518849569E+02  0.69794246733E+02 -0.83912312294E+03  0.86124736214E+03  0.17433900224E+03 0.  0.
        -24    2    3    3    0    0  0.22938423499E+02 -0.11804101081E+02 -0.62300788002E+03  0.62878115646E+03  0.81002568294E+02 0.  0.
          6    2    1    2  501    0 -0.48518849569E+02 -0.69794246733E+02 -0.54227222917E+03  0.57512471547E+03  0.17170891698E+03 0.  0.
         24    2    5    5    0    0 -0.26521383543E+02 -0.57935493016E+02 -0.16894507418E+03  0.20093255467E+03  0.88156385467E+02 0.  0.
          5    1    5    5  501    0 -0.21997466026E+02 -0.11858753717E+02 -0.37332715499E+03  0.37419216080E+03  0.47000000000E+01 0. -1.
        -13    1    6    6    0    0  0.73916028497E+01 -0.70366510234E+02 -0.93180127697E+02  0.11699836645E+03  0.00000000000E+00 0.  1.
         14    1    6    6    0    0 -0.33912986393E+02  0.12431017218E+02 -0.75764946485E+02  0.83934188213E+02  0.00000000000E+00 0. -1.
         -5    1    3    3    0  503  0.25580426069E+02  0.81598347814E+02 -0.21611524292E+03  0.23246620569E+03  0.47000000000E+01 0.  1.
         13    1    4    4    0    0  0.37224587132E+02  0.25385842402E+02 -0.34691612746E+03  0.34982983059E+03  0.00000000000E+00 0. -1.
        -14    1    4    4    0    0 -0.14286163633E+02 -0.37189943483E+02 -0.27609175256E+03  0.27895132586E+03  0.00000000000E+00 0.  1.
</event>
<event>
12    1  0.8453150E-002  0.1947444E+03  0.7818608E-02  0.1154533E+00
         21   -1    0    0  503  502  0.00000000000E+00  0.00000000000E+00  0.11526962575E+03  0.11526962575E+03  0.00000000000E+00 0. -1.
         21   -1    0    0  501  503 -0.00000000000E+00 -0.00000000000E+00 -0.32761749826E+03  0.32761749826E+03  0.00000000000E+00 0. -1.
          6    2    1    2  501    0 -0.14276511358E+02 -0.87645389609E+02 -0.11730209892E+03  0.22734368426E+03  0.17332003711E+03 0.  0.
         24    2    3    3    0    0  0.29772531527E+02 -0.11049712266E+03 -0.10746003869E+03  0.17653545626E+03  0.80753264043E+02 0.  0.
         -6    2    1    2    0  502  0.14276511358E+02  0.87645389609E+02 -0.95045773590E+02  0.21554343975E+03  0.17187129558E+03 0.  0.
        -24    2    5    5    0    0  0.38072872503E+02  0.63840284029E+02 -0.12794422468E+03  0.16824282729E+03  0.80067464179E+02 0.  0.
          5    1    3    3  501    0 -0.44049042885E+02  0.22851733049E+02 -0.98420602297E+01  0.50808227995E+02  0.47000000000E+01 0. -1.
        -13    1    4    4    0    0  0.51901814771E+01 -0.11136945978E+03 -0.69746494835E+02  0.13150919397E+03  0.00000000000E+00 0.  1.
         14    1    4    4    0    0  0.24582350050E+02  0.87233712731E+00 -0.37713543857E+02  0.45026262295E+02  0.00000000000E+00 0. -1.
         -5    1    5    5    0  502 -0.23796361145E+02  0.23805105580E+02  0.32898451086E+02  0.47300612461E+02  0.47000000000E+01 0.  1.
         13    1    6    6    0    0 -0.21725207977E+02  0.51571765912E+01 -0.45577765092E+02  0.50753460994E+02  0.00000000000E+00 0. -1.
        -14    1    6    6    0    0  0.59798080480E+02  0.58683107438E+02 -0.82366459583E+02  0.11748936629E+03  0.00000000000E+00 0.  1.
</event>
<event>
12    1  0.8453150E-002  0.1805923E+03  0.7818608E-02  0.1167287E+00
         21   -1    0    0  501  502  0.00000000000E+00  0.00000000000E+00  0.45526495885E+03  0.45526495885E+03  0.00000000000E+00 0. -1.
         21   -1    0    0  502  503 -0.00000000000E+00 -0.00000000000E+00 -0.73323170335E+02  0.73323170335E+02  0.00000000000E+00 0. -1.
         -6    2    1    2    0  503  0.54102999862E+02 -0.90018037907E+01  0.14993205053E+03  0.23471939706E+03  0.17206222280E+03 0.  0.
        -24    2    3    3    0    0  0.99675390510E+02  0.24620931069E+02  0.93997722769E+02  0.15498188951E+03  0.68135456778E+02 0.  0.
          6    2    1    2  501    0 -0.54102999862E+02  0.90018037907E+01  0.23200973798E+03  0.29386873212E+03  0.17182009816E+03 0.  0.
         24    2    5    5    0    0  0.41232721932E+01  0.31635246926E+02  0.46937066872E+02  0.98480515744E+02  0.80483125642E+02 0.  0.
          5    1    5    5  501    0 -0.58226272056E+02 -0.22633443136E+02  0.18507267111E+03  0.19538821638E+03  0.47000000000E+01 0. -1.
        -13    1    6    6    0    0  0.24591993184E+02 -0.19482020850E+02  0.14377891280E+02  0.34511433219E+02  0.00000000000E+00 0.  1.
         14    1    6    6    0    0 -0.20468720991E+02  0.51117267776E+02  0.32559175592E+02  0.63969082525E+02  0.00000000000E+00 0. -1.
         -5    1    3    3    0  503 -0.45572390647E+02 -0.33622734860E+02  0.55934327757E+02  0.79737507551E+02  0.47000000000E+01 0.  1.
         11    1    4    4    0    0  0.35851525641E+01  0.26841895695E+02  0.22003344052E+02  0.34892518293E+02  0.00000000000E+00 0. -1.
        -12    1    4    4    0    0  0.96090237945E+02 -0.22209646258E+01  0.71994378717E+02  0.12008937122E+03  0.00000000000E+00 0.  1.
</event>
<event>
12    1  0.8453150E-002  0.1752293E+03  0.7818608E-02  0.1172733E+00
         21   -1    0    0  503  502  0.00000000000E+00  0.00000000000E+00  0.24841029541E+03  0.24841029541E+03  0.00000000000E+00 0. -1.
         21   -1    0    0  501  503 -0.00000000000E+00 -0.00000000000E+00 -0.23444554923E+03  0.23444554923E+03  0.00000000000E+00 0. -1.
          6    2    1    2  501    0 -0.70130160697E+01  0.34274974913E+02 -0.15949482778E+03  0.23694706366E+03  0.17170135291E+03 0.  0.
         24    2    3    3    0    0 -0.58447852409E+02  0.59445708809E+02 -0.11756966977E+03  0.16582099876E+03  0.82000198982E+02 0.  0.
         -6    2    1    2    0  502  0.70130160697E+01 -0.34274974913E+02  0.17345957396E+03  0.24590878098E+03  0.17075991470E+03 0.  0.
        -24    2    5    5    0    0 -0.49743460337E+02 -0.57064321056E+02  0.13201429313E+03  0.17187869781E+03  0.79898464227E+02 0.  0.
          5    1    3    3  501    0  0.51434836339E+02 -0.25170733896E+02 -0.41925158004E+02  0.71126064897E+02  0.47000000000E+01 0. -1.
        -11    1    4    4    0    0 -0.60029124521E+02  0.26335262015E+01 -0.61735235495E+02  0.86149118119E+02  0.00000000000E+00 0.  1.
         12    1    4    4    0    0  0.15812721128E+01  0.56812182607E+02 -0.55834434279E+02  0.79671880644E+02  0.00000000000E+00 0. -1.
         -5    1    5    5    0  502  0.56756476407E+02  0.22789346143E+02  0.41445280826E+02  0.74030083172E+02  0.47000000000E+01 0.  1.
         11    1    6    6    0    0 -0.30549559975E+02  0.61781980084E+01  0.85655052847E+02  0.91149513567E+02  0.00000000000E+00 0. -1.
        -12    1    6    6    0    0 -0.19193900362E+02 -0.63242519064E+02  0.46359240284E+02  0.80729184242E+02  0.00000000000E+00 0.  1.
</event>
<event>
12    1  0.8453150E-002  0.3060896E+03  0.7818608E-02  0.1082240E+00
         21   -1    0    0  501  502  0.00000000000E+00  0.00000000000E+00  0.82020134614E+03  0.82020134614E+03  0.00000000000E+00 0. -1.
         21   -1    0    0  502  503 -0.00000000000E+00 -0.00000000000E+00 -0.14416557564E+03  0.14416557564E+03  0.00000000000E+00 0. -1.
         -6    2    1    2    0  503 -0.25244000382E+03  0.13193409924E+02  0.11825865214E+03  0.32814017395E+03  0.17260024149E+03 0.  0.
        -24    2    3    3    0    0 -0.25158195332E+03 -0.26958347786E+02  0.10133889568E+03  0.28430790209E+03  0.80877559699E+02 0.  0.
          6    2    1    2  501    0  0.25244000382E+03 -0.13193409924E+02  0.55777711836E+03  0.63622674782E+03  0.17253735619E+03 0.  0.
         24    2    5    5    0    0  0.20160845525E+03 -0.67483271714E+02  0.41258969913E+03  0.47303142888E+03  0.91260679833E+02 0.  0.
          5    1    5    5  501    0  0.50831548570E+02  0.54289861791E+02  0.14518741923E+03  0.16319531894E+03  0.47000000000E+01 0. -1.
        -11    1    6    6    0    0  0.74796607578E+02 -0.48665318497E+02  0.25330832220E+03  0.26856647562E+03  0.00000000000E+00 0.  1.
         12    1    6    6    0    0  0.12681184767E+03 -0.18817953218E+02  0.15928137694E+03  0.20446495326E+03  0.00000000000E+00 0. -1.
         -5    1    3    3    0  503 -0.85805049977E+00  0.40151757710E+02  0.16919756457E+02  0.43832271860E+02  0.47000000000E+01 0.  1.
         11    1    4    4    0    0 -0.14667107920E+03  0.20007330484E+02  0.76831180828E+02  0.16678048175E+03  0.00000000000E+00 0. -1.
        -12    1    4    4    0    0 -0.10491087412E+03 -0.46965678270E+02  0.24507714851E+02  0.11752742034E+03  0.00000000000E+00 0.  1.
</event>
<event>
12    1  0.8453150E-002  0.2150717E+03  0.7818608E-02  0.1137913E+00
         21   -1    0    0  503  502  0.00000000000E+00  0.00000000000E+00  0.13210405018E+04  0.13210405018E+04  0.00000000000E+00 0. -1.
         21   -1    0    0  501  503 -0.00000000000E+00 -0.00000000000E+00 -0.41287232087E+02  0.41287232087E+02  0.00000000000E+00 0. -1.
          6    2    1    2  501    0 -0.72389567629E+02 -0.10457578521E+03  0.36708863763E+03  0.42466437594E+03  0.17149174897E+03 0.  0.
         24    2    3    3    0    0 -0.67015203408E+02 -0.10855215293E+03  0.17055981897E+03  0.22796571846E+03  0.81259519763E+02 0.  0.
         -6    2    1    2    0  502  0.72389567629E+02  0.10457578521E+03  0.91266463211E+03  0.93766335798E+03  0.17343441938E+03 0.  0.
        -24    2    5    5    0    0  0.66741299770E+02  0.14392512014E+03  0.77948223266E+03  0.79859533644E+03  0.70662005706E+02 0.  0.
          5    1    3    3  501    0 -0.53743642218E+01  0.39763677270E+01  0.19652881866E+03  0.19669865748E+03  0.47000000000E+01 0. -1.
        -11    1    4    4    0    0  0.98585088380E+01 -0.57413504035E+02  0.55706792402E+02  0.80602402953E+02  0.00000000000E+00 0.  1.
         12    1    4    4    0    0 -0.76873712246E+02 -0.51138648898E+02  0.11485302657E+03  0.14736331551E+03  0.00000000000E+00 0. -1.
         -5    1    5    5    0  502  0.56482678589E+01 -0.39349334934E+02  0.13318239946E+03  0.13906802154E+03  0.47000000000E+01 0.  1.
         11    1    6    6    0    0  0.66266627876E+02  0.60005485266E+02  0.42745542931E+03  0.43670363896E+03  0.00000000000E+00 0. -1.
        -12    1    6    6    0    0  0.47467189475E+00  0.83919634874E+02  0.35202680335E+03  0.36189169748E+03  0.00000000000E+00 0.  1.
</event>
<event>
12    1  0.8453150E-002  0.1843044E+03  0.7818608E-02  0.1163920E+00
         21   -1    0    0  503  502  0.00000000000E+00  0.00000000000E+00  0.23192379512E+04  0.23192379512E+04  0.00000000000E+00 0.  1.
         21   -1    0    0  501  503 -0.00000000000E+00 -0.00000000000E+00 -0.13483673206E+03  0.13483673206E+03  0.00000000000E+00 0.  1.
          6    2    1    2  501    0  0.54077421882E+02  0.34906488962E+02 -0.66932869311E+02  0.19520919946E+03  0.17170845066E+03 0.  0.
         24    2    3    3    0    0  0.10107066286E+03  0.17062097283E+02 -0.53879894243E+02  0.14306270225E+03  0.84008926415E+02 0.  0.
         -6    2    1    2    0  502 -0.54077421882E+02 -0.34906488962E+02  0.22513340884E+04  0.22588654838E+04  0.17269992930E+03 0.  0.
        -24    2    5    5    0    0 -0.96616657295E+01  0.26950778090E+02  0.63054358579E+03  0.63628019347E+03  0.80296816898E+02 0.  0.
          5    1    3    3  501    0 -0.46993240981E+02  0.17844391679E+02 -0.13052975068E+02  0.52146497201E+02  0.47000000000E+01 0. -1.
        -11    1    4    4    0    0  0.31260406215E+02 -0.33736216981E+02 -0.22491030143E+02  0.51197575819E+02  0.00000000000E+00 0.  1.
         12    1    4    4    0    0  0.69810256648E+02  0.50798314265E+02 -0.31388864100E+02  0.91865126435E+02  0.00000000000E+00 0. -1.
         -5    1    5    5    0  502 -0.44415756152E+02 -0.61857267053E+02  0.16207905026E+04  0.16225852903E+04  0.47000000000E+01 0.  1.
         13    1    6    6    0    0  0.32515841244E+02  0.14975746988E+02  0.40042000725E+03  0.40201708314E+03  0.00000000000E+00 0. -1.
        -14    1    6    6    0    0 -0.42177506973E+02  0.11975031102E+02  0.23012357853E+03  0.23426311033E+03  0.00000000000E+00 0.  1.
</event>
<event>
12    1  0.8453150E-002  0.1869473E+03  0.7818608E-02  0.1161252E+00
         21   -1    0    0  503  502  0.00000000000E+00  0.00000000000E+00  0.89203255251E+02  0.89203255251E+02  0.00000000000E+00 0.  1.
         21   -1    0    0  501  503 -0.00000000000E+00 -0.00000000000E+00 -0.58850507332E+03  0.58850507332E+03  0.00000000000E+00 0. -1.
          6    2    1    2  501    0  0.75722830303E+02 -0.43466441364E+01 -0.44558115298E+03  0.48319559721E+03  0.17082909861E+03 0.  0.
         24    2    3    3    0    0  0.49944351525E+02 -0.33219717752E+02 -0.11741820467E+03  0.15272442602E+03  0.77069628374E+02 0.  0.
         -6    2    1    2    0  502 -0.75722830303E+02  0.43466441364E+01 -0.53720665092E+02  0.19451273136E+03  0.17086969438E+03 0.  0.
        -24    2    5    5    0    0  0.17401814433E+02 -0.27246960771E+02 -0.42115807664E+02  0.95380909808E+02  0.79237343998E+02 0.  0.
          5    1    3    3  501    0  0.25778478778E+02  0.28873073616E+02 -0.32816294831E+03  0.33047117119E+03  0.47000000000E+01 0. -1.
        -11    1    4    4    0    0 -0.81790680245E+00 -0.25547163394E+02 -0.11040115288E+01  0.25584084320E+02  0.00000000000E+00 0.  1.
         12    1    4    4    0    0  0.50762258327E+02 -0.76725543580E+01 -0.11631419314E+03  0.12714034170E+03  0.00000000000E+00 0. -1.
         -5    1    5    5    0  502 -0.93124644736E+02  0.31593604908E+02 -0.11604857427E+02  0.99131821552E+02  0.47000000000E+01 0.  1.
         13    1    6    6    0    0  0.37994834422E+01 -0.36847261896E+02 -0.60273099240E+02  0.70746047774E+02  0.00000000000E+00 0. -1.
        -14    1    6    6    0    0  0.13602330991E+02  0.96003011242E+01  0.18157291576E+02  0.24634862034E+02  0.00000000000E+00 0.  1.
</event>
<event>
12    1  0.8453150E-002  0.2989572E+03  0.7818608E-02  0.1085809E+00
         21   -1    0    0  503  502  0.00000000000E+00  0.00000000000E+00  0.12137904438E+04  0.12137904438E+04  0.00000000000E+00 0.  1.
         21   -1    0    0  501  503 -0.00000000000E+00 -0.00000000000E+00 -0.73659669874E+02  0.73659669874E+02  0.00000000000E+00 0. -1.
          6    2    1    2  501    0  0.60538021024E+02 -0.23641863955E+03  0.54402841540E+03  0.62058175114E+03  0.17203536839E+03 0.  0.
         24    2    3    3    0    0 -0.28704683229E+02 -0.77703823043E+02  0.23871273678E+03  0.26506184052E+03  0.80075999172E+02 0.  0.
         -6    2    1    2    0  502 -0.60538021024E+02  0.23641863955E+03  0.59610235852E+03  0.66686836252E+03  0.17267531956E+03 0.  0.
        -24    2    5    5    0    0 -0.57041384480E+02  0.20739023312E+03  0.59446925193E+03  0.63720977381E+03  0.79863483602E+02 0.  0.
          5    1    3    3  501    0  0.89242704252E+02 -0.15871481651E+03  0.30531567861E+03  0.35551991062E+03  0.47000000000E+01 0. -1.
        -13    1    4    4    0    0  0.96922844036E+01 -0.45713137625E+02  0.18854128151E+03  0.19424583950E+03  0.00000000000E+00 0.  1.
         14    1    4    4    0    0 -0.38396967632E+02 -0.31990685417E+02  0.50171455272E+02  0.70816001023E+02  0.00000000000E+00 0. -1.
         -5    1    5    5    0  502 -0.34966365439E+01  0.29028406432E+02  0.16331065874E+01  0.29658588709E+02  0.47000000000E+01 0.  1.
         13    1    6    6    0    0 -0.35112046606E+02  0.12646265698E+03  0.24629709441E+03  0.27908407002E+03  0.00000000000E+00 0. -1.
        -14    1    6    6    0    0 -0.21929337874E+02  0.80927576139E+02  0.34817215752E+03  0.35812570379E+03  0.00000000000E+00 0.  1.
</event>
<event>
12    1  0.8453150E-002  0.1806113E+03  0.7818608E-02  0.1168716E+00
         21   -1    0    0  503  502  0.00000000000E+00  0.00000000000E+00  0.39121428370E+03  0.39121428370E+03  0.00000000000E+00 0.  1.
         21   -1    0    0  501  503 -0.00000000000E+00 -0.00000000000E+00 -0.81853731940E+02  0.81853731940E+02  0.00000000000E+00 0. -1.
          6    2    1    2  501    0 -0.30601797350E+02 -0.27756044370E+02  0.12779040968E+03  0.22124832121E+03  0.17582253221E+03 0.  0.
         24    2    3    3    0    0 -0.82371647971E+01  0.53843286768E+02  0.39179274244E+02  0.98640609566E+02  0.72304936979E+02 0.  0.
         -6    2    1    2    0  502  0.30601797350E+02  0.27756044370E+02  0.18157014209E+03  0.25181969443E+03  0.16952455282E+03 0.  0.
        -24    2    5    5    0    0  0.29503735475E+02 -0.21356601584E+02  0.18169504958E+03  0.20247029389E+03  0.81575449905E+02 0.  0.
          5    1    3    3  501    0 -0.22364632553E+02 -0.81599331138E+02  0.88611135435E+02  0.12260771164E+03  0.47000000000E+01 0. -1.
        -13    1    4    4    0    0 -0.80562300307E+01  0.24671275428E+02  0.58261925327E+02  0.63781083531E+02  0.00000000000E+00 0.  1.
         14    1    4    4    0    0 -0.18093476644E+00  0.29172011340E+02 -0.19082651084E+02  0.34859526035E+02  0.00000000000E+00 0. -1.
         -5    1    5    5    0  502  0.10980618752E+01  0.49112645954E+02 -0.12490749237E+00  0.49349400547E+02  0.47000000000E+01 0.  1.
         11    1    6    6    0    0  0.30379961903E+02  0.16468529936E+02  0.28863401798E+02  0.45024998909E+02  0.00000000000E+00 0. -1.
        -12    1    6    6    0    0 -0.87622642749E+00 -0.37825131520E+02  0.15283164778E+03  0.15744529498E+03  0.00000000000E+00 0.  1.
</event>
<event>
12    1  0.8453150E-002  0.1781894E+03  0.7818608E-02  0.1169911E+00
         21   -1    0    0  501  502  0.00000000000E+00  0.00000000000E+00  0.37739673795E+03  0.37739673795E+03  0.00000000000E+00 0.  1.
         21   -1    0    0  502  503 -0.00000000000E+00 -0.00000000000E+00 -0.11341553990E+03  0.11341553990E+03  0.00000000000E+00 0.  1.
         -6    2    1    2    0  503 -0.42296876442E+02 -0.34131644953E+01  0.62826666861E+01  0.17830007741E+03  0.17306290838E+03 0.  0.
        -24    2    3    3    0    0 -0.61349754761E+02  0.55750061479E+02 -0.39091060469E+01  0.11513947489E+03  0.79812002875E+02 0.  0.
          6    2    1    2  501    0  0.42296876442E+02  0.34131644953E+01  0.25769853136E+03  0.31251220044E+03  0.17162361991E+03 0.  0.
         24    2    5    5    0    0  0.54737910019E+02  0.52877602595E+02  0.22663361622E+03  0.25260703451E+03  0.81579643492E+02 0.  0.
          5    1    5    5  501    0 -0.12441033577E+02 -0.49464438100E+02  0.31064915139E+02  0.59905165934E+02  0.47000000000E+01 0. -1.
        -11    1    6    6    0    0  0.81372793986E+01  0.29802561099E+02  0.14379917005E+02  0.34076237720E+02  0.00000000000E+00 0.  1.
         12    1    6    6    0    0  0.46600630620E+02  0.23075041496E+02  0.21225369922E+03  0.21853079679E+03  0.00000000000E+00 0. -1.
         -5    1    3    3    0  503  0.19052878319E+02 -0.59163225974E+02  0.10191772733E+02  0.63160602525E+02  0.47000000000E+01 0.  1.
         13    1    4    4    0    0 -0.21161196726E+02  0.38325380991E+01  0.33324929857E+02  0.39661512139E+02  0.00000000000E+00 0. -1.
        -14    1    4    4    0    0 -0.40188558035E+02  0.51917523380E+02 -0.37234035904E+02  0.75477962748E+02  0.00000000000E+00 0.  1.
</event>
<event>
12    1  0.8453150E-002  0.1955480E+03  0.7818608E-02  0.1153775E+00
         21   -1    0    0  501  502  0.00000000000E+00  0.00000000000E+00  0.12148577581E+04  0.12148577581E+04  0.00000000000E+00 0.  1.
         21   -1    0    0  502  503 -0.00000000000E+00 -0.00000000000E+00 -0.33286463671E+02  0.33286463671E+02  0.00000000000E+00 0.  1.
         -6    2    1    2    0  503  0.43917679702E+02 -0.80015281154E+02  0.43726048663E+03  0.47857447738E+03  0.17177191106E+03 0.  0.
        -24    2    3    3    0    0  0.11169904177E+02  0.12358442829E+01  0.13290704462E+03  0.16182967498E+03  0.91642059800E+02 0.  0.
          6    2    1    2  501    0 -0.43917679702E+02  0.80015281154E+02  0.74431080781E+03  0.76956974440E+03  0.17293873209E+03 0.  0.
         24    2    5    5    0    0  0.33979772774E+02  0.90274491271E+01  0.39353475267E+03  0.40327312108E+03  0.80768117628E+02 0.  0.
          5    1    5    5  501    0 -0.77897452477E+02  0.70987832027E+02  0.35077605514E+03  0.36629662332E+03  0.47000000000E+01 0. -1.
        -11    1    6    6    0    0  0.15026133962E+02  0.43866478762E+02  0.16818567332E+03  0.17446052096E+03  0.00000000000E+00 0.  1.
         12    1    6    6    0    0  0.18953638813E+02 -0.34839029635E+02  0.22534907935E+03  0.22881260012E+03  0.00000000000E+00 0. -1.
         -5    1    3    3    0  503  0.32747775525E+02 -0.81251125437E+02  0.30435344201E+03  0.31674480241E+03  0.47000000000E+01 0.  1.
         13    1    4    4    0    0  0.28187312697E+02  0.14326509741E+02  0.13645331661E+03  0.14006884411E+03  0.00000000000E+00 0. -1.
        -14    1    4    4    0    0 -0.17017408520E+02 -0.13090665458E+02 -0.35462719904E+01  0.21760830864E+02  0.00000000000E+00 0.  1.
</event>
<event>
12    1  0.8453150E-002  0.2402616E+03  0.7818608E-02  0.1122608E+00
         21   -1    0    0  503  502  0.00000000000E+00  0.00000000000E+00  0.10603445721E+03  0.10603445721E+03  0.00000000000E+00 0.  1.
         21   -1    0    0  501  503 -0.00000000000E+00 -0.00000000000E+00 -0.51326992528E+03  0.51326992528E+03  0.00000000000E+00 0. -1.
          6    2    1    2  501    0  0.47817133681E+02 -0.13275635481E+03 -0.17418464381E+03  0.29675904988E+03  0.19446057577E+03 0.  0.
         24    2    3    3    0    0  0.74366437786E+02 -0.45173334558E+02 -0.16697000557E+03  0.20483629976E+03  0.80671740494E+02 0.  0.
         -6    2    1    2    0  502 -0.47817133681E+02  0.13275635481E+03 -0.23305082426E+03  0.32254533262E+03  0.17266174124E+03 0.  0.
        -24    2    5    5    0    0  0.45246107884E+02  0.63767104672E+02 -0.13088861349E+03  0.16801542977E+03  0.70596753334E+02 0.  0.
          5    1    3    3  501    0 -0.26549304104E+02 -0.87583020247E+02 -0.72146382377E+01  0.91922750117E+02  0.47000000000E+01 0. -1.
        -13    1    4    4    0    0 -0.11903033703E+02  0.97432435341E+01 -0.31940278628E+02  0.35451296235E+02  0.00000000000E+00 0.  1.
         14    1    4    4    0    0  0.86269471489E+02 -0.54916578092E+02 -0.13502972694E+03  0.16938500352E+03  0.00000000000E+00 0. -1.
         -5    1    5    5    0  502 -0.93063241565E+02  0.68989250134E+02 -0.10216221077E+03  0.15452990285E+03  0.47000000000E+01 0.  1.
         13    1    6    6    0    0  0.45827837242E+02  0.73260812596E+02 -0.85218161695E+02  0.12136503785E+03  0.00000000000E+00 0. -1.
        -14    1    6    6    0    0 -0.58172935809E+00 -0.94937079244E+01 -0.45670451795E+02  0.46650391920E+02  0.00000000000E+00 0.  1.
</event>
<event>
12    1  0.8453150E-002  0.1880879E+03  0.7818608E-02  0.1160285E+00
         21   -1    0    0  501  502  0.00000000000E+00  0.00000000000E+00  0.35602221837E+02  0.35602221837E+02  0.00000000000E+00 0.  1.
         21   -1    0    0  502  503 -0.00000000000E+00 -0.00000000000E+00 -0.10376138706E+04  0.10376138706E+04  0.00000000000E+00 0.  1.
         -6    2    1    2    0  503 -0.16981486015E+02  0.74893201004E+02 -0.61442986506E+03  0.64257382204E+03  0.17169652084E+03 0.  0.
        -24    2    3    3    0    0  0.40646872636E+02  0.75127619913E+02 -0.50927557565E+03  0.52257133350E+03  0.80142742151E+02 0.  0.
          6    2    1    2  501    0  0.16981486015E+02 -0.74893201004E+02 -0.38758178373E+03  0.43064227042E+03  0.17127686234E+03 0.  0.
         24    2    5    5    0    0  0.73706543986E+02 -0.25962263756E+02 -0.20894259430E+03  0.23687431946E+03  0.79660164070E+02 0.  0.
          5    1    5    5  501    0 -0.56725057971E+02 -0.48930937248E+02 -0.17863918942E+03  0.19376795096E+03  0.47000000000E+01 0. -1.
        -11    1    6    6    0    0  0.55644536096E+02 -0.54026679305E+02 -0.15738889069E+03  0.17546070610E+03  0.00000000000E+00 0.  1.
         12    1    6    6    0    0  0.18062007890E+02  0.28064415549E+02 -0.51553703614E+02  0.61413613356E+02  0.00000000000E+00 0. -1.
         -5    1    3    3    0  503 -0.57628358651E+02 -0.23441890880E+00 -0.10515428941E+03  0.12000248853E+03  0.47000000000E+01 0.  1.
         11    1    4    4    0    0 -0.29733751192E+01  0.16705902571E+02 -0.14114908362E+02  0.22071673665E+02  0.00000000000E+00 0. -1.
        -12    1    4    4    0    0  0.43620247755E+02  0.58421717342E+02 -0.49516066729E+03  0.50049965984E+03  0.00000000000E+00 0.  1.
</event>
<event>
12    1  0.8453150E-002  0.2271402E+03  0.7818608E-02  0.1129521E+00
         21   -1    0    0  501  502  0.00000000000E+00  0.00000000000E+00  0.20271472326E+03  0.20271472326E+03  0.00000000000E+00 0. -1.
         21   -1    0    0  502  503 -0.00000000000E+00 -0.00000000000E+00 -0.24930091873E+03  0.24930091873E+03  0.00000000000E+00 0.  1.
         -6    2    1    2    0  503 -0.41005923039E+01  0.14137856560E+03 -0.25955432565E+02  0.22394045803E+03  0.17167099521E+03 0.  0.
        -24    2    3    3    0    0  0.69577726111E+01  0.44173241411E+02 -0.71246009352E+02  0.11603082533E+03  0.79921666159E+02 0.  0.
          6    2    1    2  501    0  0.41005923039E+01 -0.14137856560E+03 -0.20630762912E+02  0.22807518395E+03  0.17772998478E+03 0.  0.
         24    2    5    5    0    0 -0.92329112054E+01 -0.31084271340E+02 -0.68021478433E+02  0.10720093699E+03  0.76247234636E+02 0.  0.
          5    1    5    5  501    0  0.13333503509E+02 -0.11029429426E+03  0.47390715521E+02  0.12087424696E+03  0.47000000000E+01 0. -1.
        -13    1    6    6    0    0 -0.13754630655E+01 -0.55289552550E+02 -0.34768791769E+02  0.65327600606E+02  0.00000000000E+00 0.  1.
         14    1    6    6    0    0 -0.78574481400E+01  0.24205281210E+02 -0.33252686664E+02  0.41873336386E+02  0.00000000000E+00 0. -1.
         -5    1    3    3    0  503 -0.11058364915E+02  0.97205324184E+02  0.45290576787E+02  0.10790963270E+03  0.47000000000E+01 0.  1.
         11    1    4    4    0    0  0.14858642173E+02 -0.37921598352E+01  0.12107032919E+02  0.19538166995E+02  0.00000000000E+00 0. -1.
        -12    1    4    4    0    0 -0.79008695615E+01  0.47965401247E+02 -0.83353042272E+02  0.96492658335E+02  0.00000000000E+00 0.  1.
</event>
<event>
12    1  0.8453150E-002  0.1978051E+03  0.7818608E-02  0.1151975E+00
         21   -1    0    0  503  502  0.00000000000E+00  0.00000000000E+00  0.87443693107E+02  0.87443693107E+02  0.00000000000E+00 0. -1.
         21   -1    0    0  501  503 -0.00000000000E+00 -0.00000000000E+00 -0.48539272800E+03  0.48539272800E+03  0.00000000000E+00 0.  1.
          6    2    1    2  501    0  0.69214155302E+02  0.66386025595E+02 -0.11568745707E+03  0.22915161061E+03  0.17300048911E+03 0.  0.
         24    2    3    3    0    0  0.11123975325E+03  0.77157515840E+02 -0.79604584877E+02  0.17252794461E+03  0.71424343072E+02 0.  0.
         -6    2    1    2    0  502 -0.69214155302E+02 -0.66386025595E+02 -0.28226157783E+03  0.34368481050E+03  0.17102615871E+03 0.  0.
        -24    2    5    5    0    0 -0.10860663736E+03 -0.66487617535E+02 -0.25383419783E+03  0.29487923810E+03  0.79410075625E+02 0.  0.
          5    1    3    3  501    0 -0.42025597952E+02 -0.10771490245E+02 -0.36082872193E+02  0.56623665998E+02  0.47000000000E+01 0. -1.
        -11    1    4    4    0    0  0.36309412173E+02  0.20909018546E+02 -0.65534667575E+02  0.77784015858E+02  0.00000000000E+00 0.  1.
         12    1    4    4    0    0  0.74930341081E+02  0.56248497294E+02 -0.14069917302E+02  0.94743928752E+02  0.00000000000E+00 0. -1.
         -5    1    5    5    0  502  0.39392482061E+02  0.10159194019E+00 -0.28427379999E+02  0.48805572402E+02  0.47000000000E+01 0.  1.
         11    1    6    6    0    0 -0.19088911582E+01  0.86056752326E+00  0.58235303577E+01  0.61885335697E+01  0.00000000000E+00 0. -1.
        -12    1    6    6    0    0 -0.10669774620E+03 -0.67348185059E+02 -0.25965772818E+03  0.28869070453E+03  0.00000000000E+00 0.  1.
</event>
<event>
12    1  0.8453150E-002  0.1730922E+03  0.7818608E-02  0.1174839E+00
         21   -1    0    0  501  502  0.00000000000E+00  0.00000000000E+00  0.46556960150E+03  0.46556960150E+03  0.00000000000E+00 0. -1.
         21   -1    0    0  502  503 -0.00000000000E+00 -0.00000000000E+00 -0.90604766639E+03  0.90604766639E+03  0.00000000000E+00 0. -1.
         -6    2    1    2    0  503  0.25098013427E+00 -0.57999404193E+01 -0.88137680369E+03  0.89821265368E+03  0.17299479426E+03 0.  0.
        -24    2    3    3    0    0  0.13069108440E+02 -0.11341911888E+02 -0.87965511162E+03  0.88337782693E+03  0.79144356452E+02 0.  0.
          6    2    1    2  501    0 -0.25098013427E+00  0.57999404193E+01  0.44089873880E+03  0.47340461421E+03  0.17229779041E+03 0.  0.
         24    2    5    5    0    0  0.12394438361E+01  0.53582456787E+02  0.14487295142E+03  0.17350671987E+03  0.79017680881E+02 0.  0.
          5    1    5    5  501    0 -0.14904239704E+01 -0.47782516368E+02  0.29602578739E+03  0.29989789434E+03  0.47000000000E+01 0. -1.
        -11    1    6    6    0    0  0.28251403676E+01  0.66351050680E+01 -0.96241936215E+01  0.12026268757E+02  0.00000000000E+00 0.  1.
         12    1    6    6    0    0 -0.15856965315E+01  0.46947351719E+02  0.15449714504E+03  0.16148045111E+03  0.00000000000E+00 0. -1.
         -5    1    3    3    0  503 -0.12818128306E+02  0.55419714690E+01 -0.17216920754E+01  0.14834826748E+02  0.47000000000E+01 0.  1.
         13    1    4    4    0    0 -0.52732783178E+00 -0.30212195118E+02 -0.79533481817E+03  0.79590861774E+03  0.00000000000E+00 0. -1.
        -14    1    4    4    0    0  0.13596436272E+02  0.18870283230E+02 -0.84320293452E+02  0.87469209190E+02  0.00000000000E+00 0.  1.
</event>
<event>
12    1  0.8453150E-002  0.1892180E+03  0.7818608E-02  0.1159311E+00
         21   -1    0    0  503  502  0.00000000000E+00  0.00000000000E+00  0.11797510005E+04  0.11797510005E+04  0.00000000000E+00 0.  1.
         21   -1    0    0  501  503 -0.00000000000E+00 -0.00000000000E+00 -0.30663777835E+02  0.30663777835E+02  0.00000000000E+00 0. -1.
          6    2    1    2  501    0  0.30168956973E+02 -0.72013744675E+02  0.64600338595E+03  0.67314472738E+03  0.17235806903E+03 0.  0.
         24    2    3    3    0    0  0.21296535609E+02 -0.11331375714E+03  0.55581002204E+03  0.57343843980E+03  0.81322282654E+02 0.  0.
         -6    2    1    2    0  502 -0.30168956973E+02  0.72013744675E+02  0.50308383675E+03  0.53727005099E+03  0.17166716488E+03 0.  0.
        -24    2    5    5    0    0 -0.88995518949E+01  0.98517124240E+02  0.48059546807E+03  0.49625013574E+03  0.74211639936E+02 0.  0.
          5    1    3    3  501    0  0.88724213644E+01  0.41300012464E+02  0.90193363910E+02  0.99706287584E+02  0.47000000000E+01 0. -1.
        -13    1    4    4    0    0  0.86589482436E+01 -0.36637164187E+02  0.37167475082E+03  0.37357647086E+03  0.00000000000E+00 0.  1.
         14    1    4    4    0    0  0.12637587366E+02 -0.76676592952E+02  0.18413527121E+03  0.19986196893E+03  0.00000000000E+00 0. -1.
         -5    1    5    5    0  502 -0.21269405079E+02 -0.26503379565E+02  0.22488368684E+02  0.41019915247E+02  0.47000000000E+01 0.  1.
         11    1    6    6    0    0  0.31501903876E+02  0.26856466402E+02  0.16022118670E+03  0.16548253202E+03  0.00000000000E+00 0. -1.
        -12    1    6    6    0    0 -0.40401455771E+02  0.71660657838E+02  0.32037428137E+03  0.33076760372E+03  0.00000000000E+00 0.  1.
</event>
<event>
12    1  0.8453150E-002  0.2776255E+03  0.7818608E-02  0.1097011E+00
         21   -1    0    0  503  502  0.00000000000E+00  0.00000000000E+00  0.19435700909E+03  0.19435700909E+03  0.00000000000E+00 0.  1.
         21   -1    0    0  501  503 -0.00000000000E+00 -0.00000000000E+00 -0.71799344236E+03  0.71799344236E+03  0.00000000000E+00 0.  1.
          6    2    1    2  501    0  0.13548719503E+03  0.17119245767E+03 -0.56709259289E+03  0.63134448566E+03  0.17128401291E+03 0.  0.
         24    2    3    3    0    0  0.62085959623E+02  0.14023732769E+03 -0.49305974186E+03  0.52249176653E+03  0.79803274253E+02 0.  0.
         -6    2    1    2    0  502 -0.13548719503E+03 -0.17119245767E+03  0.43456159624E+02  0.28100596579E+03  0.17150007994E+03 0.  0.
        -24    2    5    5    0    0 -0.68485674794E+02 -0.10110694509E+03  0.91367957955E+02  0.17275249838E+03  0.81132114221E+02 0.  0.
          5    1    3    3  501    0  0.73401235406E+02  0.30955129976E+02 -0.74032851034E+02  0.10885271913E+03  0.47000000000E+01 0. -1.
        -13    1    4    4    0    0  0.15767167964E+02  0.66023895346E+02 -0.10754471423E+03  0.12717556330E+03  0.00000000000E+00 0.  1.
         14    1    4    4    0    0  0.46318791658E+02  0.74213432349E+02 -0.38551502763E+03  0.39531620322E+03  0.00000000000E+00 0. -1.
         -5    1    5    5    0  502 -0.67001520234E+02 -0.70085512579E+02 -0.47911798330E+02  0.10825346741E+03  0.47000000000E+01 0.  1.
         11    1    6    6    0    0 -0.31369456091E+02 -0.21804981686E+01  0.50447267159E+02  0.59445135306E+02  0.00000000000E+00 0. -1.
        -12    1    6    6    0    0 -0.37116218703E+02 -0.98926446923E+02  0.40920690795E+02  0.11330736307E+03  0.00000000000E+00 0.  1.
</event>
<event>
12    1  0.8453150E-002  0.2128892E+03  0.7818608E-02  0.1139376E+00
         21   -1    0    0  501  502  0.00000000000E+00  0.00000000000E+00  0.14158418140E+03  0.14158418140E+03  0.00000000000E+00 0.  1.
         21   -1    0    0  502  503 -0.00000000000E+00 -0.00000000000E+00 -0.32175289348E+03  0.32175289348E+03  0.00000000000E+00 0.  1.
         -6    2    1    2    0  503 -0.67679925003E+02 -0.10413457979E+03 -0.70803351378E+02  0.22435451105E+03  0.17290821006E+03 0.  0.
        -24    2    3    3    0    0  0.19922123206E+02 -0.96918549448E+01 -0.29353612135E+02  0.88952450466E+02  0.80994326056E+02 0.  0.
          6    2    1    2  501    0  0.67679925003E+02  0.10413457979E+03 -0.10936536070E+03  0.23898256384E+03  0.17241606869E+03 0.  0.
         24    2    5    5    0    0 -0.44078302135E+01  0.10378838290E+03 -0.10243642603E+03  0.16640939772E+03  0.80046292109E+02 0.  0.
          5    1    5    5  501    0  0.72087755216E+02  0.34619688686E+00 -0.69289346736E+01  0.72573166116E+02  0.47000000000E+01 0. -1.
        -13    1    6    6    0    0  0.23389221183E+02  0.75275627179E+02 -0.31154132758E+02  0.84758808997E+02  0.00000000000E+00 0.  1.
         14    1    6    6    0    0 -0.27797051396E+02  0.28512755721E+02 -0.71282293271E+02  0.81650588725E+02  0.00000000000E+00 0. -1.
         -5    1    3    3    0  503 -0.87602048209E+02 -0.94442724841E+02 -0.41449739243E+02  0.13540206058E+03  0.47000000000E+01 0.  1.
         13    1    4    4    0    0 -0.18386380905E+02  0.14712324593E+02 -0.36030302624E+02  0.43042934437E+02  0.00000000000E+00 0. -1.
        -14    1    4    4    0    0  0.38308504112E+02 -0.24404179538E+02  0.66766904892E+01  0.45909516030E+02  0.00000000000E+00 0.  1.
</event>
<event>
12    1  0.8453150E-002  0.2121397E+03  0.7818608E-02  0.1141863E+00
         21   -1    0    0  501  502  0.00000000000E+00  0.00000000000E+00  0.25375574369E+04  0.25375574369E+04  0.00000000000E+00 0. -1.
         21   -1    0    0  502  503 -0.00000000000E+00 -0.00000000000E+00 -0.17956380370E+02  0.17956380370E+02  0.00000000000E+00 0.  1.
         -6    2    1    2    0  503 -0.30369110482E+02  0.11978022437E+03  0.98099490100E+03  0.10036703847E+04  0.17243451010E+03 0.  0.
        -24    2    3    3    0    0  0.25823080473E+02  0.43465425832E+02  0.23905181668E+03  0.25568432788E+03  0.75316862233E+02 0.  0.
          6    2    1    2  501    0  0.30369110482E+02 -0.11978022437E+03  0.15386061556E+04  0.15518434326E+04  0.16012355360E+03 0.  0.
         24    2    5    5    0    0  0.70270680074E+02 -0.80086646021E+02  0.79209913345E+03  0.80320297187E+03  0.79763008058E+02 0.  0.
          5    1    5    5  501    0 -0.39901569591E+02 -0.39693578352E+02  0.74650702210E+03  0.74864046075E+03  0.47000000000E+01 0. -1.
        -13    1    6    6    0    0  0.31122448454E+02 -0.48771632158E+02  0.64905432382E+03  0.65162780340E+03  0.00000000000E+00 0.  1.
         14    1    6    6    0    0  0.39148231619E+02 -0.31315013864E+02  0.14304480964E+03  0.15157516847E+03  0.00000000000E+00 0. -1.
         -5    1    3    3    0  503 -0.56192190955E+02  0.76314798542E+02  0.74194308431E+03  0.74798605679E+03  0.47000000000E+01 0.  1.
         11    1    4    4    0    0 -0.53170192980E+01  0.28918368606E+02  0.20570426470E+03  0.20779506070E+03  0.00000000000E+00 0. -1.
        -12    1    4    4    0    0  0.31140099771E+02  0.14547057226E+02  0.33347551989E+02  0.47889267183E+02  0.00000000000E+00 0.  1.
</event>
<event>
12    1  0.8453150E-002  0.1731864E+03  0.7818608E-02  0.1174704E+00
         21   -1    0    0  501  502  0.00000000000E+00  0.00000000000E+00  0.13180509751E+03  0.13180509751E+03  0.00000000000E+00 0.  1.
         21   -1    0    0  502  503 -0.00000000000E+00 -0.00000000000E+00 -0.25029162380E+03  0.25029162380E+03  0.00000000000E+00 0.  1.
         -6    2    1    2    0  503  0.20869330293E+02 -0.56826004656E+01 -0.11779914178E+03  0.20945206974E+03  0.17183047116E+03 0.  0.
        -24    2    3    3    0    0 -0.25977320731E+02  0.51384882195E+02 -0.57744125737E+02  0.11416302923E+03  0.79897345860E+02 0.  0.
          6    2    1    2  501    0 -0.20869330293E+02  0.56826004656E+01 -0.68738450372E+00  0.17264465157E+03  0.17128304739E+03 0.  0.
         24    2    5    5    0    0 -0.29271005403E+02 -0.46929776766E+02 -0.42160291178E+02  0.10496346976E+03  0.78617072751E+02 0.  0.
          5    1    5    5  501    0  0.84016751101E+01  0.52612377231E+02  0.41472906674E+02  0.67681181805E+02  0.47000000000E+01 0. -1.
        -11    1    6    6    0    0  0.30696253756E+01 -0.47912121381E+02  0.44582768309E+01  0.48216907900E+02  0.00000000000E+00 0.  1.
         12    1    6    6    0    0 -0.32340630778E+02  0.98234461518E+00 -0.46618568008E+02  0.56746561863E+02  0.00000000000E+00 0. -1.
         -5    1    3    3    0  503  0.46846651024E+02 -0.57067482660E+02 -0.60055016045E+02  0.95289040511E+02  0.47000000000E+01 0.  1.
         11    1    4    4    0    0  0.77553383316E+00 -0.65014234390E+01  0.15632604108E+02  0.16948400239E+02  0.00000000000E+00 0. -1.
        -12    1    4    4    0    0 -0.26752854565E+02  0.57886305634E+02 -0.73376729845E+02  0.97214628992E+02  0.00000000000E+00 0.  1.
</event>
<event>
12    1  0.8453150E-002  0.2092076E+03  0.7818608E-02  0.1142625E+00
         21   -1    0    0  501  502  0.00000000000E+00  0.00000000000E+00  0.27923488616E+03  0.27923488616E+03  0.00000000000E+00 0.  1.
         21   -1    0    0  502  503 -0.00000000000E+00 -0.00000000000E+00 -0.15773154696E+03  0.15773154696E+03  0.00000000000E+00 0. -1.
         -6    2    1    2    0  503 -0.38502919318E+02  0.10800932749E+03  0.32408859190E+02  0.20957768518E+03  0.17240644521E+03 0.  0.
        -24    2    3    3    0    0  0.13305837367E+02  0.35047960498E+02 -0.37821946516E+02  0.95727061936E+02  0.79547255802E+02 0.  0.
          6    2    1    2  501    0  0.38502919318E+02 -0.10800932749E+03  0.89094480005E+02  0.22738874794E+03  0.17498378982E+03 0.  0.
         24    2    5    5    0    0  0.66822875590E+02 -0.45263280017E+02  0.10517240147E+03  0.15653907641E+03  0.83241739493E+02 0.  0.
          5    1    5    5  501    0 -0.28319956272E+02 -0.62746047473E+02 -0.16077921461E+02  0.70849671525E+02  0.47000000000E+01 0. -1.
        -13    1    6    6    0    0  0.39652946901E+02 -0.69181219225E+02  0.73173000249E+02  0.10822516000E+03  0.00000000000E+00 0.  1.
         14    1    6    6    0    0  0.27169928689E+02  0.23917939208E+02  0.31999401216E+02  0.48313916413E+02  0.00000000000E+00 0. -1.
         -5    1    3    3    0  503 -0.51808756685E+02  0.72961366992E+02  0.70230805706E+02  0.11385062324E+03  0.47000000000E+01 0.  1.
         11    1    4    4    0    0 -0.21785612398E+02 -0.14734282312E+02 -0.17191940321E+02  0.31420929248E+02  0.00000000000E+00 0. -1.
        -12    1    4    4    0    0  0.35091449765E+02  0.49782242809E+02 -0.20630006194E+02  0.64306132688E+02  0.00000000000E+00 0.  1.
</event>
<event>
12    1  0.8453150E-002  0.2538955E+03  0.7818608E-02  0.1110932E+00
         21   -1    0    0  503  502  0.00000000000E+00  0.00000000000E+00  0.89455819106E+03  0.89455819106E+03  0.00000000000E+00 0.  1.
         21   -1    0    0  501  503 -0.00000000000E+00 -0.00000000000E+00 -0.81381471590E+02  0.81381471590E+02  0.00000000000E+00 0. -1.
          6    2    1    2  501    0 -0.42800285767E+02  0.18137029857E+03  0.24070074936E+03  0.34985676471E+03  0.17244087511E+03 0.  0.
         24    2    3    3    0    0 -0.61122954075E+02  0.67908758141E+02  0.19007419126E+03  0.22418107209E+03  0.76035123155E+02 0.  0.
         -6    2    1    2    0  502  0.42800285767E+02 -0.18137029857E+03  0.57247597011E+03  0.62608289794E+03  0.17182551926E+03 0.  0.
        -24    2    5    5    0    0  0.46153208429E+02 -0.23528375607E+02  0.21621445309E+03  0.23637830053E+03  0.80263990218E+02 0.  0.
          5    1    3    3  501    0  0.18322668308E+02  0.11346154043E+03  0.50626558099E+02  0.12567569262E+03  0.47000000000E+01 0. -1.
        -13    1    4    4    0    0  0.15815341913E+02  0.14174428237E+02  0.61042966070E+02  0.64631905142E+02  0.00000000000E+00 0.  1.
         14    1    4    4    0    0 -0.76938295988E+02  0.53734329903E+02  0.12903122519E+03  0.15954916695E+03  0.00000000000E+00 0. -1.
         -5    1    5    5    0  502 -0.33529226617E+01 -0.15784192297E+03  0.35626151702E+03  0.38970459741E+03  0.47000000000E+01 0.  1.
         11    1    6    6    0    0  0.10919809859E+02 -0.87573953111E+01 -0.26142319486E+01  0.14239677969E+02  0.00000000000E+00 0. -1.
        -12    1    6    6    0    0  0.35233398570E+02 -0.14770980296E+02  0.21882868504E+03  0.22213862256E+03  0.00000000000E+00 0.  1.
</event>
<event>
12    1  0.8453150E-002  0.2097564E+03  0.7818608E-02  0.1142751E+00
         21   -1    0    0  501  502  0.00000000000E+00  0.00000000000E+00  0.16498585250E+02  0.16498585250E+02  0.00000000000E+00 0. -1.
         21   -1    0    0  502  503 -0.00000000000E+00 -0.00000000000E+00 -0.32125435383E+04  0.32125435383E+04  0.00000000000E+00 0. -1.
         -6    2    1    2    0  503 -0.61329459696E+02 -0.10344637819E+03 -0.22850402799E+04  0.22942013555E+04  0.16579602822E+03 0.  0.
        -24    2    3    3    0    0 -0.37213347347E+02 -0.10456545377E+03 -0.10330918079E+04  0.10420113117E+04  0.78677333660E+02 0.  0.
          6    2    1    2  501    0  0.61329459696E+02  0.10344637819E+03 -0.91100467316E+03  0.93484076808E+03  0.17185834673E+03 0.  0.
         24    2    5    5    0    0 -0.28163772728E+01  0.11411099376E+01 -0.24067082767E+03  0.25370156737E+03  0.80204762236E+02 0.  0.
          5    1    5    5  501    0  0.64145836969E+02  0.10230526826E+03 -0.67033384550E+03  0.68113920070E+03  0.47000000000E+01 0. -1.
        -11    1    6    6    0    0 -0.30904933363E+01  0.30894544781E+00 -0.24714694091E+03  0.24716645605E+03  0.00000000000E+00 0.  1.
         12    1    6    6    0    0  0.27411606350E+00  0.83216448976E+00  0.64761132390E+01  0.65351113257E+01  0.00000000000E+00 0. -1.
         -5    1    3    3    0  503 -0.24116112349E+02  0.11190755718E+01 -0.12519484720E+04  0.12521900438E+04  0.47000000000E+01 0.  1.
         11    1    4    4    0    0 -0.26060146018E+02 -0.16175049451E+02 -0.98065984659E+02  0.10275067290E+03  0.00000000000E+00 0. -1.
        -12    1    4    4    0    0 -0.11153201330E+02 -0.88390404315E+02 -0.93502582323E+03  0.93926063879E+03  0.00000000000E+00 0.  1.
</event>
<event>
12    1  0.8453150E-002  0.2452853E+03  0.7818608E-02  0.1116351E+00
         21   -1    0    0  501  502  0.00000000000E+00  0.00000000000E+00  0.62130061663E+02  0.62130061663E+02  0.00000000000E+00 0.  1.
         21   -1    0    0  502  503 -0.00000000000E+00 -0.00000000000E+00 -0.16824691148E+04  0.16824691148E+04  0.00000000000E+00 0. -1.
         -6    2    1    2    0  503 -0.11696836869E+03 -0.12925886650E+03 -0.13785763880E+04  0.14001952666E+04  0.17229182569E+03 0.  0.
        -24    2    3    3    0    0 -0.36564430231E+02 -0.13020766006E+02 -0.78218454330E+03  0.78726671305E+03  0.80434568392E+02 0.  0.
          6    2    1    2  501    0  0.11696836869E+03  0.12925886650E+03 -0.24176266514E+03  0.34440390987E+03  0.17255553609E+03 0.  0.
         24    2    5    5    0    0  0.56834967134E+02  0.15154683572E+03 -0.16366738209E+03  0.24324194672E+03  0.78631900498E+02 0.  0.
          5    1    5    5  501    0  0.60133401560E+02 -0.22287969215E+02 -0.78095283047E+02  0.10116196315E+03  0.47000000000E+01 0. -1.
        -13    1    6    6    0    0 -0.18010806985E+02  0.12651495162E+02 -0.23460992997E+02  0.32169359498E+02  0.00000000000E+00 0.  1.
         14    1    6    6    0    0  0.74845774119E+02  0.13889534056E+03 -0.14020638910E+03  0.21107258722E+03  0.00000000000E+00 0. -1.
         -5    1    3    3    0  503 -0.80403938463E+02 -0.11623810050E+03 -0.59639184469E+03  0.61292855354E+03  0.47000000000E+01 0.  1.
         11    1    4    4    0    0 -0.56726010185E+02 -0.28854002418E+02 -0.54801924526E+03  0.55170235350E+03  0.00000000000E+00 0. -1.
        -12    1    4    4    0    0  0.20161579954E+02  0.15833236412E+02 -0.23416529804E+03  0.23556435955E+03  0.00000000000E+00 0.  1.
</event>
<event>
12    1  0.8453150E-002  0.1768197E+03  0.7818608E-02  0.1171273E+00
         21   -1    0    0  503  502  0.00000000000E+00  0.00000000000E+00  0.10443877454E+04  0.10443877454E+04  0.00000000000E+00 0.  1.
         21   -1    0    0  501  503 -0.00000000000E+00 -0.00000000000E+00 -0.45304962126E+02  0.45304962126E+02  0.00000000000E+00 0.  1.
          6    2    1    2  501    0 -0.12128137252E+02  0.40082886427E+02  0.18105245360E+03  0.25307154326E+03  0.17178907286E+03 0.  0.
         24    2    3    3    0    0 -0.51477461775E+02  0.70108619601E+02  0.16020213392E+03  0.19915735381E+03  0.80210848707E+02 0.  0.
         -6    2    1    2    0  502  0.12128137252E+02 -0.40082886427E+02  0.81803032966E+03  0.83662116425E+03  0.17031624332E+03 0.  0.
        -24    2    5    5    0    0  0.60335078124E+02 -0.25758994039E+02  0.33179769971E+03  0.34777216562E+03  0.80943920212E+02 0.  0.
          5    1    3    3  501    0  0.39349324524E+02 -0.30025733175E+02  0.20850319678E+02  0.53914189448E+02  0.47000000000E+01 0. -1.
        -13    1    4    4    0    0 -0.20936308309E+02 -0.13073644184E+02  0.14504432934E+02  0.28629141667E+02  0.00000000000E+00 0.  1.
         14    1    4    4    0    0 -0.30541153467E+02  0.83182263785E+02  0.14569770099E+03  0.17052821214E+03  0.00000000000E+00 0. -1.
         -5    1    5    5    0  502 -0.48206940872E+02 -0.14323892388E+02  0.48623262995E+03  0.48884899863E+03  0.47000000000E+01 0.  1.
         13    1    6    6    0    0  0.14911697662E+02  0.12527561558E+02  0.12835384230E+02  0.23324785403E+02  0.00000000000E+00 0. -1.
        -14    1    6    6    0    0  0.45423380462E+02 -0.38286555596E+02  0.31896231548E+03  0.32444738022E+03  0.00000000000E+00 0.  1.
</event>
<event>
12    1  0.8453150E-002  0.1834222E+03  0.7818608E-02  0.1164697E+00
         21   -1    0    0  501  502  0.00000000000E+00  0.00000000000E+00  0.51519478027E+02  0.51519478027E+02  0.00000000000E+00 0. -1.
         21   -1    0    0  502  503 -0.00000000000E+00 -0.00000000000E+00 -0.80244041556E+03  0.80244041556E+03  0.00000000000E+00 0. -1.
         -6    2    1    2    0  503 -0.42126310627E+02 -0.46446666545E+02 -0.56181214801E+03  0.59099627428E+03  0.17237107553E+03 0.  0.
        -24    2    3    3    0    0  0.16880238620E+02 -0.53906015636E+02 -0.48246472176E+03  0.49172130867E+03  0.76333719198E+02 0.  0.
          6    2    1    2  501    0  0.42126310627E+02  0.46446666545E+02 -0.18910878952E+03  0.26296361930E+03  0.17162695570E+03 0.  0.
         24    2    5    5    0    0  0.35359123624E+02 -0.18105350642E+02 -0.39592816296E+02  0.99899601226E+02  0.82669630927E+02 0.  0.
          5    1    5    5  501    0  0.67671870031E+01  0.64552017188E+02 -0.14951597322E+03  0.16306401808E+03  0.47000000000E+01 0. -1.
        -11    1    6    6    0    0  0.18822368926E+02  0.12288392067E+02 -0.56923311040E+02  0.61200894531E+02  0.00000000000E+00 0.  1.
         12    1    6    6    0    0  0.16536754698E+02 -0.30393742709E+02  0.17330494744E+02  0.38698706695E+02  0.00000000000E+00 0. -1.
         -5    1    3    3    0  503 -0.59006549247E+02  0.74593490903E+01 -0.79347426255E+02  0.99274965607E+02  0.47000000000E+01 0.  1.
         13    1    4    4    0    0 -0.17040018876E+02 -0.55489890953E+02 -0.35940579170E+03  0.36406319966E+03  0.00000000000E+00 0. -1.
        -14    1    4    4    0    0  0.33920257496E+02  0.15838753170E+01 -0.12305893006E+03  0.12765810902E+03  0.00000000000E+00 0.  1.
</event>
<event>
12    1  0.8453150E-002  0.1763386E+03  0.7818608E-02  0.1173525E+00
         21   -1    0    0  501  502  0.00000000000E+00  0.00000000000E+00  0.56765361025E+03  0.56765361025E+03  0.00000000000E+00 0.  1.
         21   -1    0    0  502  503 -0.00000000000E+00 -0.00000000000E+00 -0.58766237163E+02  0.58766237163E+02  0.00000000000E+00 0.  1.
         -6    2    1    2    0  503  0.26928360515E+01  0.44591957944E+02  0.15537644133E+03  0.23502581284E+03  0.17058604897E+03 0.  0.
        -24    2    3    3    0    0  0.50731976879E+02 -0.10393598194E+02  0.12191798632E+03  0.15457254288E+03  0.79667529547E+02 0.  0.
          6    2    1    2  501    0 -0.26928360515E+01 -0.44591957944E+02  0.35351093176E+03  0.39139403457E+03  0.16193707836E+03 0.  0.
         24    2    5    5    0    0 -0.39915404527E+02 -0.77417605024E+02  0.24755445398E+03  0.27429617851E+03  0.79802636398E+02 0.  0.
          5    1    5    5  501    0  0.37222568475E+02  0.32825647080E+02  0.10595647778E+03  0.11709785606E+03  0.47000000000E+01 0. -1.
        -11    1    6    6    0    0 -0.20118333565E+02 -0.23707657130E+02  0.19209098227E+03  0.19459122750E+03  0.00000000000E+00 0.  1.
         12    1    6    6    0    0 -0.19797070962E+02 -0.53709947895E+02  0.55463471710E+02  0.79704951011E+02  0.00000000000E+00 0. -1.
         -5    1    3    3    0  503 -0.48039140827E+02  0.54985556138E+02  0.33458455014E+02  0.80453269959E+02  0.47000000000E+01 0.  1.
         13    1    4    4    0    0 -0.43588463501E+01  0.94506393535E+00  0.89584771690E+02  0.89695730144E+02  0.00000000000E+00 0. -1.
        -14    1    4    4    0    0  0.55090823229E+02 -0.11338662129E+02  0.32333214626E+02  0.64876812738E+02  0.00000000000E+00 0.  1.
</event>
<event>
12    1  0.8453150E-002  0.1837686E+03  0.7818608E-02  0.1164566E+00
         21   -1    0    0  501  502  0.00000000000E+00  0.00000000000E+00  0.70509994329E+03  0.70509994329E+03  0.00000000000E+00 0. -1.
         21   -1    0    0  502  503 -0.00000000000E+00 -0.00000000000E+00 -0.11003845062E+03  0.11003845062E+03  0.00000000000E+00 0. -1.
         -6    2    1    2    0  503  0.43438706345E+02  0.51016229556E+02 -0.10265742068E+02  0.18253113394E+03  0.16947758704E+03 0.  0.
        -24    2    3    3    0    0  0.46270604795E+02  0.32818207655E+01  0.49203076666E+02  0.10607707039E+03  0.81729204654E+02 0.  0.
          6    2    1    2  501    0 -0.43438706345E+02 -0.51016229556E+02  0.60532723474E+03  0.63260725998E+03  0.17111781721E+03 0.  0.
         24    2    5    5    0    0 -0.36420506760E+02 -0.41756185059E+02  0.16308699271E+03  0.19018944250E+03  0.80651252584E+02 0.  0.
          5    1    5    5  501    0 -0.70181995850E+01 -0.92600444971E+01  0.44224024203E+03  0.44241781748E+03  0.47000000000E+01 0. -1.
        -13    1    6    6    0    0  0.21445845668E+02  0.50968733023E+01  0.51765001800E+02  0.56262934737E+02  0.00000000000E+00 0.  1.
         14    1    6    6    0    0 -0.57866352427E+02 -0.46853058361E+02  0.11132199091E+03  0.13392650776E+03  0.00000000000E+00 0. -1.
         -5    1    3    3    0  503 -0.28318984507E+01  0.47734408791E+02 -0.59468818734E+02  0.76454063549E+02  0.47000000000E+01 0.  1.
         11    1    4    4    0    0 -0.26491535492E+01  0.31624209158E+02  0.36053787210E+02  0.48031075269E+02  0.00000000000E+00 0. -1.
        -12    1    4    4    0    0  0.48919758345E+02 -0.28342388392E+02  0.13149289456E+02  0.58045995120E+02  0.00000000000E+00 0.  1.
</event>
<event>
12    1  0.8453150E-002  0.1902324E+03  0.7818608E-02  0.1158652E+00
         21   -1    0    0  503  502  0.00000000000E+00  0.00000000000E+00  0.13069616420E+03  0.13069616420E+03  0.00000000000E+00 0. -1.
         21   -1    0    0  501  503 -0.00000000000E+00 -0.00000000000E+00 -0.51329339107E+03  0.51329339107E+03  0.00000000000E+00 0.  1.
          6    2    1    2  501    0  0.31146576370E+02  0.72279613724E+02 -0.41052471449E+03  0.45171814555E+03  0.17124336493E+03 0.  0.
         24    2    3    3    0    0  0.54911225545E+02 -0.12012858205E+02 -0.18419186848E+03  0.20898655189E+03  0.81173782751E+02 0.  0.
         -6    2    1    2    0  502 -0.31146576370E+02 -0.72279613724E+02  0.27927487620E+02  0.19227140972E+03  0.17318746678E+03 0.  0.
        -24    2    5    5    0    0  0.36894734491E+02 -0.50549638692E+02  0.55544372418E+02  0.11554726668E+03  0.79683788351E+02 0.  0.
          5    1    3    3  501    0 -0.23764649175E+02  0.84292471929E+02 -0.22633284602E+03  0.24273159366E+03  0.47000000000E+01 0. -1.
        -13    1    4    4    0    0  0.71643942017E+02  0.84614149969E+01 -0.13979137698E+03  0.15730886513E+03  0.00000000000E+00 0.  1.
         14    1    4    4    0    0 -0.16732716472E+02 -0.20474273202E+02 -0.44400491494E+02  0.51677686757E+02  0.00000000000E+00 0. -1.
         -5    1    5    5    0  502 -0.68041310861E+02 -0.21729975033E+02 -0.27616884798E+02  0.76724143035E+02  0.47000000000E+01 0.  1.
         13    1    6    6    0    0  0.29559501855E+02  0.89716667460E+01  0.45112201873E+02  0.54675092244E+02  0.00000000000E+00 0. -1.
        -14    1    6    6    0    0  0.73352326352E+01 -0.59521305438E+02  0.10432170545E+02  0.60872174440E+02  0.00000000000E+00 0.  1.
</event>
<event>
12    1  0.8453150E-002  0.2086905E+03  0.7818608E-02  0.1144426E+00
         21   -1    0    0  503  502  0.00000000000E+00  0.00000000000E+00  0.10123051586E+03  0.10123051586E+03  0.00000000000E+00 0.  1.
         21   -1    0    0  501  503 -0.00000000000E+00 -0.00000000000E+00 -0.48813107235E+03  0.48813107235E+03  0.00000000000E+00 0. -1.
          6    2    1    2  501    0  0.21911883195E+02 -0.11652519448E+03 -0.30619532525E+03  0.36560935053E+03  0.16079915551E+03 0.  0.
         24    2    3    3    0    0 -0.29345480467E+02 -0.40877624020E+02 -0.22043963982E+03  0.24020600196E+03  0.81074972749E+02 0.  0.
         -6    2    1    2    0  502 -0.21911883195E+02  0.11652519448E+03 -0.80705231233E+02  0.22375223768E+03  0.17173665288E+03 0.  0.
        -24    2    5    5    0    0  0.39776774614E+02  0.11136152189E+03 -0.36156512505E+02  0.14733998501E+03  0.80113653203E+02 0.  0.
          5    1    3    3  501    0  0.51257363663E+02 -0.75647570465E+02 -0.85755685435E+02  0.12540334857E+03  0.47000000000E+01 0. -1.
        -13    1    4    4    0    0  0.10895498786E+02 -0.12403392893E+02 -0.24236491621E+01  0.16686225586E+02  0.00000000000E+00 0.  1.
         14    1    4    4    0    0 -0.40240979253E+02 -0.28474231127E+02 -0.21801599066E+03  0.22351977638E+03  0.00000000000E+00 0. -1.
         -5    1    5    5    0  502 -0.61688657809E+02  0.51636725910E+01 -0.44548718727E+02  0.76412252664E+02  0.47000000000E+01 0.  1.
         13    1    6    6    0    0  0.29377375423E+02  0.49176695093E+02 -0.57122281947E+02  0.80897049525E+02  0.00000000000E+00 0. -1.
        -14    1    6    6    0    0  0.10399399191E+02  0.62184826801E+02  0.20965769442E+02  0.66442935487E+02  0.00000000000E+00 0.  1.
</event>
<event>
12    1  0.8453150E-002  0.1749005E+03  0.7818608E-02  0.1172857E+00
         21   -1    0    0  503  502  0.00000000000E+00  0.00000000000E+00  0.20784587032E+03  0.20784587032E+03  0.00000000000E+00 0.  1.
         21   -1    0    0  501  503 -0.00000000000E+00 -0.00000000000E+00 -0.16287330573E+03  0.16287330573E+03  0.00000000000E+00 0.  1.
          6    2    1    2  501    0  0.27222086931E+02 -0.13130524349E+02 -0.35217017865E+02  0.17831192803E+03  0.17216693249E+03 0.  0.
         24    2    3    3    0    0 -0.34192687182E+02 -0.38769857284E+02  0.13192756639E+02  0.95881677877E+02  0.79668096715E+02 0.  0.
         -6    2    1    2    0  502 -0.27222086931E+02  0.13130524349E+02  0.80189582453E+02  0.19240724803E+03  0.17226934514E+03 0.  0.
        -24    2    5    5    0    0 -0.71132188299E+02 -0.27203927939E+02  0.67195162355E+02  0.13120340830E+03  0.83062040661E+02 0.  0.
          5    1    3    3  501    0  0.61414774113E+02  0.25639332935E+02 -0.48409774504E+02  0.82430250153E+02  0.47000000000E+01 0. -1.
        -13    1    4    4    0    0 -0.55548264853E+02 -0.13978851424E+02 -0.65700427431E+01  0.57655732386E+02  0.00000000000E+00 0.  1.
         14    1    4    4    0    0  0.21355577672E+02 -0.24791005860E+02  0.19762799382E+02  0.38225945491E+02  0.00000000000E+00 0. -1.
         -5    1    5    5    0  502  0.43910101368E+02  0.40334452288E+02  0.12994420098E+02  0.61203839726E+02  0.47000000000E+01 0.  1.
         13    1    6    6    0    0 -0.55346580399E+02 -0.23518403794E+02 -0.19656614417E+01  0.60168289852E+02  0.00000000000E+00 0. -1.
        -14    1    6    6    0    0 -0.15785607900E+02 -0.36855241457E+01  0.69160823796E+02  0.71035118450E+02  0.00000000000E+00 0.  1.
</event>
<event>
12    1  0.8453150E-002  0.1722438E+03  0.7818608E-02  0.1175571E+00
         21   -1    0    0  503  502  0.00000000000E+00  0.00000000000E+00  0.10855573036E+03  0.10855573036E+03  0.00000000000E+00 0. -1.
         21   -1    0    0  501  503 -0.00000000000E+00 -0.00000000000E+00 -0.27675432341E+03  0.27675432341E+03  0.00000000000E+00 0. -1.
          6    2    1    2  501    0 -0.14652116573E+02  0.43281563413E+01 -0.61791231325E+02  0.18299198624E+03  0.17156483702E+03 0.  0.
         24    2    3    3    0    0  0.14944517357E+02 -0.35148665365E+02  0.18046380971E+02  0.89021168810E+02  0.78360253663E+02 0.  0.
         -6    2    1    2    0  502  0.14652116573E+02 -0.43281563413E+01 -0.10640736173E+03  0.20231806753E+03  0.17139619704E+03 0.  0.
        -24    2    5    5    0    0  0.19180679410E+02 -0.65495465678E+01  0.13317281049E+02  0.82395081640E+02  0.78745187034E+02 0.  0.
          5    1    3    3  501    0 -0.29596633930E+02  0.39476821707E+02 -0.79837612295E+02  0.93970817433E+02  0.47000000000E+01 0. -1.
        -11    1    4    4    0    0 -0.11571437626E+02 -0.10157959206E+02  0.42457352673E+02  0.45163138730E+02  0.00000000000E+00 0.  1.
         12    1    4    4    0    0  0.26515954983E+02 -0.24990706159E+02 -0.24410971702E+02  0.43858030079E+02  0.00000000000E+00 0. -1.
         -5    1    5    5    0  502 -0.45285628370E+01  0.22213902265E+01 -0.11972464278E+03  0.11992298589E+03  0.47000000000E+01 0.  1.
         11    1    6    6    0    0 -0.39478921623E+01 -0.18517529035E+02  0.40527001689E+02  0.44731673342E+02  0.00000000000E+00 0. -1.
        -12    1    6    6    0    0  0.23128571573E+02  0.11967982467E+02 -0.27209720640E+02  0.37663408298E+02  0.00000000000E+00 0.  1.
</event>
<event>
12    1  0.8453150E-002  0.2002227E+03  0.7818608E-02  0.1149555E+00
         21   -1    0    0  501  502  0.00000000000E+00  0.00000000000E+00  0.85983088690E+02  0.85983088690E+02  0.00000000000E+00 0. -1.
         21   -1    0    0  502  503 -0.00000000000E+00 -0.00000000000E+00 -0.46666533941E+03  0.46666533941E+03  0.00000000000E+00 0. -1.
         -6    2    1    2    0  503 -0.52957695194E+02  0.83302413273E+02 -0.18164011388E+03  0.27032429924E+03  0.17417889152E+03 0.  0.
        -24    2    3    3    0    0  0.36401493671E+02  0.21635331011E+02 -0.99456920776E+02  0.13407430512E+03  0.79316353375E+02 0.  0.
          6    2    1    2  501    0  0.52957695194E+02 -0.83302413273E+02 -0.19904213684E+03  0.28232412886E+03  0.17419911585E+03 0.  0.
         24    2    5    5    0    0 -0.31749420854E+02 -0.14197535879E+02 -0.10681925837E+03  0.13922301460E+03  0.82238057413E+02 0.  0.
          5    1    5    5  501    0  0.84707116049E+02 -0.69104877394E+02 -0.92222878469E+02  0.14310111426E+03  0.47000000000E+01 0. -1.
        -13    1    6    6    0    0 -0.24611945457E+02 -0.15336493524E+02  0.30110463949E+01  0.29155141796E+02  0.00000000000E+00 0.  1.
         14    1    6    6    0    0 -0.71374753977E+01  0.11389576450E+01 -0.10983030477E+03  0.11006787281E+03  0.00000000000E+00 0. -1.
         -5    1    3    3    0  503 -0.89359188865E+02  0.61667082262E+02 -0.82183193107E+02  0.13624999412E+03  0.47000000000E+01 0.  1.
         11    1    4    4    0    0  0.34353186079E+02  0.50137872646E+02 -0.60462461970E+02  0.85730140410E+02  0.00000000000E+00 0. -1.
        -12    1    4    4    0    0  0.20483075918E+01 -0.28502541634E+02 -0.38994458805E+02  0.48344164706E+02  0.00000000000E+00 0.  1.
</event>
<event>
12    1  0.8453150E-002  0.1857677E+03  0.7818608E-02  0.1162359E+00
         21   -1    0    0  503  502  0.00000000000E+00  0.00000000000E+00  0.10229753855E+04  0.10229753855E+04  0.00000000000E+00 0.  1.
         21   -1    0    0  501  503 -0.00000000000E+00 -0.00000000000E+00 -0.63100273404E+02  0.63100273404E+02  0.00000000000E+00 0.  1.
          6    2    1    2  501    0  0.27204154781E+02 -0.64441834522E+02  0.10929478350E+03  0.21544569034E+03  0.17198453335E+03 0.  0.
         24    2    3    3    0    0  0.62669550482E+02 -0.23483749365E+02  0.12048339340E+03  0.15992421680E+03  0.81120576888E+02 0.  0.
         -6    2    1    2    0  502 -0.27204154781E+02  0.64441834522E+02  0.85058032860E+03  0.87062996856E+03  0.17209541158E+03 0.  0.
        -24    2    5    5    0    0 -0.66002260834E+02  0.28884168385E+02  0.32591395907E+03  0.34330982864E+03  0.80318964793E+02 0.  0.
          5    1    3    3  501    0 -0.35465395701E+02 -0.40958085157E+02 -0.11188609900E+02  0.55521473534E+02  0.47000000000E+01 0. -1.
        -11    1    4    4    0    0 -0.17534431792E+01 -0.26365771904E+02  0.39224587295E+01  0.26713557860E+02  0.00000000000E+00 0.  1.
         12    1    4    4    0    0  0.64422993661E+02  0.28820225389E+01  0.11656093467E+03  0.13321065894E+03  0.00000000000E+00 0. -1.
         -5    1    5    5    0  502  0.38798106053E+02  0.35557666137E+02  0.52466636953E+03  0.52732013992E+03  0.47000000000E+01 0.  1.
         13    1    6    6    0    0 -0.62475227528E+02  0.53735697213E+02  0.26155772529E+03  0.27423187792E+03  0.00000000000E+00 0. -1.
        -14    1    6    6    0    0 -0.35270333068E+01 -0.24851528828E+02  0.64356233775E+02  0.69077950713E+02  0.00000000000E+00 0.  1.
</event>
<event>
12    1  0.8453150E-002  0.1758167E+03  0.7818608E-02  0.1171977E+00
         21   -1    0    0  501  502  0.00000000000E+00  0.00000000000E+00  0.14717895747E+03  0.14717895747E+03  0.00000000000E+00 0.  1.
         21   -1    0    0  502  503 -0.00000000000E+00 -0.00000000000E+00 -0.26978214348E+03  0.26978214348E+03  0.00000000000E+00 0.  1.
         -6    2    1    2    0  503 -0.28797109732E+02  0.25620685478E+02 -0.15963179468E+03  0.23728739025E+03  0.17128135521E+03 0.  0.
        -24    2    3    3    0    0  0.23955180823E+00  0.26001807766E+02 -0.10056697532E+02  0.84846999751E+02  0.80135665027E+02 0.  0.
          6    2    1    2  501    0  0.28797109732E+02 -0.25620685478E+02  0.37028608673E+02  0.17967371070E+03  0.17153959135E+03 0.  0.
         24    2    5    5    0    0 -0.99461871771E-01 -0.69922684404E+02 -0.13877841064E+02  0.10611260967E+03  0.78600889129E+02 0.  0.
          5    1    5    5  501    0  0.28896571604E+02  0.44301998926E+02  0.50906449737E+02  0.73561101026E+02  0.47000000000E+01 0. -1.
        -13    1    6    6    0    0  0.31618073549E+02 -0.36241084340E+02 -0.30501822715E+02  0.56951557995E+02  0.00000000000E+00 0.  1.
         14    1    6    6    0    0 -0.31717535421E+02 -0.33681600064E+02  0.16623981651E+02  0.49161051677E+02  0.00000000000E+00 0. -1.
         -5    1    3    3    0  503 -0.29036661541E+02 -0.38112228796E+00 -0.14957509715E+03  0.15244039050E+03  0.47000000000E+01 0.  1.
         13    1    4    4    0    0 -0.10932432988E+02 -0.23665550579E+02  0.12801588311E+02  0.29042331837E+02  0.00000000000E+00 0. -1.
        -14    1    4    4    0    0  0.11171984796E+02  0.49667358345E+02 -0.22858285844E+02  0.55804667914E+02  0.00000000000E+00 0.  1.
</event>
<event>
12    1  0.8453150E-002  0.1936595E+03  0.7818608E-02  0.1155218E+00
         21   -1    0    0  503  502  0.00000000000E+00  0.00000000000E+00  0.13198155383E+03  0.13198155383E+03  0.00000000000E+00 0. -1.
         21   -1    0    0  501  503 -0.00000000000E+00 -0.00000000000E+00 -0.45594424610E+03  0.45594424610E+03  0.00000000000E+00 0.  1.
          6    2    1    2  501    0  0.83172719751E+02  0.30824867559E+02 -0.34245806731E+03  0.39338514734E+03  0.17206531469E+03 0.  0.
         24    2    3    3    0    0  0.32135492577E+02  0.45225698534E+02 -0.32184659827E+03  0.33629657453E+03  0.80200371142E+02 0.  0.
         -6    2    1    2    0  502 -0.83172719751E+02 -0.30824867559E+02  0.18495375032E+02  0.19454065259E+03  0.17215142416E+03 0.  0.
        -24    2    5    5    0    0 -0.10781198783E+03 -0.48528563265E+01  0.58103742061E+02  0.14094446207E+03  0.69586791939E+02 0.  0.
          5    1    3    3  501    0  0.51037227174E+02 -0.14400830975E+02 -0.20611469037E+02  0.57088572816E+02  0.47000000000E+01 0. -1.
        -13    1    4    4    0    0  0.33228007618E+02  0.64841933914E+02 -0.19962120419E+03  0.21250224009E+03  0.00000000000E+00 0.  1.
         14    1    4    4    0    0 -0.10925150407E+01 -0.19616235380E+02 -0.12222539408E+03  0.12379433443E+03  0.00000000000E+00 0. -1.
         -5    1    5    5    0  502  0.24639268083E+02 -0.25972011232E+02 -0.39608367030E+02  0.53596190516E+02  0.47000000000E+01 0.  1.
         13    1    6    6    0    0 -0.12127409707E+02 -0.11246269809E+02  0.40092132154E+02  0.43369709608E+02  0.00000000000E+00 0. -1.
        -14    1    6    6    0    0 -0.95684578126E+02  0.63934134829E+01  0.18011609908E+02  0.97574752465E+02  0.00000000000E+00 0.  1.
</event>
<event>
12    1  0.8453150E-002  0.1968983E+03  0.7818608E-02  0.1152617E+00
         21   -1    0    0  503  502  0.00000000000E+00  0.00000000000E+00  0.17644792500E+03  0.17644792500E+03  0.00000000000E+00 0.  1.
         21   -1    0    0  501  503 -0.00000000000E+00 -0.00000000000E+00 -0.26409268180E+03  0.26409268180E+03  0.00000000000E+00 0. -1.
          6    2    1    2  501    0  0.27440262951E+02 -0.92062767364E+02 -0.13543679384E+03  0.23898134779E+03  0.17187332050E+03 0.  0.
         24    2    3    3    0    0  0.33771351276E+02  0.12644868003E+02 -0.86659351057E+02  0.12320095002E+03  0.79801216195E+02 0.  0.
         -6    2    1    2    0  502 -0.27440262951E+02  0.92062767364E+02  0.47792037047E+02  0.20155925901E+03  0.17062688804E+03 0.  0.
        -24    2    5    5    0    0 -0.45367148885E+02  0.66108974911E+02 -0.26858421094E+02  0.12038196242E+03  0.85684697174E+02 0.  0.
          5    1    3    3  501    0 -0.63310883253E+01 -0.10470763537E+03 -0.48777442786E+02  0.11578039777E+03  0.47000000000E+01 0. -1.
        -11    1    4    4    0    0  0.24499372819E+00  0.19124737210E+02  0.93576903186E+01  0.21292767865E+02  0.00000000000E+00 0.  1.
         12    1    4    4    0    0  0.33526357548E+02 -0.64798692067E+01 -0.96017041375E+02  0.10190818215E+03  0.00000000000E+00 0. -1.
         -5    1    5    5    0  502  0.17926885935E+02  0.25953792453E+02  0.74650458141E+02  0.81177296596E+02  0.47000000000E+01 0.  1.
         13    1    6    6    0    0 -0.24918109523E+02  0.45024626023E+02 -0.58024533951E+02  0.77556274220E+02  0.00000000000E+00 0. -1.
        -14    1    6    6    0    0 -0.20449039362E+02  0.21084348888E+02  0.31166112857E+02  0.42825688196E+02  0.00000000000E+00 0.  1.
</event>
<event>
12    1  0.8453150E-002  0.1801602E+03  0.7818608E-02  0.1167704E+00
         21   -1    0    0  501  502  0.00000000000E+00  0.00000000000E+00  0.25268865678E+04  0.25268865678E+04  0.00000000000E+00 0. -1.
         21   -1    0    0  502  503 -0.00000000000E+00 -0.00000000000E+00 -0.13246996405E+02  0.13246996405E+02  0.00000000000E+00 0. -1.
         -6    2    1    2    0  503  0.20656360271E+02  0.45854768722E+02  0.10318557905E+04  0.10474655402E+04  0.17299809386E+03 0.  0.
        -24    2    3    3    0    0  0.45224314909E+02  0.10938555287E+02  0.28277659739E+03  0.29715596815E+03  0.78575916954E+02 0.  0.
          6    2    1    2  501    0 -0.20656360271E+02 -0.45854768722E+02  0.14817837809E+04  0.14926680240E+04  0.17275795650E+03 0.  0.
         24    2    5    5    0    0 -0.18665742280E+02 -0.64827449937E+02  0.50093819606E+03  0.51162568217E+03  0.79188093680E+02 0.  0.
          5    1    5    5  501    0 -0.19906179914E+01  0.18972681215E+02  0.98084558480E+03  0.98104234180E+03  0.47000000000E+01 0. -1.
        -13    1    6    6    0    0 -0.31730949858E+02 -0.44924762860E+01  0.79926209317E+02  0.86111755631E+02  0.00000000000E+00 0.  1.
         14    1    6    6    0    0  0.13065207579E+02 -0.60334973651E+02  0.42101198674E+03  0.42551392653E+03  0.00000000000E+00 0. -1.
         -5    1    3    3    0  503 -0.24567954638E+02  0.34916213435E+02  0.74907919311E+03  0.75030957205E+03  0.47000000000E+01 0.  1.
         11    1    4    4    0    0 -0.17264128830E+02  0.16045542769E+02  0.12819455973E+03  0.13034321897E+03  0.00000000000E+00 0. -1.
        -12    1    4    4    0    0  0.62488443738E+02 -0.51069874817E+01  0.15458203765E+03  0.16681274917E+03  0.00000000000E+00 0.  1.
</event>
<event>
12    1  0.8453150E-002  0.3228828E+03  0.7818608E-02  0.1074927E+00
         21   -1    0    0  501  502  0.00000000000E+00  0.00000000000E+00  0.79119459378E+03  0.79119459378E+03  0.00000000000E+00 0.  1.
         21   -1    0    0  502  503 -0.00000000000E+00 -0.00000000000E+00 -0.13560636602E+03  0.13560636602E+03  0.00000000000E+00 0. -1.
         -6    2    1    2    0  503  0.23856289561E+03 -0.13373457204E+03  0.22816026729E+03  0.39112574131E+03  0.16163244423E+03 0.  0.
        -24    2    3    3    0    0  0.16201251542E+03 -0.13240266964E+03  0.10005362260E+03  0.24181017921E+03  0.68431814925E+02 0.  0.
          6    2    1    2  501    0 -0.23856289561E+03  0.13373457204E+03  0.42742796047E+03  0.53567521848E+03  0.17162775822E+03 0.  0.
         24    2    5    5    0    0 -0.20086175821E+03  0.12620655686E+03  0.42924681136E+03  0.49690093587E+03  0.79901026915E+02 0.  0.
          5    1    5    5  501    0 -0.37701137395E+02  0.75280151779E+01 -0.18188508951E+01  0.38774282611E+02  0.47000000000E+01 0. -1.
        -13    1    6    6    0    0 -0.16662415759E+03  0.83773164754E+02  0.26658721797E+03  0.32534642738E+03  0.00000000000E+00 0.  1.
         14    1    6    6    0    0 -0.34237600625E+02  0.42433392103E+02  0.16265959339E+03  0.17155450849E+03  0.00000000000E+00 0. -1.
         -5    1    3    3    0  503  0.76550380192E+02 -0.13319023913E+01  0.12810664469E+03  0.14931556210E+03  0.47000000000E+01 0.  1.
         13    1    4    4    0    0  0.16409268500E+03 -0.11733869994E+03  0.10271215057E+03  0.22637262566E+03  0.00000000000E+00 0. -1.
        -14    1    4    4    0    0 -0.20801695794E+01 -0.15063969701E+02 -0.26585279715E+01  0.15437553549E+02  0.00000000000E+00 0.  1.
</event>
<event>
12    1  0.8453150E-002  0.2513979E+03  0.7818608E-02  0.1112784E+00
         21   -1    0    0  503  502  0.00000000000E+00  0.00000000000E+00  0.19844006971E+03  0.19844006971E+03  0.00000000000E+00 0. -1.
         21   -1    0    0  501  503 -0.00000000000E+00 -0.00000000000E+00 -0.38852860831E+03  0.38852860831E+03  0.00000000000E+00 0. -1.
          6    2    1    2  501    0 -0.18138800472E+03  0.77347225554E+00 -0.22253798353E+03  0.33574405293E+03  0.17406524194E+03 0.  0.
         24    2    3    3    0    0 -0.17605778834E+03  0.47910310346E+02 -0.15970737897E+03  0.25687664787E+03  0.84778668594E+02 0.  0.
         -6    2    1    2    0  502  0.18138800472E+03 -0.77347225554E+00  0.32449444934E+02  0.25122462509E+03  0.17075900931E+03 0.  0.
        -24    2    5    5    0    0  0.14247288892E+03 -0.83193428918E+01 -0.39750104137E+02  0.16872498093E+03  0.80748454265E+02 0.  0.
          5    1    3    3  501    0 -0.53302163714E+01 -0.47136838091E+02 -0.62830604557E+02  0.78867405059E+02  0.47000000000E+01 0. -1.
        -13    1    4    4    0    0 -0.62187355286E+02  0.50824179294E+02 -0.33933425495E+02  0.87188541243E+02  0.00000000000E+00 0.  1.
         14    1    4    4    0    0 -0.11387043306E+03 -0.29138689472E+01 -0.12577395348E+03  0.16968810663E+03  0.00000000000E+00 0. -1.
         -5    1    5    5    0  502  0.38915115795E+02  0.75458706363E+01  0.72199549071E+02  0.82499644163E+02  0.47000000000E+01 0.  1.
         13    1    6    6    0    0  0.12742170821E+02 -0.29013447304E+02 -0.14933222037E+02  0.35030617496E+02  0.00000000000E+00 0. -1.
        -14    1    6    6    0    0  0.12973071810E+03  0.20694104412E+02 -0.24816882100E+02  0.13369436343E+03  0.00000000000E+00 0.  1.
</event>
<event>
12    1  0.8453150E-002  0.1750225E+03  0.7818608E-02  0.1173173E+00
         21   -1    0    0  503  502  0.00000000000E+00  0.00000000000E+00  0.14887563505E+03  0.14887563505E+03  0.00000000000E+00 0.  1.
         21   -1    0    0  501  503 -0.00000000000E+00 -0.00000000000E+00 -0.21298980195E+03  0.21298980195E+03  0.00000000000E+00 0.  1.
          6    2    1    2  501    0  0.48952169325E+01  0.14483679672E+02 -0.70194901525E+02  0.18857414454E+03  0.17435350201E+03 0.  0.
         24    2    3    3    0    0 -0.62492071512E+02  0.13178871686E+02 -0.27892356589E+02  0.10886000229E+03  0.83627596407E+02 0.  0.
         -6    2    1    2    0  502 -0.48952169325E+01 -0.14483679672E+02  0.60807346228E+01  0.17329129246E+03  0.17250842467E+03 0.  0.
        -24    2    5    5    0    0 -0.79794027245E+01  0.55164948539E+02  0.28287781160E+02  0.99972219021E+02  0.78021814884E+02 0.  0.
          5    1    3    3  501    0  0.67387288444E+02  0.13048079864E+01 -0.42302544936E+02  0.79714142258E+02  0.47000000000E+01 0. -1.
        -11    1    4    4    0    0 -0.10010853526E+02  0.43362897304E+02 -0.86755058337E+01  0.45341178330E+02  0.00000000000E+00 0.  1.
         12    1    4    4    0    0 -0.52481217986E+02 -0.30184025618E+02 -0.19216850755E+02  0.63518823956E+02  0.00000000000E+00 0. -1.
         -5    1    5    5    0  502  0.30841857920E+01 -0.69648628212E+02 -0.22207046537E+02  0.73319073437E+02  0.47000000000E+01 0.  1.
         13    1    6    6    0    0  0.22794723011E+02  0.29158152087E+02  0.43311512285E+02  0.56970907722E+02  0.00000000000E+00 0. -1.
        -14    1    6    6    0    0 -0.30774125736E+02  0.26006796452E+02 -0.15023731124E+02  0.43001311299E+02  0.00000000000E+00 0.  1.
</event>
<event>
12    1  0.8453150E-002  0.2240305E+03  0.7818608E-02  0.1131181E+00
         21   -1    0    0  503  502  0.00000000000E+00  0.00000000000E+00  0.14418130528E+03  0.14418130528E+03  0.00000000000E+00 0.  1.
         21   -1    0    0  501  503 -0.00000000000E+00 -0.00000000000E+00 -0.84962490548E+03  0.84962490548E+03  0.00000000000E+00 0.  1.
          6    2    1    2  501    0 -0.13417849943E+03  0.48306037869E+02 -0.73582606814E+03  0.76917465546E+03  0.17277819608E+03 0.  0.
         24    2    3    3    0    0 -0.14669908913E+03 -0.25562461590E+01 -0.48925735305E+03  0.51705968493E+03  0.80316891884E+02 0.  0.
         -6    2    1    2    0  502  0.13417849943E+03 -0.48306037869E+02  0.30382467940E+02  0.22463155530E+03  0.17087685120E+03 0.  0.
        -24    2    5    5    0    0  0.13439984386E+03 -0.21694371889E+02 -0.28429508115E+02  0.15990777075E+03  0.78919543917E+02 0.  0.
          5    1    3    3  501    0  0.12520589697E+02  0.50862284028E+02 -0.24656871509E+03  0.25211497053E+03  0.47000000000E+01 0. -1.
        -13    1    4    4    0    0 -0.11297617886E+03  0.22342676072E+02 -0.42508748247E+03  0.44041137578E+03  0.00000000000E+00 0.  1.
         14    1    4    4    0    0 -0.33722910271E+02 -0.24898922231E+02 -0.64169870571E+02  0.76648309143E+02  0.00000000000E+00 0. -1.
         -5    1    5    5    0  502 -0.22134442995E+00 -0.26611665981E+02  0.58811976054E+02  0.64723784554E+02  0.47000000000E+01 0.  1.
         13    1    6    6    0    0  0.20000288095E+02 -0.35465372767E+02  0.18903307027E+01  0.40759999259E+02  0.00000000000E+00 0. -1.
        -14    1    6    6    0    0  0.11439955577E+03  0.13771000878E+02 -0.30319838817E+02  0.11914777149E+03  0.00000000000E+00 0.  1.
</event>
<event>
12    1  0.8453150E-002  0.1818941E+03  0.7818608E-02  0.1166097E+00
         21   -1    0    0  501  502  0.00000000000E+00  0.00000000000E+00  0.34640441731E+03  0.34640441731E+03  0.00000000000E+00 0. -1.
         21   -1    0    0  502  503 -0.00000000000E+00 -0.00000000000E+00 -0.96403044889E+02  0.96403044889E+02  0.00000000000E+00 0. -1.
         -6    2    1    2    0  503 -0.45090349943E+02  0.37646853686E+02  0.10073355828E+03  0.20750690113E+03  0.17164334827E+03 0.  0.
        -24    2    3    3    0    0 -0.33429488396E+02 -0.36609967534E+02  0.91602697568E+02  0.13164179844E+03  0.80502723411E+02 0.  0.
          6    2    1    2  501    0  0.45090349943E+02 -0.37646853686E+02  0.14926781415E+03  0.23530056107E+03  0.17214833269E+03 0.  0.
         24    2    5    5    0    0 -0.32802190455E+02 -0.36432679349E+02  0.39067932553E+02  0.10026417348E+03  0.78251372557E+02 0.  0.
          5    1    5    5  501    0  0.77892540399E+02 -0.12141743370E+01  0.11019988160E+03  0.13503638759E+03  0.47000000000E+01 0. -1.
        -13    1    6    6    0    0 -0.47435713497E+02 -0.63667894674E+00  0.39281277421E+02  0.61591972130E+02  0.00000000000E+00 0.  1.
         14    1    6    6    0    0  0.14633523042E+02 -0.35796000403E+02 -0.21334486798E+00  0.38672201353E+02  0.00000000000E+00 0. -1.
         -5    1    3    3    0  503 -0.11660861547E+02  0.74256821220E+02  0.91308607080E+01  0.75865102695E+02  0.47000000000E+01 0.  1.
         11    1    4    4    0    0 -0.44959265160E+02 -0.29595931197E+02  0.10151141628E+03  0.11489918321E+03  0.00000000000E+00 0. -1.
        -12    1    4    4    0    0  0.11529776763E+02 -0.70140363368E+01 -0.99087187155E+01  0.16742615224E+02  0.00000000000E+00 0.  1.
</event>
<event>
12    1  0.8453150E-002  0.1975152E+03  0.7818608E-02  0.1152123E+00
         21   -1    0    0  503  502  0.00000000000E+00  0.00000000000E+00  0.44685794405E+02  0.44685794405E+02  0.00000000000E+00 0. -1.
         21   -1    0    0  501  503 -0.00000000000E+00 -0.00000000000E+00 -0.15700864002E+04  0.15700864002E+04  0.00000000000E+00 0. -1.
          6    2    1    2  501    0  0.41924717739E+02  0.85693090394E+02 -0.13041425117E+04  0.13190147679E+04  0.17294877711E+03 0.  0.
         24    2    3    3    0    0  0.32346221559E+02 -0.20376262837E+01 -0.94896920727E+03  0.95301122640E+03  0.81470309443E+02 0.  0.
         -6    2    1    2    0  502 -0.41924717739E+02 -0.85693090394E+02 -0.22125809405E+03  0.29575742662E+03  0.17151187575E+03 0.  0.
        -24    2    5    5    0    0 -0.43958728087E+01 -0.18938769587E+02 -0.26593760927E+02  0.86518696612E+02  0.80001600308E+02 0.  0.
          5    1    3    3  501    0  0.95784961801E+01  0.87730716678E+02 -0.35517330443E+03  0.36600354154E+03  0.47000000000E+01 0. -1.
        -13    1    4    4    0    0 -0.23608121370E+02  0.21364445854E+01 -0.13156032170E+03  0.13367881671E+03  0.00000000000E+00 0.  1.
         14    1    4    4    0    0  0.55954342929E+02 -0.41740708691E+01 -0.81740888557E+03  0.81933240969E+03  0.00000000000E+00 0. -1.
         -5    1    5    5    0  502 -0.37528844930E+02 -0.66754320806E+02 -0.19466433312E+03  0.20923873001E+03  0.47000000000E+01 0.  1.
         11    1    6    6    0    0 -0.26601261550E+02  0.22801993186E+02 -0.10532694818E+02  0.36585457075E+02  0.00000000000E+00 0. -1.
        -12    1    6    6    0    0  0.22205388741E+02 -0.41740762773E+02 -0.16061066109E+02  0.49933239536E+02  0.00000000000E+00 0.  1.
</event>
<event>
12    1  0.8453150E-002  0.2062002E+03  0.7818608E-02  0.1144860E+00
         21   -1    0    0  503  502  0.00000000000E+00  0.00000000000E+00  0.22624525086E+03  0.22624525086E+03  0.00000000000E+00 0.  1.
         21   -1    0    0  501  503 -0.00000000000E+00 -0.00000000000E+00 -0.25637966800E+03  0.25637966800E+03  0.00000000000E+00 0. -1.
          6    2    1    2  501    0  0.70287118232E+02 -0.87816200713E+02 -0.14073245737E+03  0.24863678013E+03  0.17135536111E+03 0.  0.
         24    2    3    3    0    0 -0.60935030790E+01  0.15135637662E+02 -0.58171056334E+02  0.96086607148E+02  0.74716437087E+02 0.  0.
         -6    2    1    2    0  502 -0.70287118232E+02  0.87816200713E+02  0.11059804023E+03  0.23398813873E+03  0.17281943892E+03 0.  0.
        -24    2    5    5    0    0 -0.80952488895E+02  0.12273436390E+03  0.10244319754E+03  0.19628376616E+03  0.80097931279E+02 0.  0.
          5    1    3    3  501    0  0.76380621311E+02 -0.10295183837E+03 -0.82561401037E+02  0.15255017298E+03  0.47000000000E+01 0. -1.
        -11    1    4    4    0    0 -0.13591132173E+02  0.42089375338E+02 -0.50389934457E+02  0.67047594175E+02  0.00000000000E+00 0.  1.
         12    1    4    4    0    0  0.74976290936E+01 -0.26953737676E+02 -0.77811218772E+01  0.29039012973E+02  0.00000000000E+00 0. -1.
         -5    1    5    5    0  502  0.10665370664E+02 -0.34918163188E+02  0.81548426935E+01  0.37704372574E+02  0.47000000000E+01 0.  1.
         11    1    6    6    0    0 -0.14716996095E+02  0.89881416882E+02  0.72915072269E+02  0.11666990545E+03  0.00000000000E+00 0. -1.
        -12    1    6    6    0    0 -0.66235492801E+02  0.32852947019E+02  0.29528125269E+02  0.79613860705E+02  0.00000000000E+00 0.  1.
</event>
<event>
12    1  0.8453150E-002  0.1911669E+03  0.7818608E-02  0.1158092E+00
         21   -1    0    0  503  502  0.00000000000E+00  0.00000000000E+00  0.24177152445E+03  0.24177152445E+03  0.00000000000E+00 0. -1.
         21   -1    0    0  501  503 -0.00000000000E+00 -0.00000000000E+00 -0.15458274530E+03  0.15458274530E+03  0.00000000000E+00 0.  1.
          6    2    1    2  501    0  0.78002964314E+02  0.33776685174E+02  0.48795830647E+01  0.18822067223E+03  0.16786269455E+03 0.  0.
         24    2    3    3    0    0 -0.17768660058E+02  0.23333280991E+02 -0.20248690599E+02  0.88547261216E+02  0.81058255075E+02 0.  0.
         -6    2    1    2    0  502 -0.78002964314E+02 -0.33776685174E+02  0.82309196082E+02  0.20813359752E+03  0.17122927248E+03 0.  0.
        -24    2    5    5    0    0 -0.87205000139E+02 -0.25882774923E+02  0.11881502949E+03  0.16938108591E+03  0.79361898572E+02 0.  0.
          5    1    3    3  501    0  0.95771624373E+02  0.10443404182E+02  0.25128273664E+02  0.99673411014E+02  0.47000000000E+01 0. -1.
        -13    1    4    4    0    0  0.89590097138E+01 -0.21027888026E+02 -0.28037929985E+02  0.36174043840E+02  0.00000000000E+00 0.  1.
         14    1    4    4    0    0 -0.26727669772E+02  0.44361169017E+02  0.77892393862E+01  0.52373217375E+02  0.00000000000E+00 0. -1.
         -5    1    5    5    0  502  0.92020358245E+01 -0.78939102507E+01 -0.36505833413E+02  0.38752511603E+02  0.47000000000E+01 0.  1.
         11    1    6    6    0    0 -0.21681641599E+01  0.80070517755E+01  0.60007159129E+02  0.60577825652E+02  0.00000000000E+00 0. -1.
        -12    1    6    6    0    0 -0.85036835979E+02 -0.33889826698E+02  0.58807870365E+02  0.10880326026E+03  0.00000000000E+00 0.  1.
</event>
<event>
12    1  0.8453150E-002  0.2376927E+03  0.7818608E-02  0.1121648E+00
         21   -1    0    0  501  502  0.00000000000E+00  0.00000000000E+00  0.14436954869E+04  0.14436954869E+04  0.00000000000E+00 0.  1.
         21   -1    0    0  502  503 -0.00000000000E+00 -0.00000000000E+00 -0.58731993788E+02  0.58731993788E+02  0.00000000000E+00 0.  1.
         -6    2    1    2    0  503 -0.90797857340E+02  0.13373276588E+03  0.25700106277E+03  0.35006763175E+03  0.17426731468E+03 0.  0.
        -24    2    3    3    0    0 -0.56553973355E+02  0.11722402850E+03  0.86574802987E+02  0.17538969375E+03  0.79539445570E+02 0.  0.
          6    2    1    2  501    0  0.90797857340E+02 -0.13373276588E+03  0.11279624303E+04  0.11523598489E+04  0.17177099179E+03 0.  0.
         24    2    5    5    0    0  0.25405466307E+02 -0.14289263707E+03  0.88735657169E+03  0.90281358617E+03  0.81283101584E+02 0.  0.
          5    1    5    5  501    0  0.65392391032E+02  0.91598711958E+01  0.24060585865E+03  0.24954626277E+03  0.47000000000E+01 0. -1.
        -11    1    6    6    0    0  0.91518892585E+01  0.86854538758E+01  0.43309901007E+02  0.45110328210E+02  0.00000000000E+00 0.  1.
         12    1    6    6    0    0  0.16253577049E+02 -0.15157809095E+03  0.84404667068E+03  0.85770325796E+03  0.00000000000E+00 0. -1.
         -5    1    3    3    0  503 -0.34243883985E+02  0.16508737380E+02  0.17042625979E+03  0.17467793800E+03  0.47000000000E+01 0.  1.
         13    1    4    4    0    0 -0.37960365476E+02  0.19489113182E+02  0.57761010455E+02  0.71813294093E+02  0.00000000000E+00 0. -1.
        -14    1    4    4    0    0 -0.18593607879E+02  0.97734915313E+02  0.28813792531E+02  0.10357639965E+03  0.00000000000E+00 0.  1.
</event>
<event>
12    1  0.8453150E-002  0.1760533E+03  0.7818608E-02  0.1171729E+00
         21   -1    0    0  501  502  0.00000000000E+00  0.00000000000E+00  0.36660853118E+03  0.36660853118E+03  0.00000000000E+00 0.  1.
         21   -1    0    0  502  503 -0.00000000000E+00 -0.00000000000E+00 -0.93461117372E+02  0.93461117372E+02  0.00000000000E+00 0.  1.
         -6    2    1    2    0  503 -0.30456692762E+02 -0.20717844088E+02  0.65059255720E+02  0.18749774139E+03  0.17194725084E+03 0.  0.
        -24    2    3    3    0    0 -0.45271086930E+02 -0.17379081231E+02 -0.24583028342E+02  0.96456856593E+02  0.79674940384E+02 0.  0.
          6    2    1    2  501    0  0.30456692762E+02  0.20717844088E+02  0.20808815808E+03  0.27257190716E+03  0.17215668399E+03 0.  0.
         24    2    5    5    0    0  0.13677178316E+02  0.13146461845E+02  0.23022471142E+03  0.24340008981E+03  0.76683057493E+02 0.  0.
          5    1    5    5  501    0  0.16779514446E+02  0.75713822431E+01 -0.22136553334E+02  0.29171817352E+02  0.47000000000E+01 0. -1.
        -11    1    6    6    0    0  0.21023420878E+02 -0.21394193829E+02  0.17701648251E+03  0.17953977508E+03  0.00000000000E+00 0.  1.
         12    1    6    6    0    0 -0.73462425619E+01  0.34540655674E+02  0.53208228909E+02  0.63860314733E+02  0.00000000000E+00 0. -1.
         -5    1    3    3    0  503  0.14814394168E+02 -0.33387628567E+01  0.89642284061E+02  0.91040884792E+02  0.47000000000E+01 0.  1.
         11    1    4    4    0    0 -0.14175495880E+02 -0.47631940513E+02 -0.10043048413E+02  0.50701176139E+02  0.00000000000E+00 0. -1.
        -12    1    4    4    0    0 -0.31095591050E+02  0.30252859282E+02 -0.14539979929E+02  0.45755680454E+02  0.00000000000E+00 0.  1.
</event>
<event>
12    1  0.8453150E-002  0.1733564E+03  0.7818608E-02  0.1174998E+00
         21   -1    0    0  503  502  0.00000000000E+00  0.00000000000E+00  0.22392362315E+03  0.22392362315E+03  0.00000000000E+00 0. -1.
         21   -1    0    0  501  503 -0.00000000000E+00 -0.00000000000E+00 -0.13240250824E+03  0.13240250824E+03  0.00000000000E+00 0. -1.
          6    2    1    2  501    0 -0.14395307965E+02 -0.99088458988E+01  0.48241302280E+02  0.17994350667E+03  0.17247327975E+03 0.  0.
         24    2    3    3    0    0 -0.27426765731E+02  0.58585066225E+02  0.33596066608E+02  0.10854457238E+03  0.80428794832E+02 0.  0.
         -6    2    1    2    0  502  0.14395307965E+02  0.99088458988E+01  0.43279812622E+02  0.17638262472E+03  0.17009490882E+03 0.  0.
        -24    2    5    5    0    0  0.28626995264E+02  0.54968373742E+01  0.91746825312E+02  0.12545966269E+03  0.80454502233E+02 0.  0.
          5    1    3    3  501    0  0.13031457767E+02 -0.68493912123E+02  0.14645235673E+02  0.71398934288E+02  0.47000000000E+01 0. -1.
        -11    1    4    4    0    0  0.12071482266E+02  0.15295907122E+02  0.44825464814E+02  0.48877476966E+02  0.00000000000E+00 0.  1.
         12    1    4    4    0    0 -0.39498247998E+02  0.43289159103E+02 -0.11229398207E+02  0.59667095411E+02  0.00000000000E+00 0. -1.
         -5    1    5    5    0  502 -0.14231687299E+02  0.44120085246E+01 -0.48467012690E+02  0.50922962028E+02  0.47000000000E+01 0.  1.
         13    1    6    6    0    0  0.16575539081E+01  0.36325166511E+02  0.70479956391E+02  0.79307562438E+02  0.00000000000E+00 0. -1.
        -14    1    6    6    0    0  0.26969441356E+02 -0.30828329136E+02  0.21266868921E+02  0.46152100257E+02  0.00000000000E+00 0.  1.
</event>
<event>
12    1  0.8453150E-002  0.1803718E+03  0.7818608E-02  0.1167508E+00
         21   -1    0    0  501  502  0.00000000000E+00  0.00000000000E+00  0.90983821484E+03  0.90983821484E+03  0.00000000000E+00 0. -1.
         21   -1    0    0  502  503 -0.00000000000E+00 -0.00000000000E+00 -0.22952026498E+03  0.22952026498E+03  0.00000000000E+00 0.  1.
         -6    2    1    2    0  503  0.31291015928E+01 -0.54769359837E+02 -0.18329826669E+03  0.25716190590E+03  0.17182699794E+03 0.  0.
        -24    2    3    3    0    0 -0.12150849719E+02  0.16791739044E+02 -0.35921409415E+02  0.92551773023E+02  0.82739817418E+02 0.  0.
          6    2    1    2  501    0 -0.31291015928E+01  0.54769359837E+02  0.86361621655E+03  0.88219657392E+03  0.17154693674E+03 0.  0.
         24    2    5    5    0    0 -0.40263105795E+02  0.88486639368E+02  0.53348836666E+03  0.54824706205E+03  0.80709359149E+02 0.  0.
          5    1    5    5  501    0  0.37134004202E+02 -0.33717279531E+02  0.33012784989E+03  0.33394951187E+03  0.47000000000E+01 0. -1.
        -11    1    6    6    0    0 -0.26181017308E+02  0.72989942867E+02  0.20634407619E+03  0.22043333506E+03  0.00000000000E+00 0.  1.
         12    1    6    6    0    0 -0.14082088486E+02  0.15496696501E+02  0.32714429046E+03  0.32781372699E+03  0.00000000000E+00 0. -1.
         -5    1    3    3    0  503  0.15279951312E+02 -0.71561098881E+02 -0.14737685727E+03  0.16461013288E+03  0.47000000000E+01 0.  1.
         13    1    4    4    0    0  0.46112650379E+01 -0.29609593233E+01  0.25399039436E+02  0.25983499565E+02  0.00000000000E+00 0. -1.
        -14    1    4    4    0    0 -0.16762114757E+02  0.19752698368E+02 -0.61320448851E+02  0.66568273458E+02  0.00000000000E+00 0.  1.
</event>
<event>
12    1  0.8453150E-002  0.2015304E+03  0.7818608E-02  0.1151050E+00
         21   -1    0    0  503  502  0.00000000000E+00  0.00000000000E+00  0.50060429962E+03  0.50060429962E+03  0.00000000000E+00 0.  1.
         21   -1    0    0  501  503 -0.00000000000E+00 -0.00000000000E+00 -0.76894012710E+02  0.76894012710E+02  0.00000000000E+00 0.  1.
          6    2    1    2  501    0 -0.48080306971E+01 -0.79946046664E+02  0.19431497501E+03  0.27995141326E+03  0.18493241126E+03 0.  0.
         24    2    3    3    0    0 -0.28043325796E+01 -0.43643871223E+00  0.18342564831E+03  0.19953711105E+03  0.78498633546E+02 0.  0.
         -6    2    1    2    0  502  0.48080306971E+01  0.79946046664E+02  0.22939531190E+03  0.29754689907E+03  0.17174824742E+03 0.  0.
        -24    2    5    5    0    0  0.58702081574E+02  0.20476225519E+02  0.80836901043E+02  0.12862999707E+03  0.78395544408E+02 0.  0.
          5    1    3    3  501    0 -0.20036981175E+01 -0.79509607952E+02  0.10889326698E+02  0.80414302203E+02  0.47000000000E+01 0. -1.
        -13    1    4    4    0    0 -0.22759101038E+02 -0.34877135851E+01  0.10274511029E+02  0.25213218815E+02  0.00000000000E+00 0.  1.
         14    1    4    4    0    0  0.19954768459E+02  0.30512748729E+01  0.17315113728E+03  0.17432389224E+03  0.00000000000E+00 0. -1.
         -5    1    5    5    0  502 -0.53894050877E+02  0.59469821145E+02  0.14855841086E+03  0.16891690200E+03  0.47000000000E+01 0.  1.
         13    1    6    6    0    0  0.27141213899E+01 -0.11972926144E+02 -0.10865195060E+02  0.16394202605E+02  0.00000000000E+00 0. -1.
        -14    1    6    6    0    0  0.55987960184E+02  0.32449151663E+02  0.91702096103E+02  0.11223579446E+03  0.00000000000E+00 0.  1.
</event>
<event>
12    1  0.8453150E-002  0.2263773E+03  0.7818608E-02  0.1129235E+00
         21   -1    0    0  503  502  0.00000000000E+00  0.00000000000E+00  0.53313294211E+03  0.53313294211E+03  0.00000000000E+00 0. -1.
         21   -1    0    0  501  503 -0.00000000000E+00 -0.00000000000E+00 -0.21744050050E+03  0.21744050050E+03  0.00000000000E+00 0. -1.
          6    2    1    2  501    0 -0.12839661360E+03 -0.73234627977E+02 -0.12250920485E+03  0.25740080276E+03  0.17145747832E+03 0.  0.
         24    2    3    3    0    0 -0.11308308732E+03 -0.35970480390E+02 -0.18441435616E+02  0.14570786934E+03  0.82516886415E+02 0.  0.
         -6    2    1    2    0  502  0.12839661360E+03  0.73234627977E+02  0.43820164646E+03  0.49317263985E+03  0.17131715800E+03 0.  0.
        -24    2    5    5    0    0  0.10572033890E+03  0.49425979818E+02  0.43779504335E+03  0.45995637144E+03  0.79218975655E+02 0.  0.
          5    1    3    3  501    0 -0.15313526276E+02 -0.37264147587E+02 -0.10406776923E+03  0.11169293342E+03  0.47000000000E+01 0. -1.
        -13    1    4    4    0    0 -0.33299465494E+02 -0.18355896181E+02  0.31991295682E+02  0.49691410991E+02  0.00000000000E+00 0.  1.
         14    1    4    4    0    0 -0.79783621826E+02 -0.17614584209E+02 -0.50432731297E+02  0.96016458353E+02  0.00000000000E+00 0. -1.
         -5    1    5    5    0  502  0.22676274698E+02  0.23808648159E+02  0.40660310261E+00  0.33216268415E+02  0.47000000000E+01 0.  1.
         11    1    6    6    0    0  0.65399961390E+02  0.69822740001E+02  0.30847897176E+03  0.32297313509E+03  0.00000000000E+00 0. -1.
        -12    1    6    6    0    0  0.40320377508E+02 -0.20396760183E+02  0.12931607159E+03  0.13698323635E+03  0.00000000000E+00 0.  1.
</event>
<event>
12    1  0.8453150E-002  0.1850797E+03  0.7818608E-02  0.1163282E+00
         21   -1    0    0  503  502  0.00000000000E+00  0.00000000000E+00  0.55045818812E+02  0.55045818812E+02  0.00000000000E+00 0. -1.
         21   -1    0    0  501  503 -0.00000000000E+00 -0.00000000000E+00 -0.23448937507E+04  0.23448937507E+04  0.00000000000E+00 0. -1.
          6    2    1    2  501    0  0.21827344192E+02 -0.62481069544E+02 -0.21757993593E+04  0.21836568778E+04  0.17284152078E+03 0.  0.
         24    2    3    3    0    0  0.35889618602E+02 -0.30314119534E+02 -0.56700618689E+03  0.57447384855E+03  0.79480665143E+02 0.  0.
         -6    2    1    2    0  502 -0.21827344192E+02  0.62481069544E+02 -0.11404857266E+03  0.21628269172E+03  0.17143747784E+03 0.  0.
        -24    2    5    5    0    0 -0.55454648327E+02  0.93568407941E+02 -0.97528059360E+02  0.16737220663E+03  0.81679056098E+02 0.  0.
          5    1    3    3  501    0 -0.14062274409E+02 -0.32166950010E+02 -0.16087931724E+04  0.16091830293E+04  0.47000000000E+01 0. -1.
        -13    1    4    4    0    0  0.59923050245E+01  0.26997069450E+02 -0.17686549358E+03  0.17901439131E+03  0.00000000000E+00 0.  1.
         14    1    4    4    0    0  0.29897313577E+02 -0.57311188983E+02 -0.39014069332E+03  0.39545945724E+03  0.00000000000E+00 0. -1.
         -5    1    5    5    0  502  0.33627304134E+02 -0.31087338397E+02 -0.16520513302E+02  0.48910485090E+02  0.47000000000E+01 0.  1.
         11    1    6    6    0    0  0.17400737387E+01  0.76157035505E+02 -0.57062288493E+02  0.95178919313E+02  0.00000000000E+00 0. -1.
        -12    1    6    6    0    0 -0.57194722065E+02  0.17411372436E+02 -0.40465770867E+02  0.72193287320E+02  0.00000000000E+00 0.  1.
</event>
<event>
12    1  0.8453150E-002  0.1769674E+03  0.7818608E-02  0.1171089E+00
         21   -1    0    0  503  502  0.00000000000E+00  0.00000000000E+00  0.51298083377E+03  0.51298083377E+03  0.00000000000E+00 0.  1.
         21   -1    0    0  501  503 -0.00000000000E+00 -0.00000000000E+00 -0.43176589733E+03  0.43176589733E+03  0.00000000000E+00 0.  1.
          6    2    1    2  501    0 -0.36433318846E+02 -0.19246500668E+01 -0.39737889551E+03  0.43448255918E+03  0.17185463810E+03 0.  0.
         24    2    3    3    0    0  0.45358112775E+02 -0.89934874788E+01 -0.25706319010E+03  0.27184678841E+03  0.75372086706E+02 0.  0.
         -6    2    1    2    0  502  0.36433318846E+02  0.19246500668E+01  0.47859383195E+03  0.51026417192E+03  0.17316575343E+03 0.  0.
        -24    2    5    5    0    0 -0.19904861859E+02 -0.47595981283E+02  0.20045276031E+03  0.22214817225E+03  0.80665484289E+02 0.  0.
          5    1    3    3  501    0 -0.81791431621E+02  0.70688374119E+01 -0.14031570541E+03  0.16263577077E+03  0.47000000000E+01 0. -1.
        -13    1    4    4    0    0  0.23505176168E+02  0.11017000903E+02 -0.23079094716E+03  0.23224626780E+03  0.00000000000E+00 0.  1.
         14    1    4    4    0    0  0.21852936607E+02 -0.20010488382E+02 -0.26272242935E+02  0.39600520609E+02  0.00000000000E+00 0. -1.
         -5    1    5    5    0  502  0.56338180705E+02  0.49520631350E+02  0.27814107164E+03  0.28811599967E+03  0.47000000000E+01 0.  1.
         11    1    6    6    0    0  0.26478211703E+02  0.30306637808E+01  0.46903568689E+02  0.53946504741E+02  0.00000000000E+00 0. -1.
        -12    1    6    6    0    0 -0.46383073562E+02 -0.50626645064E+02  0.15354919162E+03  0.16820166750E+03  0.00000000000E+00 0.  1.
</event>
<event>
12    1  0.8453150E-002  0.1980950E+03  0.7818608E-02  0.1152174E+00
         21   -1    0    0  501  502  0.00000000000E+00  0.00000000000E+00  0.30727168936E+02  0.30727168936E+02  0.00000000000E+00 0.  1.
         21   -1    0    0  502  503 -0.00000000000E+00 -0.00000000000E+00 -0.12541604495E+04  0.12541604495E+04  0.00000000000E+00 0.  1.
         -6    2    1    2    0  503  0.67437272512E+02  0.73228426429E+02 -0.59641867681E+03  0.62845592520E+03  0.17126419272E+03 0.  0.
        -24    2    3    3    0    0  0.65806022816E+02  0.11320235286E+03 -0.42337266045E+03  0.45078322176E+03  0.82558452438E+02 0.  0.
          6    2    1    2  501    0 -0.67437272512E+02 -0.73228426429E+02 -0.62701460378E+03  0.65643169327E+03  0.16686841045E+03 0.  0.
         24    2    5    5    0    0 -0.90256039884E+02 -0.98603251082E+02 -0.55336695344E+03  0.57512582465E+03  0.81767812493E+02 0.  0.
          5    1    5    5  501    0  0.22818767373E+02  0.25374824654E+02 -0.73647650340E+02  0.81305868615E+02  0.47000000000E+01 0. -1.
        -13    1    6    6    0    0 -0.21023326305E+02  0.28438941351E+01 -0.25559556011E+02  0.33216846422E+02  0.00000000000E+00 0.  1.
         14    1    6    6    0    0 -0.69232713579E+02 -0.10144714522E+03 -0.52780739743E+03  0.54190897823E+03  0.00000000000E+00 0. -1.
         -5    1    3    3    0  503  0.16312496960E+01 -0.39973926430E+02 -0.17304601637E+03  0.17767270345E+03  0.47000000000E+01 0.  1.
         11    1    4    4    0    0  0.40098378261E+02  0.22476351378E+02 -0.61230171242E+02  0.76565006242E+02  0.00000000000E+00 0. -1.
        -12    1    4    4    0    0  0.25707644554E+02  0.90726001481E+02 -0.36214248921E+03  0.37421821551E+03  0.00000000000E+00 0.  1.
</event>
<event>
12    1  0.8453150E-002  0.1967649E+03  0.7818608E-02  0.1153473E+00
         21   -1    0    0  503  502  0.00000000000E+00  0.00000000000E+00  0.15700278657E+04  0.15700278657E+04  0.00000000000E+00 0. -1.
         21   -1    0    0  501  503 -0.00000000000E+00 -0.00000000000E+00 -0.26110392302E+02  0.26110392302E+02  0.00000000000E+00 0. -1.
          6    2    1    2  501    0  0.83732537684E+02  0.42417470334E+02  0.55885731114E+03  0.59248453212E+03  0.17293364895E+03 0.  0.
         24    2    3    3    0    0  0.19552640411E+01  0.39934922630E+02  0.14021954535E+03  0.16590118216E+03  0.79139498604E+02 0.  0.
         -6    2    1    2    0  502 -0.83732537684E+02 -0.42417470334E+02  0.98506016221E+03  0.10036537258E+04  0.16782996913E+03 0.  0.
        -24    2    5    5    0    0 -0.66747296260E+02  0.38336806406E+02  0.51983475823E+03  0.53114286019E+03  0.77198768018E+02 0.  0.
          5    1    3    3  501    0  0.81777273643E+02  0.24825477043E+01  0.41863776578E+03  0.42658334997E+03  0.47000000000E+01 0. -1.
        -13    1    4    4    0    0 -0.35234335823E+02  0.20605752378E+02  0.99139951833E+02  0.10721373747E+03  0.00000000000E+00 0.  1.
         14    1    4    4    0    0  0.37189599864E+02  0.19329170251E+02  0.41079593520E+02  0.58687444692E+02  0.00000000000E+00 0. -1.
         -5    1    5    5    0  502 -0.16985241424E+02 -0.80754276740E+02  0.46522540398E+03  0.47251086564E+03  0.47000000000E+01 0.  1.
         11    1    6    6    0    0 -0.34391781480E+02 -0.21403491650E+02  0.22107592129E+03  0.22475646167E+03  0.00000000000E+00 0. -1.
        -12    1    6    6    0    0 -0.32355514780E+02  0.59740298055E+02  0.29875883694E+03  0.30638639852E+03  0.00000000000E+00 0.  1.
</event>
<event>
12    1  0.8453150E-002  0.2994680E+03  0.7818608E-02  0.1085586E+00
         21   -1    0    0  503  502  0.00000000000E+00  0.00000000000E+00  0.37349723887E+03  0.37349723887E+03  0.00000000000E+00 0. -1.
         21   -1    0    0  501  503 -0.00000000000E+00 -0.00000000000E+00 -0.37732332617E+03  0.37732332617E+03  0.00000000000E+00 0. -1.
          6    2    1    2  501    0 -0.22332836760E+03 -0.10003019399E+03 -0.22871294743E+03  0.37631396503E+03  0.17152547470E+03 0.  0.
         24    2    3    3    0    0 -0.61942161918E+02 -0.56248134738E+02 -0.35507439327E+02  0.12075020692E+03  0.79493082337E+02 0.  0.
         -6    2    1    2    0  502  0.22332836760E+03  0.10003019399E+03  0.22488686013E+03  0.37450660000E+03  0.17262529972E+03 0.  0.
        -24    2    5    5    0    0  0.37432304969E+02  0.52985941588E+02  0.11160851066E+03  0.15174084356E+03  0.79750463888E+02 0.  0.
          5    1    3    3  501    0 -0.16138620568E+03 -0.43782059254E+02 -0.19320550811E+03  0.25556375811E+03  0.47000000000E+01 0. -1.
        -11    1    4    4    0    0  0.22851018289E+01 -0.21076826213E+02  0.19780754557E+02  0.28995388330E+02  0.00000000000E+00 0.  1.
         12    1    4    4    0    0 -0.64227263747E+02 -0.35171308525E+02 -0.55288193883E+02  0.91754818591E+02  0.00000000000E+00 0. -1.
         -5    1    5    5    0  502  0.18589606263E+03  0.47044252404E+02  0.11327834947E+03  0.22276575644E+03  0.47000000000E+01 0.  1.
         13    1    6    6    0    0 -0.11785994636E+02  0.39290148290E+02  0.17371611899E+02  0.44546585976E+02  0.00000000000E+00 0. -1.
        -14    1    6    6    0    0  0.49218299605E+02  0.13695793299E+02  0.94236898764E+02  0.10719425758E+03  0.00000000000E+00 0.  1.
</event>
<event>
12    1  0.8453150E-002  0.2189954E+03  0.7818608E-02  0.1135439E+00
         21   -1    0    0  503  502  0.00000000000E+00  0.00000000000E+00  0.14182315580E+03  0.14182315580E+03  0.00000000000E+00 0. -1.
         21   -1    0    0  501  503 -0.00000000000E+00 -0.00000000000E+00 -0.40888601757E+03  0.40888601757E+03  0.00000000000E+00 0. -1.
          6    2    1    2  501    0 -0.21119052437E+01  0.13304704590E+03 -0.25215494387E+03  0.33120696582E+03  0.16855254945E+03 0.  0.
         24    2    3    3    0    0  0.23047725692E+02  0.95752678681E+02 -0.73228585955E+02  0.14665180223E+03  0.80277968092E+02 0.  0.
         -6    2    1    2    0  502  0.21119052437E+01 -0.13304704590E+03 -0.14907917904E+02  0.21950220754E+03  0.17393388552E+03 0.  0.
        -24    2    5    5    0    0 -0.17737990192E+02 -0.16211130324E+03 -0.65652391135E+00  0.18124071731E+03  0.79076264786E+02 0.  0.
          5    1    3    3  501    0 -0.25159630935E+02  0.37294367218E+02 -0.17892635791E+03  0.18455516360E+03  0.47000000000E+01 0. -1.
        -11    1    4    4    0    0  0.44673153013E+01 -0.78402235855E+01  0.92615406192E+01  0.12930666901E+02  0.00000000000E+00 0.  1.
         12    1    4    4    0    0  0.18580410391E+02  0.10359290227E+03 -0.82490126575E+02  0.13372113532E+03  0.00000000000E+00 0. -1.
         -5    1    5    5    0  502  0.19849895436E+02  0.29064257345E+02 -0.14251393993E+02  0.38261490229E+02  0.47000000000E+01 0.  1.
         11    1    6    6    0    0 -0.13657196970E+01 -0.22185727472E+02  0.29730094123E+02  0.37120751478E+02  0.00000000000E+00 0. -1.
        -12    1    6    6    0    0 -0.16372270495E+02 -0.13992557577E+03 -0.30386618034E+02  0.14411996583E+03  0.00000000000E+00 0.  1.
</event>
<event>
12    1  0.8453150E-002  0.3371051E+03  0.7818608E-02  0.1068128E+00
         21   -1    0    0  501  502  0.00000000000E+00  0.00000000000E+00  0.14882289696E+04  0.14882289696E+04  0.00000000000E+00 0.  1.
         21   -1    0    0  502  503 -0.00000000000E+00 -0.00000000000E+00 -0.99595291433E+02  0.99595291433E+02  0.00000000000E+00 0. -1.
         -6    2    1    2    0  503 -0.27023500886E+03 -0.10290090321E+03  0.30857964045E+03  0.45638421512E+03  0.17160886170E+03 0.  0.
        -24    2    3    3    0    0 -0.26406948571E+03 -0.10149531126E+03  0.32513588521E+03  0.43804876844E+03  0.78354248040E+02 0.  0.
          6    2    1    2  501    0  0.27023500886E+03  0.10290090321E+03  0.10800540377E+04  0.11314400459E+04  0.17327520661E+03 0.  0.
         24    2    5    5    0    0  0.17699565832E+03  0.16910447521E+02  0.74120694484E+03  0.76960116284E+03  0.10622988499E+03 0.  0.
          5    1    5    5  501    0  0.93239350531E+02  0.85990455685E+02  0.33884709290E+03  0.36183888310E+03  0.47000000000E+01 0. -1.
        -13    1    6    6    0    0  0.23457735725E+01  0.30623136274E+02  0.14347800118E+03  0.14672837473E+03  0.00000000000E+00 0.  1.
         14    1    6    6    0    0  0.17464988475E+03 -0.13712688753E+02  0.59772894366E+03  0.62287278811E+03  0.00000000000E+00 0. -1.
         -5    1    3    3    0  503 -0.61655231459E+01 -0.14055919496E+01 -0.16556244760E+02  0.18335446680E+02  0.47000000000E+01 0.  1.
         11    1    4    4    0    0 -0.15444983093E+03 -0.21654090363E+02  0.14843228028E+03  0.21530395196E+03  0.00000000000E+00 0. -1.
        -12    1    4    4    0    0 -0.10961965478E+03 -0.79841220894E+02  0.17670360494E+03  0.22274481647E+03  0.00000000000E+00 0.  1.
</event>
<event>
12    1  0.8453150E-002  0.3094814E+03  0.7818608E-02  0.1080674E+00
         21   -1    0    0  501  502  0.00000000000E+00  0.00000000000E+00  0.23991189289E+03  0.23991189289E+03  0.00000000000E+00 0. -1.
         21   -1    0    0  502  503 -0.00000000000E+00 -0.00000000000E+00 -0.39843305838E+03  0.39843305838E+03  0.00000000000E+00 0.  1.
         -6    2    1    2    0  503 -0.22932786357E+03 -0.11434039417E+03 -0.82925984588E+02  0.31976466897E+03  0.17235930450E+03 0.  0.
        -24    2    3    3    0    0 -0.64608210604E+02 -0.30362123836E+02  0.21040192711E+02  0.10759499633E+03  0.77704015890E+02 0.  0.
          6    2    1    2  501    0  0.22932786357E+03  0.11434039417E+03 -0.75595180904E+02  0.31858028230E+03  0.17353319609E+03 0.  0.
         24    2    5    5    0    0  0.14039157137E+03  0.50005867247E+02  0.26002995646E+02  0.16893779200E+03  0.75189372333E+02 0.  0.
          5    1    5    5  501    0  0.88936292204E+02  0.64334526927E+02 -0.10159817655E+03  0.14964249030E+03  0.47000000000E+01 0. -1.
        -13    1    6    6    0    0  0.10140432511E+03 -0.83382467670E+00  0.50601750792E+01  0.10153392431E+03  0.00000000000E+00 0.  1.
         14    1    6    6    0    0  0.38987246263E+02  0.50839691924E+02  0.20942820567E+02  0.67403867689E+02  0.00000000000E+00 0. -1.
         -5    1    3    3    0  503 -0.16471965297E+03 -0.83978270338E+02 -0.10396617730E+03  0.21216967263E+03  0.47000000000E+01 0.  1.
         13    1    4    4    0    0 -0.18202588907E+02  0.26312307843E+02  0.28550357349E+01  0.32122002054E+02  0.00000000000E+00 0. -1.
        -14    1    4    4    0    0 -0.46405621697E+02 -0.56674431679E+02  0.18185156976E+02  0.75472994280E+02  0.00000000000E+00 0.  1.
</event>
<event>
12    1  0.8453150E-002  0.1871991E+03  0.7818608E-02  0.1161257E+00
         21   -1    0    0  503  502  0.00000000000E+00  0.00000000000E+00  0.34977136854E+03  0.34977136854E+03  0.00000000000E+00 0.  1.
         21   -1    0    0  501  503 -0.00000000000E+00 -0.00000000000E+00 -0.14421277966E+03  0.14421277966E+03  0.00000000000E+00 0.  1.
          6    2    1    2  501    0 -0.70727418933E+02  0.10703991058E+02  0.23991888809E+03  0.30365773687E+03  0.17184296635E+03 0.  0.
         24    2    3    3    0    0 -0.30730233089E+02  0.44976133804E+02  0.49728762798E+02  0.10625275111E+03  0.76482007237E+02 0.  0.
         -6    2    1    2    0  502  0.70727418933E+02 -0.10703991058E+02 -0.34360299208E+02  0.19032641133E+03  0.17299297522E+03 0.  0.
        -24    2    5    5    0    0 -0.20152591602E+02 -0.27264423214E+02 -0.45331482150E+02  0.97182001495E+02  0.78993179574E+02 0.  0.
          5    1    3    3  501    0 -0.39997185844E+02 -0.34272142746E+02  0.19019012529E+03  0.19740498576E+03  0.47000000000E+01 0. -1.
        -11    1    4    4    0    0  0.27104974196E+01  0.54392595375E+02  0.46045511004E+02  0.71316830493E+02  0.00000000000E+00 0.  1.
         12    1    4    4    0    0 -0.33440730509E+02 -0.94164615712E+01  0.36832517935E+01  0.34935920615E+02  0.00000000000E+00 0. -1.
         -5    1    5    5    0  502  0.90880010535E+02  0.16560432156E+02  0.10971182942E+02  0.93144409833E+02  0.47000000000E+01 0.  1.
         13    1    6    6    0    0 -0.26810510405E+02 -0.52442866011E+02 -0.38119409440E+02  0.70158014793E+02  0.00000000000E+00 0. -1.
        -14    1    6    6    0    0  0.66579188034E+01  0.25178442797E+02 -0.72120727102E+01  0.27023986702E+02  0.00000000000E+00 0.  1.
</event>
<event>
12    1  0.8453150E-002  0.2245769E+03  0.7818608E-02  0.1130766E+00
         21   -1    0    0  501  502  0.00000000000E+00  0.00000000000E+00  0.15756610385E+03  0.15756610385E+03  0.00000000000E+00 0. -1.
         21   -1    0    0  502  503 -0.00000000000E+00 -0.00000000000E+00 -0.11802543186E+04  0.11802543186E+04  0.00000000000E+00 0.  1.
         -6    2    1    2    0  503  0.54026863404E+02  0.13279240544E+03 -0.10826153386E+04  0.11053853791E+04  0.17107933848E+03 0.  0.
        -24    2    3    3    0    0  0.20966368962E+02  0.15645211929E+03 -0.96121154957E+03  0.97726922735E+03  0.78807648266E+02 0.  0.
          6    2    1    2  501    0 -0.54026863404E+02 -0.13279240544E+03  0.59927123924E+02  0.23243504327E+03  0.17286429431E+03 0.  0.
         24    2    5    5    0    0 -0.25338689643E+02 -0.13835645603E+03  0.91082523937E+02  0.18946157561E+03  0.88403078847E+02 0.  0.
          5    1    5    5  501    0 -0.28688173761E+02  0.55640505861E+01 -0.31155400013E+02  0.42973467659E+02  0.47000000000E+01 0. -1.
        -11    1    6    6    0    0 -0.24332580132E+02 -0.92118760759E+02  0.95894135775E+01  0.95759581204E+02  0.00000000000E+00 0.  1.
         12    1    6    6    0    0 -0.10061095105E+01 -0.46237695270E+02  0.81493110359E+02  0.93701994409E+02  0.00000000000E+00 0. -1.
         -5    1    3    3    0  503  0.33060494443E+02 -0.23659713846E+02 -0.12140378907E+03  0.12811615180E+03  0.47000000000E+01 0.  1.
         11    1    4    4    0    0 -0.11388462821E+02  0.64190341653E+02 -0.21461793443E+03  0.22430103617E+03  0.00000000000E+00 0. -1.
        -12    1    4    4    0    0  0.32354831783E+02  0.92261777636E+02 -0.74659361514E+03  0.75296819117E+03  0.00000000000E+00 0.  1.
</event>
<event>
12    1  0.8453150E-002  0.2797468E+03  0.7818608E-02  0.1095947E+00
         21   -1    0    0  501  502  0.00000000000E+00  0.00000000000E+00  0.21687696269E+03  0.21687696269E+03  0.00000000000E+00 0. -1.
         21   -1    0    0  502  503 -0.00000000000E+00 -0.00000000000E+00 -0.36399557201E+03  0.36399557201E+03  0.00000000000E+00 0.  1.
         -6    2    1    2    0  503  0.18356491541E+03 -0.12052750395E+03 -0.42189489027E+02  0.28291024352E+03  0.17330694022E+03 0.  0.
        -24    2    3    3    0    0  0.14718466345E+03 -0.15338262670E+02 -0.19003692560E+02  0.16912109478E+03  0.79638036846E+02 0.  0.
          6    2    1    2  501    0 -0.18356491541E+03  0.12052750395E+03 -0.10492912028E+03  0.29796229118E+03  0.17189662389E+03 0.  0.
         24    2    5    5    0    0 -0.10662191486E+03  0.13743933237E+03 -0.10510587352E+03  0.21904235380E+03  0.81697645610E+02 0.  0.
          5    1    5    5  501    0 -0.76943000549E+02 -0.16911828423E+02  0.17675323878E+00  0.78919937379E+02  0.47000000000E+01 0. -1.
        -11    1    6    6    0    0 -0.60658525916E+02  0.33554212351E+02 -0.73708026937E+02  0.10118406578E+03  0.00000000000E+00 0.  1.
         12    1    6    6    0    0 -0.45963388944E+02  0.10388512002E+03 -0.31397846585E+02  0.11785828802E+03  0.00000000000E+00 0. -1.
         -5    1    3    3    0  503  0.36380251962E+02 -0.10518924128E+03 -0.23185796467E+02  0.11378914874E+03  0.47000000000E+01 0.  1.
         13    1    4    4    0    0  0.49291522016E+02  0.18323234666E+02  0.23010598383E+02  0.57401068886E+02  0.00000000000E+00 0. -1.
        -14    1    4    4    0    0  0.97893141432E+02 -0.33661497336E+02 -0.42014290943E+02  0.11172002589E+03  0.00000000000E+00 0.  1.
</event>
<event>
12    1  0.8453150E-002  0.2263565E+03  0.7818608E-02  0.1129671E+00
         21   -1    0    0  503  502  0.00000000000E+00  0.00000000000E+00  0.49327178563E+02  0.49327178563E+02  0.00000000000E+00 0. -1.
         21   -1    0    0  501  503 -0.00000000000E+00 -0.00000000000E+00 -0.14213160859E+04  0.14213160859E+04  0.00000000000E+00 0. -1.
          6    2    1    2  501    0  0.42096666027E+01  0.14840459275E+03 -0.10756920608E+04  0.10992500587E+04  0.17086730910E+03 0.  0.
         24    2    3    3    0    0 -0.19992105119E+01  0.21129813636E+02 -0.64296319824E+03  0.64812504488E+03  0.78828507778E+02 0.  0.
         -6    2    1    2    0  502 -0.42096666027E+01 -0.14840459275E+03 -0.29629684656E+03  0.37139320585E+03  0.16762889853E+03 0.  0.
        -24    2    5    5    0    0 -0.46866423883E+02 -0.43410260215E+02 -0.95991179441E+02  0.14120228707E+03  0.81503784960E+02 0.  0.
          5    1    3    3  501    0  0.62088771145E+01  0.12727477912E+03 -0.43272886258E+03  0.45112501379E+03  0.47000000000E+01 0. -1.
        -11    1    4    4    0    0  0.22790664498E+02  0.11949180566E+01 -0.53712457128E+03  0.53760919569E+03  0.00000000000E+00 0.  1.
         12    1    4    4    0    0 -0.24789875010E+02  0.19934895579E+02 -0.10583862696E+03  0.11051584919E+03  0.00000000000E+00 0. -1.
         -5    1    5    5    0  502  0.42656757280E+02 -0.10499433254E+03 -0.20030566712E+03  0.23019091878E+03  0.47000000000E+01 0.  1.
         13    1    6    6    0    0 -0.24877600204E+02 -0.58344606563E+02 -0.95466713347E+02  0.11461623560E+03  0.00000000000E+00 0. -1.
        -14    1    6    6    0    0 -0.21988823679E+02  0.14934346348E+02 -0.52446609423E+00  0.26586051461E+02  0.00000000000E+00 0.  1.
</event>
<event>
12    1  0.8453150E-002  0.2028900E+03  0.7818608E-02  0.1147498E+00
         21   -1    0    0  501  502  0.00000000000E+00  0.00000000000E+00  0.21555299560E+04  0.21555299560E+04  0.00000000000E+00 0.  1.
         21   -1    0    0  502  503 -0.00000000000E+00 -0.00000000000E+00 -0.72475153101E+02  0.72475153101E+02  0.00000000000E+00 0.  1.
         -6    2    1    2    0  503 -0.10544350577E+03 -0.49331559842E+01  0.85354632981E+02  0.22011308682E+03  0.17326767927E+03 0.  0.
        -24    2    3    3    0    0 -0.44639567150E+01 -0.45411836956E+02  0.19858893046E+02  0.93041552279E+02  0.78614203375E+02 0.  0.
          6    2    1    2  501    0  0.10544350577E+03  0.49331559842E+01  0.19977001699E+04  0.20078920222E+04  0.17228387999E+03 0.  0.
         24    2    5    5    0    0  0.50245352083E+02 -0.17470681265E+02  0.17601075731E+04  0.17628999813E+04  0.83712931909E+02 0.  0.
          5    1    5    5  501    0  0.55198153690E+02  0.22403837249E+02  0.23759259675E+03  0.24499204094E+03  0.47000000000E+01 0. -1.
        -13    1    6    6    0    0  0.43710044061E+02 -0.36617965221E+02  0.62091637204E+03  0.62352913676E+03  0.00000000000E+00 0.  1.
         14    1    6    6    0    0  0.65353080219E+01  0.19147283956E+02  0.11391912011E+04  0.11393708445E+04  0.00000000000E+00 0. -1.
         -5    1    3    3    0  503 -0.10097954906E+03  0.40478680972E+02  0.65495739935E+02  0.12707153454E+03  0.47000000000E+01 0.  1.
         13    1    4    4    0    0  0.14234948688E+01  0.13940474597E+02  0.29466788555E+02  0.32629048367E+02  0.00000000000E+00 0. -1.
        -14    1    4    4    0    0 -0.58874515838E+01 -0.59352311553E+02 -0.96078955082E+01  0.60412503912E+02  0.00000000000E+00 0.  1.
</event>
<event>
12    1  0.8453150E-002  0.1912486E+03  0.7818608E-02  0.1157879E+00
         21   -1    0    0  501  502  0.00000000000E+00  0.00000000000E+00  0.49347251308E+03  0.49347251308E+03  0.00000000000E+00 0. -1.
         21   -1    0    0  502  503 -0.00000000000E+00 -0.00000000000E+00 -0.81159146609E+02  0.81159146609E+02  0.00000000000E+00 0. -1.
         -6    2    1    2    0  503 -0.64796200213E+02 -0.44283472842E+02  0.11732112857E+03  0.22436641747E+03  0.17440317816E+03 0.  0.
        -24    2    3    3    0    0 -0.31247737961E+02 -0.68561538796E+02  0.11188200044E+02  0.11034355870E+03  0.79833698375E+02 0.  0.
          6    2    1    2  501    0  0.64796200213E+02  0.44283472842E+02  0.29499223790E+03  0.35026524222E+03  0.17177236668E+03 0.  0.
         24    2    5    5    0    0  0.31273763230E+02 -0.16960630253E+02  0.25504191722E+03  0.26968787525E+03  0.80121528130E+02 0.  0.
          5    1    5    5  501    0  0.33522436983E+02  0.61244103095E+02  0.39950320679E+02  0.80577366968E+02  0.47000000000E+01 0. -1.
        -13    1    6    6    0    0  0.51720259321E+00  0.17286649320E+02  0.92301435612E+01  0.19603349035E+02  0.00000000000E+00 0.  1.
         14    1    6    6    0    0  0.30756560636E+02 -0.34247279573E+02  0.24581177366E+03  0.25008452621E+03  0.00000000000E+00 0. -1.
         -5    1    3    3    0  503 -0.33548462252E+02  0.24278065954E+02  0.10613292852E+03  0.11402285877E+03  0.47000000000E+01 0.  1.
         13    1    4    4    0    0 -0.34264183157E+02 -0.10991756900E+01  0.23683970613E+02  0.41667408110E+02  0.00000000000E+00 0. -1.
        -14    1    4    4    0    0  0.30164451959E+01 -0.67462363106E+02 -0.12495770569E+02  0.68676150588E+02  0.00000000000E+00 0.  1.
</event>
<event>
12    1  0.8453150E-002  0.1781358E+03  0.7818608E-02  0.1170011E+00
         21   -1    0    0  503  502  0.00000000000E+00  0.00000000000E+00  0.11171439349E+03  0.11171439349E+03  0.00000000000E+00 0. -1.
         21   -1    0    0  501  503 -0.00000000000E+00 -0.00000000000E+00 -0.29504040251E+03  0.29504040251E+03  0.00000000000E+00 0. -1.
          6    2    1    2  501    0  0.60511185347E+01  0.37439411848E+02 -0.13558843988E+03  0.22386737694E+03  0.17405186536E+03 0.  0.
         24    2    3    3    0    0 -0.46714157175E+02  0.20793004271E+01 -0.13031063248E+03  0.15995761985E+03  0.80118931848E+02 0.  0.
         -6    2    1    2    0  502 -0.60511185347E+01 -0.37439411848E+02 -0.47737569135E+02  0.18288741906E+03  0.17242565629E+03 0.  0.
        -24    2    5    5    0    0  0.11645410786E+02  0.17500925085E+02  0.27832717638E+02  0.87679404608E+02  0.80443271006E+02 0.  0.
          5    1    3    3  501    0  0.52765275710E+02  0.35360111421E+02 -0.52778073973E+01  0.63909757091E+02  0.47000000000E+01 0. -1.
        -11    1    4    4    0    0 -0.56967649483E+02 -0.17156980658E+02 -0.53154823143E+02  0.79781641348E+02  0.00000000000E+00 0.  1.
         12    1    4    4    0    0  0.10253492307E+02  0.19236281085E+02 -0.77155809338E+02  0.80175978504E+02  0.00000000000E+00 0. -1.
         -5    1    5    5    0  502 -0.17696529320E+02 -0.54940336933E+02 -0.75570286773E+02  0.95208014449E+02  0.47000000000E+01 0.  1.
         11    1    6    6    0    0  0.11884272977E+02 -0.24964182018E+02 -0.11360341142E+02  0.29891531892E+02  0.00000000000E+00 0. -1.
        -12    1    6    6    0    0 -0.23886219090E+00  0.42465107104E+02  0.39193058780E+02  0.57787872716E+02  0.00000000000E+00 0.  1.
</event>
<event>
12    1  0.8453150E-002  0.1796384E+03  0.7818608E-02  0.1168889E+00
         21   -1    0    0  503  502  0.00000000000E+00  0.00000000000E+00  0.10425498721E+03  0.10425498721E+03  0.00000000000E+00 0. -1.
         21   -1    0    0  501  503 -0.00000000000E+00 -0.00000000000E+00 -0.34898670646E+03  0.34898670646E+03  0.00000000000E+00 0. -1.
          6    2    1    2  501    0  0.49511296503E+02 -0.14489610959E+02 -0.20428832764E+03  0.27203616390E+03  0.17207160239E+03 0.  0.
         24    2    3    3    0    0 -0.56424581227E+01 -0.46828987911E+02 -0.52279466117E+02  0.10706175396E+03  0.80649148425E+02 0.  0.
         -6    2    1    2    0  502 -0.49511296503E+02  0.14489610959E+02 -0.40443391609E+02  0.18120552977E+03  0.16893329686E+03 0.  0.
        -24    2    5    5    0    0 -0.79786473933E+02  0.51468275198E+02 -0.82325352861E+01  0.12338133724E+03  0.78360161861E+02 0.  0.
          5    1    3    3  501    0  0.55153754626E+02  0.32339376952E+02 -0.15200886153E+03  0.16497440993E+03  0.47000000000E+01 0. -1.
        -13    1    4    4    0    0 -0.14319197510E+02  0.34992421694E+01  0.16026418375E+02  0.21774530971E+02  0.00000000000E+00 0.  1.
         14    1    4    4    0    0  0.86767393877E+01 -0.50328230080E+02 -0.68305884492E+02  0.85287222992E+02  0.00000000000E+00 0. -1.
         -5    1    5    5    0  502  0.30275177430E+02 -0.36978664239E+02 -0.32210856323E+02  0.57824192536E+02  0.47000000000E+01 0.  1.
         13    1    6    6    0    0  0.44383918706E+01  0.12479791647E+02  0.22077569077E+02  0.25746137153E+02  0.00000000000E+00 0. -1.
        -14    1    6    6    0    0 -0.84224865803E+02  0.38988483551E+02 -0.30310104363E+02  0.97635200085E+02  0.00000000000E+00 0.  1.
</event>
<event>
12    1  0.8453150E-002  0.2118424E+03  0.7818608E-02  0.1140490E+00
         21   -1    0    0  501  502  0.00000000000E+00  0.00000000000E+00  0.13387285347E+03  0.13387285347E+03  0.00000000000E+00 0. -1.
         21   -1    0    0  502  503 -0.00000000000E+00 -0.00000000000E+00 -0.34096751875E+03  0.34096751875E+03  0.00000000000E+00 0.  1.
         -6    2    1    2    0  503 -0.85842485755E+02  0.88276682341E+02 -0.14204122415E+03  0.25505469172E+03  0.17238178965E+03 0.  0.
        -24    2    3    3    0    0 -0.93247118814E+02  0.77238628746E+02 -0.38094474257E+02  0.15015624544E+03  0.80217692170E+02 0.  0.
          6    2    1    2  501    0  0.85842485755E+02 -0.88276682341E+02 -0.65053441124E+02  0.21978568050E+03  0.17003555553E+03 0.  0.
         24    2    5    5    0    0  0.10047163680E+03 -0.37935823988E+02 -0.90009246781E+02  0.16153539023E+03  0.80363805593E+02 0.  0.
          5    1    5    5  501    0 -0.14629151043E+02 -0.50340858353E+02  0.24955805657E+02  0.58250290265E+02  0.47000000000E+01 0. -1.
        -13    1    6    6    0    0  0.67904677485E+02 -0.52240722076E+02 -0.28153956478E+02  0.90181946822E+02  0.00000000000E+00 0.  1.
         14    1    6    6    0    0  0.32566959314E+02  0.14304898088E+02 -0.61855290303E+02  0.71353443412E+02  0.00000000000E+00 0. -1.
         -5    1    3    3    0  503  0.74046330583E+01  0.11038053595E+02 -0.10394674990E+03  0.10489844628E+03  0.47000000000E+01 0.  1.
         11    1    4    4    0    0 -0.73390827582E+02  0.87682625257E+01 -0.17641166790E+02  0.75988859490E+02  0.00000000000E+00 0. -1.
        -12    1    4    4    0    0 -0.19856291232E+02  0.68470366221E+02 -0.20453307467E+02  0.74167385947E+02  0.00000000000E+00 0.  1.
</event>
<event>
12    1  0.8453150E-002  0.2843248E+03  0.7818608E-02  0.1093447E+00
         21   -1    0    0  503  502  0.00000000000E+00  0.00000000000E+00  0.12672890751E+03  0.12672890751E+03  0.00000000000E+00 0. -1.
         21   -1    0    0  501  503 -0.00000000000E+00 -0.00000000000E+00 -0.11173125481E+04  0.11173125481E+04  0.00000000000E+00 0. -1.
          6    2    1    2  501    0  0.87737468068E+02  0.20801138283E+03 -0.90378439845E+03  0.94745282162E+03  0.17284100099E+03 0.  0.
         24    2    3    3    0    0  0.54778362012E+01  0.40356859112E+02 -0.40153061001E+03  0.41158376638E+03  0.80719782011E+02 0.  0.
         -6    2    1    2    0  502 -0.87737468068E+02 -0.20801138283E+03 -0.86799242104E+02  0.29658863395E+03  0.17165113070E+03 0.  0.
        -24    2    5    5    0    0 -0.91721120376E+02 -0.22894707461E+03 -0.69303594890E+02  0.26861792879E+03  0.80765565083E+02 0.  0.
          5    1    3    3  501    0  0.82259631867E+02  0.16765452372E+03 -0.50225378845E+03  0.53586905524E+03  0.47000000000E+01 0. -1.
        -11    1    4    4    0    0  0.29619230653E+02  0.46304495695E+02 -0.35088458147E+03  0.35516389830E+03  0.00000000000E+00 0.  1.
         12    1    4    4    0    0 -0.24141394451E+02 -0.59476365833E+01 -0.50646028540E+02  0.56419868078E+02  0.00000000000E+00 0. -1.
         -5    1    5    5    0  502  0.39836523081E+01  0.20935691783E+02 -0.17495647214E+02  0.27970705167E+02  0.47000000000E+01 0.  1.
         13    1    6    6    0    0 -0.52296945078E+02 -0.20840996142E+03 -0.61362957611E+02  0.22346161874E+03  0.00000000000E+00 0. -1.
        -14    1    6    6    0    0 -0.39424175298E+02 -0.20537113190E+02 -0.79406372793E+01  0.45156310041E+02  0.00000000000E+00 0.  1.
</event>
<event>
12    1  0.8453150E-002  0.1989590E+03  0.7818608E-02  0.1150798E+00
         21   -1    0    0  501  502  0.00000000000E+00  0.00000000000E+00  0.17881043317E+03  0.17881043317E+03  0.00000000000E+00 0.  1.
         21   -1    0    0  502  503 -0.00000000000E+00 -0.00000000000E+00 -0.39197384590E+03  0.39197384590E+03  0.00000000000E+00 0.  1.
         -6    2    1    2    0  503  0.49661948370E+02  0.86243160068E+02 -0.29524421655E+03  0.35555893836E+03  0.17131497154E+03 0.  0.
        -24    2    3    3    0    0  0.52792782264E+02 -0.31218939196E+01 -0.21492482235E+03  0.23527090871E+03  0.79767770064E+02 0.  0.
          6    2    1    2  501    0 -0.49661948370E+02 -0.86243160068E+02  0.82080803811E+02  0.21522534071E+03  0.17228028661E+03 0.  0.
         24    2    5    5    0    0 -0.10257282265E+02  0.21048350770E+02  0.15414087518E+02  0.82821650918E+02  0.77933220498E+02 0.  0.
          5    1    5    5  501    0 -0.39404666105E+02 -0.10729151084E+03  0.66666716293E+02  0.13240368979E+03  0.47000000000E+01 0. -1.
        -13    1    6    6    0    0 -0.29364204843E+02 -0.20323488235E+02  0.87328744480E+01  0.36763620554E+02  0.00000000000E+00 0.  1.
         14    1    6    6    0    0  0.19106922577E+02  0.41371839005E+02  0.66812130701E+01  0.46058030365E+02  0.00000000000E+00 0. -1.
         -5    1    3    3    0  503 -0.31308338939E+01  0.89365053988E+02 -0.80319394196E+02  0.12028802966E+03  0.47000000000E+01 0.  1.
         13    1    4    4    0    0 -0.29842169693E+01 -0.30999278161E+02 -0.49473878567E+02  0.58459605351E+02  0.00000000000E+00 0. -1.
        -14    1    4    4    0    0  0.55776999234E+02  0.27877384241E+02 -0.16545094378E+03  0.17681130336E+03  0.00000000000E+00 0.  1.
</event>
<event>
12    1  0.8453150E-002  0.2408164E+03  0.7818608E-02  0.1119399E+00
         21   -1    0    0  501  502  0.00000000000E+00  0.00000000000E+00  0.14766847124E+03  0.14766847124E+03  0.00000000000E+00 0. -1.
         21   -1    0    0  502  503 -0.00000000000E+00 -0.00000000000E+00 -0.43402752665E+03  0.43402752665E+03  0.00000000000E+00 0. -1.
         -6    2    1    2    0  503  0.16275485336E+03 -0.43504066709E+02 -0.23471716042E+03  0.33628063223E+03  0.17207780829E+03 0.  0.
        -24    2    3    3    0    0  0.94010464210E+02  0.42924278775E+02 -0.12470915339E+03  0.18033352083E+03  0.79292778408E+02 0.  0.
          6    2    1    2  501    0 -0.16275485336E+03  0.43504066709E+02 -0.51641894995E+02  0.24541536566E+03  0.17082174999E+03 0.  0.
         24    2    5    5    0    0 -0.59173052569E+02  0.16810713734E+02  0.46591283956E+02  0.10011026597E+03  0.63775131251E+02 0.  0.
          5    1    5    5  501    0 -0.10358180079E+03  0.26693352975E+02 -0.98233178951E+02  0.14530509969E+03  0.47000000000E+01 0. -1.
        -11    1    6    6    0    0 -0.26686939792E+02 -0.11568764968E+02 -0.83471620867E+01  0.30260604641E+02  0.00000000000E+00 0.  1.
         12    1    6    6    0    0 -0.32486112777E+02  0.28379478702E+02  0.54938446043E+02  0.69849661333E+02  0.00000000000E+00 0. -1.
         -5    1    3    3    0  503  0.68744389150E+02 -0.86428345484E+02 -0.11000800703E+03  0.15594711140E+03  0.47000000000E+01 0.  1.
         11    1    4    4    0    0  0.76934048328E+02 -0.54104138670E+01 -0.89492144394E+02  0.11813959657E+03  0.00000000000E+00 0. -1.
        -12    1    4    4    0    0  0.17076415882E+02  0.48334692642E+02 -0.35217008994E+02  0.62193924259E+02  0.00000000000E+00 0.  1.
</event>
<event>
12    1  0.8453150E-002  0.2267459E+03  0.7818608E-02  0.1128969E+00
         21   -1    0    0  503  502  0.00000000000E+00  0.00000000000E+00  0.34688110788E+03  0.34688110788E+03  0.00000000000E+00 0. -1.
         21   -1    0    0  501  503 -0.00000000000E+00 -0.00000000000E+00 -0.28405749440E+03  0.28405749440E+03  0.00000000000E+00 0.  1.
          6    2    1    2  501    0  0.12323323522E+03 -0.82434627179E+02 -0.18679932786E+03  0.29370679231E+03  0.17142868179E+03 0.  0.
         24    2    3    3    0    0  0.77708395209E+02 -0.11445387103E+03 -0.17677556149E+03  0.23695902648E+03  0.75905848324E+02 0.  0.
         -6    2    1    2    0  502 -0.12323323522E+03  0.82434627179E+02  0.24962294135E+03  0.33723180997E+03  0.17155693744E+03 0.  0.
        -24    2    5    5    0    0 -0.12883752095E+03  0.18417411546E+02  0.12752934528E+03  0.19917910946E+03  0.80438025104E+02 0.  0.
          5    1    3    3  501    0  0.45524840009E+02  0.32019243856E+02 -0.10023766375E+02  0.56747765835E+02  0.47000000000E+01 0. -1.
        -13    1    4    4    0    0  0.26861262694E+02 -0.77155288826E+01 -0.78137503508E+02  0.82985096698E+02  0.00000000000E+00 0.  1.
         14    1    4    4    0    0  0.50847132515E+02 -0.10673834215E+03 -0.98638057981E+02  0.15397392978E+03  0.00000000000E+00 0. -1.
         -5    1    5    5    0  502  0.56042857358E+01  0.64017215633E+02  0.12209359607E+03  0.13805270051E+03  0.47000000000E+01 0.  1.
         13    1    6    6    0    0 -0.11160106598E+03  0.45036773829E+02  0.91491006486E+02  0.15117444623E+03  0.00000000000E+00 0. -1.
        -14    1    6    6    0    0 -0.17236454972E+02 -0.26619362283E+02  0.36038338796E+02  0.48004663227E+02  0.00000000000E+00 0.  1.
</event>
<event>
12    1  0.8453150E-002  0.1851804E+03  0.7818608E-02  0.1162970E+00
         21   -1    0    0  501  502  0.00000000000E+00  0.00000000000E+00  0.59039493637E+03  0.59039493637E+03  0.00000000000E+00 0. -1.
         21   -1    0    0  502  503 -0.00000000000E+00 -0.00000000000E+00 -0.60549831123E+02  0.60549831123E+02  0.00000000000E+00 0. -1.
         -6    2    1    2    0  503  0.42778174529E+02  0.51093368063E+02  0.33191998740E+03  0.37989840074E+03  0.17236998687E+03 0.  0.
        -24    2    3    3    0    0  0.11781493942E+02  0.98311203124E+02  0.23213542008E+03  0.26514053378E+03  0.81294238023E+02 0.  0.
          6    2    1    2  501    0 -0.42778174529E+02 -0.51093368063E+02  0.19792511785E+03  0.27104636675E+03  0.17277521865E+03 0.  0.
         24    2    5    5    0    0 -0.18705002714E+02  0.29963520545E+02  0.15024046570E+03  0.17385761821E+03  0.80041140590E+02 0.  0.
          5    1    5    5  501    0 -0.24073171814E+02 -0.81056888608E+02  0.47684652147E+02  0.97188748538E+02  0.47000000000E+01 0. -1.
        -11    1    6    6    0    0  0.23752037388E+01  0.19558862132E+02 -0.20082999602E+01  0.19804644643E+02  0.00000000000E+00 0.  1.
         12    1    6    6    0    0 -0.21080206453E+02  0.10404658414E+02  0.15224876566E+03  0.15405297357E+03  0.00000000000E+00 0. -1.
         -5    1    3    3    0  503  0.30996680587E+02 -0.47217835062E+02  0.99784567321E+02  0.11475786697E+03  0.47000000000E+01 0.  1.
         11    1    4    4    0    0  0.35341983623E+02  0.10916327317E+02  0.79518932897E+02  0.87701098611E+02  0.00000000000E+00 0. -1.
        -12    1    4    4    0    0 -0.23560489681E+02  0.87394875808E+02  0.15261648718E+03  0.17743943517E+03  0.00000000000E+00 0.  1.
</event>
<event>
12    1  0.8453150E-002  0.1918733E+03  0.7818608E-02  0.1157073E+00
         21   -1    0    0  503  502  0.00000000000E+00  0.00000000000E+00  0.23381502264E+03  0.23381502264E+03  0.00000000000E+00 0. -1.
         21   -1    0    0  501  503 -0.00000000000E+00 -0.00000000000E+00 -0.18393108983E+03  0.18393108983E+03  0.00000000000E+00 0. -1.
          6    2    1    2  501    0  0.50569493947E+02 -0.67701608158E+02 -0.55811395145E+02  0.19982561283E+03  0.17226311924E+03 0.  0.
         24    2    3    3    0    0 -0.19495945316E+02 -0.36787680473E+02 -0.78059985185E+02  0.11993865230E+03  0.80984527599E+02 0.  0.
         -6    2    1    2    0  502 -0.50569493947E+02  0.67701608158E+02  0.10569532796E+03  0.21792049964E+03  0.17081293963E+03 0.  0.
        -24    2    5    5    0    0  0.13523858577E+02 -0.15941320152E+02  0.37007923848E+02  0.92046964782E+02  0.81645801233E+02 0.  0.
          5    1    3    3  501    0  0.70065439263E+02 -0.30913927684E+02  0.22248590041E+02  0.79886960530E+02  0.47000000000E+01 0. -1.
        -11    1    4    4    0    0 -0.30780655363E+02  0.15788121268E+02 -0.45204638023E+02  0.56922515901E+02  0.00000000000E+00 0.  1.
         12    1    4    4    0    0  0.11284710047E+02 -0.52575801742E+02 -0.32855347163E+02  0.63016136400E+02  0.00000000000E+00 0. -1.
         -5    1    5    5    0  502 -0.64093352524E+02  0.83642928310E+02  0.68687404110E+02  0.12587353486E+03  0.47000000000E+01 0.  1.
         11    1    6    6    0    0  0.73531974426E+01  0.23648379184E+02  0.44836758886E+02  0.51221580394E+02  0.00000000000E+00 0. -1.
        -12    1    6    6    0    0  0.61706611343E+01 -0.39589699336E+02 -0.78288350379E+01  0.40825384388E+02  0.00000000000E+00 0.  1.
</event>
<event>
12    1  0.8453150E-002  0.1820342E+03  0.7818608E-02  0.1165963E+00
         21   -1    0    0  501  502  0.00000000000E+00  0.00000000000E+00  0.77233374924E+02  0.77233374924E+02  0.00000000000E+00 0. -1.
         21   -1    0    0  502  503 -0.00000000000E+00 -0.00000000000E+00 -0.74987120051E+03  0.74987120051E+03  0.00000000000E+00 0. -1.
         -6    2    1    2    0  503 -0.17161406624E+02  0.58174663233E+02 -0.60704557149E+03  0.63361348832E+03  0.17112253328E+03 0.  0.
        -24    2    3    3    0    0 -0.56235989672E+02  0.88432909311E+02 -0.41774592949E+03  0.43791262231E+03  0.79201876175E+02 0.  0.
          6    2    1    2  501    0  0.17161406624E+02 -0.58174663233E+02 -0.65592254090E+02  0.19349108711E+03  0.17163231535E+03 0.  0.
         24    2    5    5    0    0 -0.15863432485E+02 -0.31054174455E+02  0.27200460242E+02  0.91223111949E+02  0.79785843826E+02 0.  0.
          5    1    5    5  501    0  0.33024839109E+02 -0.27120488778E+02 -0.92792714332E+02  0.10226797516E+03  0.47000000000E+01 0. -1.
        -13    1    6    6    0    0  0.24602205459E+02  0.96592888635E+01  0.20463807500E+02  0.33426603060E+02  0.00000000000E+00 0.  1.
         14    1    6    6    0    0 -0.40465637943E+02 -0.40713463318E+02  0.67366527424E+01  0.57796508889E+02  0.00000000000E+00 0. -1.
         -5    1    3    3    0  503  0.39074583048E+02 -0.30258246078E+02 -0.18929964200E+03  0.19570086601E+03  0.47000000000E+01 0.  1.
         13    1    4    4    0    0 -0.37598386634E+01  0.11792850475E+02 -0.20980285991E+03  0.21016766577E+03  0.00000000000E+00 0. -1.
        -14    1    4    4    0    0 -0.52476151009E+02  0.76640058836E+02 -0.20794306959E+03  0.22774495655E+03  0.00000000000E+00 0.  1.
</event>
<event>
12    1  0.8453150E-002  0.1759539E+03  0.7818608E-02  0.1171951E+00
         21   -1    0    0  503  502  0.00000000000E+00  0.00000000000E+00  0.37081883837E+02  0.37081883837E+02  0.00000000000E+00 0. -1.
         21   -1    0    0  501  503 -0.00000000000E+00 -0.00000000000E+00 -0.83188676536E+03  0.83188676536E+03  0.00000000000E+00 0. -1.
          6    2    1    2  501    0  0.32051776721E+02  0.20954396350E+02 -0.40471025104E+03  0.44102755532E+03  0.17102196974E+03 0.  0.
         24    2    3    3    0    0  0.34789323174E+02 -0.24294355637E+02 -0.37601985134E+03  0.38717430331E+03  0.81929846931E+02 0.  0.
         -6    2    1    2    0  502 -0.32051776721E+02 -0.20954396350E+02 -0.39009463048E+03  0.42794109388E+03  0.17173629780E+03 0.  0.
        -24    2    5    5    0    0 -0.69915021594E+02 -0.12404374227E+02 -0.36772219924E+03  0.38289285451E+03  0.79657664256E+02 0.  0.
          5    1    3    3  501    0 -0.27375464528E+01  0.45248751988E+02 -0.28690399703E+02  0.53853252011E+02  0.47000000000E+01 0. -1.
        -13    1    4    4    0    0  0.39368870968E+02 -0.35001883189E+02 -0.12199607192E+03  0.13288371379E+03  0.00000000000E+00 0.  1.
         14    1    4    4    0    0 -0.45795477940E+01  0.10707527552E+02 -0.25402377942E+03  0.25429058952E+03  0.00000000000E+00 0. -1.
         -5    1    5    5    0  502  0.37863244873E+02 -0.85500221236E+01 -0.22372431238E+02  0.45048239368E+02  0.47000000000E+01 0.  1.
         11    1    6    6    0    0 -0.78069412064E+02 -0.23484552174E+02 -0.22153165089E+03  0.23605641198E+03  0.00000000000E+00 0. -1.
        -12    1    6    6    0    0  0.81543904705E+01  0.11080177947E+02 -0.14619054835E+03  0.14683644253E+03  0.00000000000E+00 0.  1.
</event>
<event>
12    1  0.8453150E-002  0.1802942E+03  0.7818608E-02  0.1168615E+00
         21   -1    0    0  503  502  0.00000000000E+00  0.00000000000E+00  0.12869216778E+04  0.12869216778E+04  0.00000000000E+00 0.  1.
         21   -1    0    0  501  503 -0.00000000000E+00 -0.00000000000E+00 -0.26064887316E+02  0.26064887316E+02  0.00000000000E+00 0. -1.
          6    2    1    2  501    0 -0.43295853573E+02 -0.42639597750E+01  0.48416781936E+03  0.51664734491E+03  0.17496653796E+03 0.  0.
         24    2    3    3    0    0 -0.17154687915E+02  0.67150700228E+02  0.32973284046E+03  0.34443913688E+03  0.71491769283E+02 0.  0.
         -6    2    1    2    0  502  0.43295853573E+02  0.42639597750E+01  0.77668897107E+03  0.79633922016E+03  0.17034577625E+03 0.  0.
        -24    2    5    5    0    0  0.83503673505E+02 -0.11683572806E+02  0.68775829562E+03  0.69733544440E+03  0.78459412770E+02 0.  0.
          5    1    3    3  501    0 -0.26141165658E+02 -0.71414660003E+02  0.15443497890E+03  0.17220820803E+03  0.47000000000E+01 0. -1.
        -11    1    4    4    0    0 -0.39582283033E+02  0.46030005280E+02  0.14563944753E+03  0.15778582698E+03  0.00000000000E+00 0.  1.
         12    1    4    4    0    0  0.22427595118E+02  0.21120694948E+02  0.18409339293E+03  0.18665330990E+03  0.00000000000E+00 0. -1.
         -5    1    5    5    0  502 -0.40207819931E+02  0.15947532581E+02  0.88930675446E+02  0.99003775758E+02  0.47000000000E+01 0.  1.
         11    1    6    6    0    0  0.87524402046E+02 -0.28106943250E+02  0.46896836361E+03  0.47789313375E+03  0.00000000000E+00 0. -1.
        -12    1    6    6    0    0 -0.40207285414E+01  0.16423370444E+02  0.21878993201E+03  0.21944231065E+03  0.00000000000E+00 0.  1.
</event>
<event>
12    1  0.8453150E-002  0.3051545E+03  0.7818608E-02  0.1082776E+00
         21   -1    0    0  501  502  0.00000000000E+00  0.00000000000E+00  0.68320942438E+02  0.68320942438E+02  0.00000000000E+00 0.  1.
         21   -1    0    0  502  503 -0.00000000000E+00 -0.00000000000E+00 -0.16141725375E+04  0.16141725375E+04  0.00000000000E+00 0. -1.
         -6    2    1    2    0  503 -0.23464348636E+03  0.92543927815E+02 -0.11060708638E+04  0.11472118917E+04  0.17052983406E+03 0.  0.
        -24    2    3    3    0    0 -0.99387189031E+02 -0.19964897297E+02 -0.51086143622E+03  0.52652770916E+03  0.77302076511E+02 0.  0.
          6    2    1    2  501    0  0.23464348636E+03 -0.92543927815E+02 -0.43978073122E+03  0.53528158826E+03  0.17174790510E+03 0.  0.
         24    2    5    5    0    0  0.24978273561E+03 -0.82350441994E+02 -0.35627979741E+03  0.44968018658E+03  0.78127881445E+02 0.  0.
          5    1    5    5  501    0 -0.15139249247E+02 -0.10193485822E+02 -0.83500933815E+02  0.85601401676E+02  0.47000000000E+01 0. -1.
        -13    1    6    6    0    0  0.12525052647E+03 -0.40185084298E+02 -0.11417696847E+03  0.17418069787E+03  0.00000000000E+00 0.  1.
         14    1    6    6    0    0  0.12453220914E+03 -0.42165357696E+02 -0.24210282893E+03  0.27549948871E+03  0.00000000000E+00 0. -1.
         -5    1    3    3    0  503 -0.13525629733E+03  0.11250882511E+03 -0.59520942762E+03  0.62068418251E+03  0.47000000000E+01 0.  1.
         11    1    4    4    0    0 -0.50741293372E+01  0.16608788262E+02 -0.17241969044E+03  0.17329208951E+03  0.00000000000E+00 0. -1.
        -12    1    4    4    0    0 -0.94313059694E+02 -0.36573685558E+02 -0.33844174578E+03  0.35323561965E+03  0.00000000000E+00 0.  1.
</event>
<event>
12    1  0.8453150E-002  0.1933283E+03  0.7818608E-02  0.1156304E+00
         21   -1    0    0  503  502  0.00000000000E+00  0.00000000000E+00  0.42577015773E+03  0.42577015773E+03  0.00000000000E+00 0. -1.
         21   -1    0    0  501  503 -0.00000000000E+00 -0.00000000000E+00 -0.18197555747E+03  0.18197555747E+03  0.00000000000E+00 0.  1.
          6    2    1    2  501    0  0.62217624805E+02 -0.49132300794E+02 -0.98072059180E+02  0.21678087654E+03  0.17632584559E+03 0.  0.
         24    2    3    3    0    0  0.47212033962E+02 -0.89165534700E+02 -0.23843150221E+02  0.13099131716E+03  0.80067225683E+02 0.  0.
         -6    2    1    2    0  502 -0.62217624805E+02  0.49132300794E+02  0.34186665944E+03  0.39096483866E+03  0.17232433495E+03 0.  0.
        -24    2    5    5    0    0  0.29893074004E+02  0.20243627745E+02  0.12467557913E+03  0.15324022565E+03  0.81456530666E+02 0.  0.
          5    1    3    3  501    0  0.15005590844E+02  0.40033233905E+02 -0.74228908959E+02  0.85789559381E+02  0.47000000000E+01 0. -1.
        -11    1    4    4    0    0 -0.14267416609E+01 -0.78159553538E+02 -0.75857529513E+01  0.78539767308E+02  0.00000000000E+00 0.  1.
         12    1    4    4    0    0  0.48638775622E+02 -0.11005981162E+02 -0.16257397269E+02  0.52451549847E+02  0.00000000000E+00 0. -1.
         -5    1    5    5    0  502 -0.92110698809E+02  0.28888673050E+02  0.21719108032E+03  0.23772461302E+03  0.47000000000E+01 0.  1.
         11    1    6    6    0    0 -0.18949002272E+02  0.31904969109E+02  0.38294346857E+02  0.53323997807E+02  0.00000000000E+00 0. -1.
        -12    1    6    6    0    0  0.48842076275E+02 -0.11661341364E+02  0.86381232269E+02  0.99916227840E+02  0.00000000000E+00 0.  1.
</event>
<event>
12    1  0.8453150E-002  0.2121244E+03  0.7818608E-02  0.1140287E+00
         21   -1    0    0  503  502  0.00000000000E+00  0.00000000000E+00  0.19765967341E+03  0.19765967341E+03  0.00000000000E+00 0.  1.
         21   -1    0    0  501  503 -0.00000000000E+00 -0.00000000000E+00 -0.22855901701E+03  0.22855901701E+03  0.00000000000E+00 0. -1.
          6    2    1    2  501    0 -0.80225784127E+02 -0.91500147789E+02 -0.39993360940E+02  0.21389943863E+03  0.17130396213E+03 0.  0.
         24    2    3    3    0    0 -0.12948046309E+02 -0.90685581001E+00 -0.56902181092E+02  0.99700328489E+02  0.80832066639E+02 0.  0.
         -6    2    1    2    0  502  0.80225784127E+02  0.91500147789E+02  0.90940173401E+01  0.21231925178E+03  0.17374783464E+03 0.  0.
        -24    2    5    5    0    0  0.96896664731E+02  0.88454395086E+02 -0.43184103269E+02  0.15716232326E+03  0.74979900183E+02 0.  0.
          5    1    3    3  501    0 -0.67277737818E+02 -0.90593291979E+02  0.16908820152E+02  0.11419911014E+03  0.47000000000E+01 0. -1.
        -11    1    4    4    0    0 -0.27260259384E+02  0.80451082931E+00  0.11644832216E+02  0.29654191891E+02  0.00000000000E+00 0.  1.
         12    1    4    4    0    0  0.14312213076E+02 -0.17113666393E+01 -0.68547013308E+02  0.70046136598E+02  0.00000000000E+00 0. -1.
         -5    1    5    5    0  502 -0.16670880604E+02  0.30457527036E+01  0.52278120610E+02  0.55156928523E+02  0.47000000000E+01 0.  1.
         13    1    6    6    0    0  0.28907828234E+02  0.70144965368E+02 -0.42050200674E+02  0.86742135531E+02  0.00000000000E+00 0. -1.
        -14    1    6    6    0    0  0.67988836497E+02  0.18309429717E+02 -0.11339025958E+01  0.70420187730E+02  0.00000000000E+00 0.  1.
</event>
<event>
12    1  0.8453150E-002  0.2172433E+03  0.7818608E-02  0.1136361E+00
         21   -1    0    0  501  502  0.00000000000E+00  0.00000000000E+00  0.49592174515E+03  0.49592174515E+03  0.00000000000E+00 0.  1.
         21   -1    0    0  502  503 -0.00000000000E+00 -0.00000000000E+00 -0.15698152502E+03  0.15698152502E+03  0.00000000000E+00 0.  1.
         -6    2    1    2    0  503  0.13176034449E+03  0.93926164836E+01 -0.37421110741E+02  0.21834312895E+03  0.16977742136E+03 0.  0.
        -24    2    3    3    0    0  0.11445263844E+02 -0.24158996431E+02 -0.83267433035E+01  0.90007624987E+02  0.85541725074E+02 0.  0.
          6    2    1    2  501    0 -0.13176034449E+03 -0.93926164836E+01  0.37636133087E+03  0.43456014122E+03  0.17246928809E+03 0.  0.
         24    2    5    5    0    0 -0.90210884201E+02  0.69825731512E+00  0.10860986011E+03  0.16337547447E+03  0.82200685847E+02 0.  0.
          5    1    5    5  501    0 -0.41549460288E+02 -0.10090873799E+02  0.26775147076E+03  0.27118466675E+03  0.47000000000E+01 0. -1.
        -11    1    6    6    0    0 -0.72421087047E+02 -0.29171370575E+02  0.10121969245E+03  0.12783273778E+03  0.00000000000E+00 0.  1.
         12    1    6    6    0    0 -0.17789797154E+02  0.29869627891E+02  0.73901676640E+01  0.35542736687E+02  0.00000000000E+00 0. -1.
         -5    1    3    3    0  503  0.12031508064E+03  0.33551612915E+02 -0.29094367437E+02  0.12833550396E+03  0.47000000000E+01 0.  1.
         13    1    4    4    0    0  0.12801778599E+02  0.31318812599E+02 -0.66889883487E+01  0.34489072517E+02  0.00000000000E+00 0. -1.
        -14    1    4    4    0    0 -0.13565147553E+01 -0.55477809030E+02 -0.16377549547E+01  0.55518552470E+02  0.00000000000E+00 0.  1.
</event>
<event>
12    1  0.8453150E-002  0.2081483E+03  0.7818608E-02  0.1143550E+00
         21   -1    0    0  503  502  0.00000000000E+00  0.00000000000E+00  0.24127111848E+03  0.24127111848E+03  0.00000000000E+00 0. -1.
         21   -1    0    0  501  503 -0.00000000000E+00 -0.00000000000E+00 -0.18695837623E+03  0.18695837623E+03  0.00000000000E+00 0. -1.
          6    2    1    2  501    0  0.31134276417E+00 -0.11352597278E+03 -0.21095571836E+02  0.20921452500E+03  0.17446332248E+03 0.  0.
         24    2    3    3    0    0 -0.34376591547E+00  0.15170405622E+02 -0.16727678834E+02  0.80356636344E+02  0.77117536161E+02 0.  0.
         -6    2    1    2    0  502 -0.31134276417E+00  0.11352597278E+03  0.75408314077E+02  0.21901496970E+03  0.17144357583E+03 0.  0.
        -24    2    5    5    0    0  0.62457598836E+02  0.95592955677E+02  0.60405065707E+02  0.15186796237E+03  0.79850743293E+02 0.  0.
          5    1    3    3  501    0  0.65510867964E+00 -0.12869637840E+03 -0.43678930021E+01  0.12885788866E+03  0.47000000000E+01 0. -1.
        -13    1    4    4    0    0  0.15948658167E+02 -0.56010491325E+01  0.25477688474E+02  0.30575219683E+02  0.00000000000E+00 0.  1.
         14    1    4    4    0    0 -0.16292424082E+02  0.20771454755E+02 -0.42205367308E+02  0.49781416660E+02  0.00000000000E+00 0. -1.
         -5    1    5    5    0  502 -0.62768941601E+02  0.17933017102E+02  0.15003248370E+02  0.67147007332E+02  0.47000000000E+01 0.  1.
         11    1    6    6    0    0  0.12366271202E+02  0.20923875362E+02 -0.19823354935E+02  0.31363970164E+02  0.00000000000E+00 0. -1.
        -12    1    6    6    0    0  0.50091327634E+02  0.74669080315E+02  0.80228420642E+02  0.12050399221E+03  0.00000000000E+00 0.  1.
</event>
<event>
12    1  0.8453150E-002  0.2510068E+03  0.7818608E-02  0.1112976E+00
         21   -1    0    0  503  502  0.00000000000E+00  0.00000000000E+00  0.12663149139E+03  0.12663149139E+03  0.00000000000E+00 0.  1.
         21   -1    0    0  501  503 -0.00000000000E+00 -0.00000000000E+00 -0.51129334291E+03  0.51129334291E+03  0.00000000000E+00 0. -1.
          6    2    1    2  501    0  0.17730446526E+03  0.25722523421E+02 -0.25075506690E+03  0.35343330588E+03  0.17302738660E+03 0.  0.
         24    2    3    3    0    0  0.23612815241E+02  0.35200801638E+02 -0.57081196260E+02  0.10596084435E+03  0.78567016549E+02 0.  0.
         -6    2    1    2    0  502 -0.17730446526E+03 -0.25722523421E+02 -0.13390678461E+03  0.28449152841E+03  0.17580068589E+03 0.  0.
        -24    2    5    5    0    0 -0.87425810571E+02 -0.31834234769E+02  0.72286998196E+00  0.12243363912E+03  0.79578782291E+02 0.  0.
          5    1    3    3  501    0  0.15369165002E+03 -0.94782782163E+01 -0.19367387065E+03  0.24747246153E+03  0.47000000000E+01 0. -1.
        -11    1    4    4    0    0  0.17663670834E+02 -0.23739699128E+02 -0.24072459554E+02  0.38145273508E+02  0.00000000000E+00 0.  1.
         12    1    4    4    0    0  0.59491444071E+01  0.58940500766E+02 -0.33008736706E+02  0.67815570842E+02  0.00000000000E+00 0. -1.
         -5    1    5    5    0  502 -0.89878654690E+02  0.61117113472E+01 -0.13462965460E+03  0.16205788929E+03  0.47000000000E+01 0.  1.
         13    1    6    6    0    0 -0.61812328783E+02 -0.47669041828E+02 -0.25896416050E+02  0.82241874386E+02  0.00000000000E+00 0. -1.
        -14    1    6    6    0    0 -0.25613481789E+02  0.15834807059E+02  0.26619286032E+02  0.40191764738E+02  0.00000000000E+00 0.  1.
</event>
<event>
12    1  0.8453150E-002  0.2196040E+03  0.7818608E-02  0.1134479E+00
         21   -1    0    0  503  502  0.00000000000E+00  0.00000000000E+00  0.67155134342E+02  0.67155134342E+02  0.00000000000E+00 0.  1.
         21   -1    0    0  501  503 -0.00000000000E+00 -0.00000000000E+00 -0.97307849442E+03  0.97307849442E+03  0.00000000000E+00 0.  1.
          6    2    1    2  501    0 -0.12975072600E+03  0.32254436561E+02 -0.72312344455E+03  0.75573371121E+03  0.17421345131E+03 0.  0.
         24    2    3    3    0    0 -0.26107923820E+02 -0.10893858962E+02 -0.48516583180E+03  0.49258067338E+03  0.80309000688E+02 0.  0.
         -6    2    1    2    0  502  0.12975072600E+03 -0.32254436561E+02 -0.18279991553E+03  0.28449991756E+03  0.17218825279E+03 0.  0.
        -24    2    5    5    0    0  0.15865663803E+03 -0.20801330705E+02 -0.12328001009E+03  0.21718398685E+03  0.79789091394E+02 0.  0.
          5    1    3    3  501    0 -0.10364280218E+03  0.43148295523E+02 -0.23795761275E+03  0.26315303782E+03  0.47000000000E+01 0. -1.
        -13    1    4    4    0    0 -0.54018807775E+02  0.23333211082E+01 -0.29264823546E+03  0.29760118565E+03  0.00000000000E+00 0.  1.
         14    1    4    4    0    0  0.27910883955E+02 -0.13227180070E+02 -0.19251759634E+03  0.19497948773E+03  0.00000000000E+00 0. -1.
         -5    1    5    5    0  502 -0.28905912031E+02 -0.11453105856E+02 -0.59519905438E+02  0.67315930711E+02  0.47000000000E+01 0.  1.
         11    1    6    6    0    0  0.60467923385E+02  0.30583903483E+02 -0.41588006539E+02  0.79506648770E+02  0.00000000000E+00 0. -1.
        -12    1    6    6    0    0  0.98188714645E+02 -0.51385234188E+02 -0.81692003551E+02  0.13767733808E+03  0.00000000000E+00 0.  1.
</event>
<event>
12    1  0.8453150E-002  0.2074266E+03  0.7818608E-02  0.1143859E+00
         21   -1    0    0  501  502  0.00000000000E+00  0.00000000000E+00  0.21982011948E+03  0.21982011948E+03  0.00000000000E+00 0. -1.
         21   -1    0    0  502  503 -0.00000000000E+00 -0.00000000000E+00 -0.19500330619E+03  0.19500330619E+03  0.00000000000E+00 0. -1.
         -6    2    1    2    0  503 -0.42298225482E+02  0.10548115433E+03  0.21667859408E+02  0.20855523845E+03  0.17352342076E+03 0.  0.
        -24    2    3    3    0    0 -0.42989613270E+02  0.87277653929E+01 -0.33405992603E+02  0.97124024398E+02  0.79955206432E+02 0.  0.
          6    2    1    2  501    0  0.42298225482E+02 -0.10548115433E+03  0.31489538833E+01  0.20626818723E+03  0.17210820827E+03 0.  0.
         24    2    5    5    0    0  0.79229694927E+02 -0.12061539305E+03 -0.45827662022E+01  0.16534327902E+03  0.80572827761E+02 0.  0.
          5    1    5    5  501    0 -0.36931469445E+02  0.15134238711E+02  0.77317200855E+01  0.40924908212E+02  0.47000000000E+01 0. -1.
        -11    1    6    6    0    0 -0.14785722414E+02 -0.34410349948E+02  0.29341188982E+01  0.37567257347E+02  0.00000000000E+00 0.  1.
         12    1    6    6    0    0  0.94015417341E+02 -0.86205043098E+02 -0.75168851004E+01  0.12777602167E+03  0.00000000000E+00 0. -1.
         -5    1    3    3    0  503  0.69138778776E+00  0.96753388942E+02  0.55073852011E+02  0.11143121405E+03  0.47000000000E+01 0.  1.
         13    1    4    4    0    0 -0.52982160560E+02  0.16404402424E+02 -0.51091074916E+02  0.75408962946E+02  0.00000000000E+00 0. -1.
        -14    1    4    4    0    0  0.99925472902E+01 -0.76766370315E+01  0.17685082313E+02  0.21715061452E+02  0.00000000000E+00 0.  1.
</event>
<event>
12    1  0.8453150E-002  0.2992044E+03  0.7818608E-02  0.1085812E+00
         21   -1    0    0  503  502  0.00000000000E+00  0.00000000000E+00  0.18344446214E+03  0.18344446214E+03  0.00000000000E+00 0.  1.
         21   -1    0    0  501  503 -0.00000000000E+00 -0.00000000000E+00 -0.48667931991E+03  0.48667931991E+03  0.00000000000E+00 0.  1.
          6    2    1    2  501    0 -0.24483197921E+03  0.10011996568E+02 -0.13684547610E+03  0.32776623280E+03  0.16929583844E+03 0.  0.
         24    2    3    3    0    0 -0.25878392088E+03 -0.96317308909E+01 -0.14074373099E+03  0.30291026578E+03  0.69885215577E+02 0.  0.
         -6    2    1    2    0  502  0.24483197921E+03 -0.10011996568E+02 -0.16638938167E+03  0.34235754926E+03  0.17169836075E+03 0.  0.
        -24    2    5    5    0    0  0.14788678748E+03  0.15631250187E+02 -0.17305062584E+03  0.24174736847E+03  0.79877613685E+02 0.  0.
          5    1    3    3  501    0  0.13951941673E+02  0.19643727459E+02  0.38982548879E+01  0.24855967012E+02  0.47000000000E+01 0. -1.
        -13    1    4    4    0    0 -0.14400153944E+03  0.27386156692E+02 -0.63895256660E+02  0.15990324813E+03  0.00000000000E+00 0.  1.
         14    1    4    4    0    0 -0.11478238145E+03 -0.37017887583E+02 -0.76848474330E+02  0.14300701766E+03  0.00000000000E+00 0. -1.
         -5    1    5    5    0  502  0.96945191731E+02 -0.25643246755E+02  0.66612441692E+01  0.10061018079E+03  0.47000000000E+01 0.  1.
         11    1    6    6    0    0  0.28118446211E+01 -0.90058433684E+01 -0.47154320608E+02  0.48088893073E+02  0.00000000000E+00 0. -1.
        -12    1    6    6    0    0  0.14507494286E+03  0.24637093556E+02 -0.12589630523E+03  0.19365847540E+03  0.00000000000E+00 0.  1.
</event>
<event>
12    1  0.8453150E-002  0.2920595E+03  0.7818608E-02  0.1089718E+00
         21   -1    0    0  503  502  0.00000000000E+00  0.00000000000E+00  0.92671255976E+02  0.92671255976E+02  0.00000000000E+00 0.  1.
         21   -1    0    0  501  503 -0.00000000000E+00 -0.00000000000E+00 -0.12215319820E+04  0.12215319820E+04  0.00000000000E+00 0. -1.
          6    2    1    2  501    0  0.15883447473E+03 -0.16994494664E+03 -0.89391067131E+03  0.93936955810E+03  0.17096550285E+03 0.  0.
         24    2    3    3    0    0  0.80952595786E+02 -0.15082582191E+03 -0.44543142302E+03  0.48375255432E+03  0.79407996282E+02 0.  0.
         -6    2    1    2    0  502 -0.15883447473E+03  0.16994494664E+03 -0.23495005471E+03  0.37483367986E+03  0.17660431507E+03 0.  0.
        -24    2    5    5    0    0 -0.72056784353E+02  0.15093995870E+03 -0.10360156633E+03  0.21619549873E+03  0.89622306495E+02 0.  0.
          5    1    3    3  501    0  0.77881878941E+02 -0.19119124731E+02 -0.44847924829E+03  0.45561700379E+03  0.47000000000E+01 0. -1.
        -13    1    4    4    0    0  0.13740031356E+02 -0.31810486186E+02 -0.28114240528E+02  0.44621810962E+02  0.00000000000E+00 0.  1.
         14    1    4    4    0    0  0.67212564430E+02 -0.11901533572E+03 -0.41731718249E+03  0.43913074335E+03  0.00000000000E+00 0. -1.
         -5    1    5    5    0  502 -0.86777690374E+02  0.19004987939E+02 -0.13134848838E+03  0.15863818113E+03  0.47000000000E+01 0.  1.
         11    1    6    6    0    0 -0.18334139543E+01  0.56503119096E+02 -0.77029467509E+02  0.95548431379E+02  0.00000000000E+00 0. -1.
        -12    1    6    6    0    0 -0.70223370399E+02  0.94436839607E+02 -0.26572098821E+02  0.12064706735E+03  0.00000000000E+00 0.  1.
</event>
<event>
12    1  0.8453150E-002  0.2243775E+03  0.7818608E-02  0.1131177E+00
         21   -1    0    0  501  502  0.00000000000E+00  0.00000000000E+00  0.19329364908E+03  0.19329364908E+03  0.00000000000E+00 0.  1.
         21   -1    0    0  502  503 -0.00000000000E+00 -0.00000000000E+00 -0.29541717083E+03  0.29541717083E+03  0.00000000000E+00 0.  1.
         -6    2    1    2    0  503 -0.11956130998E+03  0.79225239847E+02 -0.13867523039E+03  0.26137564311E+03  0.16886344133E+03 0.  0.
        -24    2    3    3    0    0 -0.60799551904E+02 -0.21650689229E+02 -0.43381755885E+02  0.11060484501E+03  0.78651873085E+02 0.  0.
          6    2    1    2  501    0  0.11956130998E+03 -0.79225239847E+02  0.36551708641E+02  0.22733517680E+03  0.17255060050E+03 0.  0.
         24    2    5    5    0    0  0.75674895227E+02 -0.11847694840E+03  0.44008052749E+02  0.16780030390E+03  0.80353943345E+02 0.  0.
          5    1    5    5  501    0  0.43886414749E+02  0.39251708552E+02 -0.74563441077E+01  0.59534872900E+02  0.47000000000E+01 0. -1.
        -13    1    6    6    0    0  0.85671360413E+02 -0.93084383713E+02  0.14065218361E+02  0.12728752827E+03  0.00000000000E+00 0.  1.
         14    1    6    6    0    0 -0.99964651853E+01 -0.25392564687E+02  0.29942834388E+02  0.40512775624E+02  0.00000000000E+00 0. -1.
         -5    1    3    3    0  503 -0.58761758072E+02  0.10087592908E+03 -0.95293474501E+02  0.15077079811E+03  0.47000000000E+01 0.  1.
         11    1    4    4    0    0 -0.31963269374E+02  0.95443668381E+01  0.16475670983E+02  0.37204747839E+02  0.00000000000E+00 0. -1.
        -12    1    4    4    0    0 -0.28836282530E+02 -0.31195056067E+02 -0.59857426868E+02  0.73400097169E+02  0.00000000000E+00 0.  1.
</event>
<event>
12    1  0.8453150E-002  0.2399680E+03  0.7818608E-02  0.1120028E+00
         21   -1    0    0  503  502  0.00000000000E+00  0.00000000000E+00  0.10946808242E+03  0.10946808242E+03  0.00000000000E+00 0. -1.
         21   -1    0    0  501  503 -0.00000000000E+00 -0.00000000000E+00 -0.13688221758E+04  0.13688221758E+04  0.00000000000E+00 0.  1.
          6    2    1    2  501    0 -0.42830957171E+01  0.16575066512E+03 -0.12099776139E+04  0.12332950090E+04  0.17169486066E+03 0.  0.
         24    2    3    3    0    0 -0.11925278353E+02  0.74334417558E+02 -0.30657542861E+03  0.32523502658E+03  0.78240086856E+02 0.  0.
         -6    2    1    2    0  502  0.42830957171E+01 -0.16575066512E+03 -0.49376479543E+02  0.24499524928E+03  0.17347336262E+03 0.  0.
        -24    2    5    5    0    0  0.23529087561E+02 -0.41732975886E+02 -0.72961357909E+02  0.11720975741E+03  0.78227285815E+02 0.  0.
          5    1    3    3  501    0  0.76421826356E+01  0.91416247564E+02 -0.90340218527E+03  0.90805998239E+03  0.47000000000E+01 0. -1.
        -13    1    4    4    0    0 -0.40312141760E+02  0.47234831415E+02 -0.12634084787E+03  0.14077715693E+03  0.00000000000E+00 0.  1.
         14    1    4    4    0    0  0.28386863408E+02  0.27099586142E+02 -0.18023458073E+03  0.18445786965E+03  0.00000000000E+00 0. -1.
         -5    1    5    5    0  502 -0.19245991843E+02 -0.12401768924E+03  0.23584878366E+02  0.12778549187E+03  0.47000000000E+01 0.  1.
         13    1    6    6    0    0 -0.13520930227E+01 -0.58096989519E+02 -0.31319791718E+02  0.66015283836E+02  0.00000000000E+00 0. -1.
        -14    1    6    6    0    0  0.24881180583E+02  0.16364013633E+02 -0.41641566191E+02  0.51194473571E+02  0.00000000000E+00 0.  1.
</event>
<event>
12    1  0.8453150E-002  0.1960470E+03  0.7818608E-02  0.1154586E+00
         21   -1    0    0  503  502  0.00000000000E+00  0.00000000000E+00  0.64293922922E+03  0.64293922922E+03  0.00000000000E+00 0.  1.
         21   -1    0    0  501  503 -0.00000000000E+00 -0.00000000000E+00 -0.61058382956E+02  0.61058382956E+02  0.00000000000E+00 0.  1.
          6    2    1    2  501    0  0.25118955572E+01  0.92098748221E+02  0.37741114169E+03  0.42529234774E+03  0.17304890099E+03 0.  0.
         24    2    3    3    0    0 -0.48588233201E+01  0.12829349555E+03  0.24517179063E+03  0.28791067794E+03  0.79375829971E+02 0.  0.
         -6    2    1    2    0  502 -0.25118955572E+01 -0.92098748221E+02  0.20446970458E+03  0.27870526444E+03  0.16546986218E+03 0.  0.
        -24    2    5    5    0    0 -0.61995155587E+02 -0.78666890762E+02  0.11717810141E+03  0.17211920999E+03  0.76566546087E+02 0.  0.
          5    1    3    3  501    0  0.73707188773E+01 -0.36194747328E+02  0.13223935106E+03  0.13738166981E+03  0.47000000000E+01 0. -1.
        -13    1    4    4    0    0 -0.40089722783E+02  0.44189574369E+02  0.92095787075E+02  0.10973394348E+03  0.00000000000E+00 0.  1.
         14    1    4    4    0    0  0.35230899462E+02  0.84103921180E+02  0.15307600356E+03  0.17817673445E+03  0.00000000000E+00 0. -1.
         -5    1    5    5    0  502  0.59483260029E+02 -0.13431857459E+02  0.87291603170E+02  0.10658605445E+03  0.47000000000E+01 0.  1.
         11    1    6    6    0    0 -0.39899335932E+02 -0.84176668308E+01  0.79614690043E+02  0.89450058655E+02  0.00000000000E+00 0. -1.
        -12    1    6    6    0    0 -0.22095819655E+02 -0.70249223931E+02  0.37563411366E+02  0.82669151336E+02  0.00000000000E+00 0.  1.
</event>
<event>
12    1  0.8453150E-002  0.2405049E+03  0.7818608E-02  0.1119573E+00
         21   -1    0    0  501  502  0.00000000000E+00  0.00000000000E+00  0.19671863426E+03  0.19671863426E+03  0.00000000000E+00 0. -1.
         21   -1    0    0  502  503 -0.00000000000E+00 -0.00000000000E+00 -0.33736910990E+03  0.33736910990E+03  0.00000000000E+00 0.  1.
         -6    2    1    2    0  503 -0.15206006021E+03 -0.73237965158E+02 -0.16687469372E+03  0.29215733978E+03  0.17036046000E+03 0.  0.
        -24    2    3    3    0    0 -0.17180636711E+03 -0.80008306357E+02 -0.11094428176E+03  0.23227365971E+03  0.75654890633E+02 0.  0.
          6    2    1    2  501    0  0.15206006021E+03  0.73237965158E+02  0.26224218080E+02  0.24193040437E+03  0.17133753091E+03 0.  0.
         24    2    5    5    0    0  0.61013893817E+02  0.10336665481E+03  0.20702566076E+02  0.14575493456E+03  0.80053383065E+02 0.  0.
          5    1    5    5  501    0  0.91046166388E+02 -0.30128689650E+02  0.55216520036E+01  0.96175469819E+02  0.47000000000E+01 0. -1.
        -11    1    6    6    0    0 -0.78061288142E+01  0.64477193841E+02  0.48157868931E+01  0.65126307864E+02  0.00000000000E+00 0.  1.
         12    1    6    6    0    0  0.68820022631E+02  0.38889460967E+02  0.15886779183E+02  0.80628626691E+02  0.00000000000E+00 0. -1.
         -5    1    3    3    0  503  0.19746306901E+02  0.67703411988E+01 -0.55930411963E+02  0.59883680068E+02  0.47000000000E+01 0.  1.
         13    1    4    4    0    0 -0.87455098620E+02 -0.80079529087E+02 -0.52672525305E+02  0.12975176367E+03  0.00000000000E+00 0. -1.
        -14    1    4    4    0    0 -0.84351268486E+02  0.71222729881E-01 -0.58271756453E+02  0.10252189604E+03  0.00000000000E+00 0.  1.
</event>
<event>
12    1  0.8453150E-002  0.1928348E+03  0.7818608E-02  0.1156670E+00
         21   -1    0    0  501  502  0.00000000000E+00  0.00000000000E+00  0.58059733842E+03  0.58059733842E+03  0.00000000000E+00 0. -1.
         21   -1    0    0  502  503 -0.00000000000E+00 -0.00000000000E+00 -0.34725717941E+03  0.34725717941E+03  0.00000000000E+00 0. -1.
         -6    2    1    2    0  503 -0.43121683172E+02 -0.68984798684E+02 -0.30328752483E+03  0.35763130241E+03  0.17116788174E+03 0.  0.
        -24    2    3    3    0    0  0.18152870350E+02 -0.89051449707E+02 -0.12123435769E+03  0.16444049761E+03  0.63900081171E+02 0.  0.
          6    2    1    2  501    0  0.43121683172E+02  0.68984798684E+02  0.53662768384E+03  0.57022321541E+03  0.17483381344E+03 0.  0.
         24    2    5    5    0    0 -0.16081976155E+01  0.15050536709E+02  0.45686362505E+03  0.46394969131E+03  0.79346324552E+02 0.  0.
          5    1    5    5  501    0  0.44729880788E+02  0.53934261975E+02  0.79764058789E+02  0.10627352410E+03  0.47000000000E+01 0. -1.
        -13    1    6    6    0    0  0.26696320825E+02 -0.15942523698E+01  0.59528305115E+02  0.65259898070E+02  0.00000000000E+00 0.  1.
         14    1    6    6    0    0 -0.28304518441E+02  0.16644789079E+02  0.39733531994E+03  0.39868979324E+03  0.00000000000E+00 0. -1.
         -5    1    3    3    0  503 -0.61274553522E+02  0.20066651023E+02 -0.18205316715E+03  0.19319080480E+03  0.47000000000E+01 0.  1.
         11    1    4    4    0    0  0.11646526518E+02  0.22242801764E+01 -0.41196620966E+02  0.42868993238E+02  0.00000000000E+00 0. -1.
        -12    1    4    4    0    0  0.65063438319E+01 -0.91275729884E+02 -0.80037736720E+02  0.12157150437E+03  0.00000000000E+00 0.  1.
</event>
<event>
12    1  0.8453150E-002  0.2955053E+03  0.7818608E-02  0.1087575E+00
         21   -1    0    0  503  502  0.00000000000E+00  0.00000000000E+00  0.27080753528E+03  0.27080753528E+03  0.00000000000E+00 0. -1.
         21   -1    0    0  501  503 -0.00000000000E+00 -0.00000000000E+00 -0.58863195212E+03  0.58863195212E+03  0.00000000000E+00 0.  1.
          6    2    1    2  501    0 -0.23812506477E+03 -0.28389694914E+02 -0.44810926677E+03  0.53648822218E+03  0.17177944091E+03 0.  0.
         24    2    3    3    0    0 -0.25188734345E+03 -0.11852741060E+02 -0.36674956260E+03  0.45220084104E+03  0.79953972400E+02 0.  0.
         -6    2    1    2    0  502  0.23812506477E+03  0.28389694914E+02  0.13028484994E+03  0.32295126523E+03  0.17266689416E+03 0.  0.
        -24    2    5    5    0    0  0.13168828390E+03  0.43756382911E+02  0.81321440284E+01  0.16013757728E+03  0.79507777791E+02 0.  0.
          5    1    3    3  501    0  0.13762278680E+02 -0.16536953854E+02 -0.81359704170E+02  0.84287381143E+02  0.47000000000E+01 0. -1.
        -11    1    4    4    0    0 -0.12291188974E+02  0.17749987718E+02 -0.45381277735E+02  0.50255305782E+02  0.00000000000E+00 0.  1.
         12    1    4    4    0    0 -0.23959615448E+03 -0.29602728779E+02 -0.32136828487E+03  0.40194553525E+03  0.00000000000E+00 0. -1.
         -5    1    5    5    0  502  0.10643678087E+03 -0.15366687997E+02  0.12215270591E+03  0.16281368794E+03  0.47000000000E+01 0.  1.
         11    1    6    6    0    0  0.78188578119E+02 -0.15823397063E+02  0.66306779160E+01  0.80048732236E+02  0.00000000000E+00 0. -1.
        -12    1    6    6    0    0  0.53499705782E+02  0.59579779974E+02  0.15014661125E+01  0.80088845047E+02  0.00000000000E+00 0.  1.
</event>
<event>
12    1  0.8453150E-002  0.2308363E+03  0.7818608E-02  0.1126113E+00
         21   -1    0    0  501  502  0.00000000000E+00  0.00000000000E+00  0.46221038096E+02  0.46221038096E+02  0.00000000000E+00 0.  1.
         21   -1    0    0  502  503 -0.00000000000E+00 -0.00000000000E+00 -0.11970172142E+04  0.11970172142E+04  0.00000000000E+00 0.  1.
         -6    2    1    2    0  503 -0.12688480833E+03  0.86722087478E+02 -0.69669811607E+03  0.73383618682E+03  0.17177546131E+03 0.  0.
        -24    2    3    3    0    0 -0.89832153996E+02 -0.10578742950E+02 -0.45373988454E+03  0.46946685603E+03  0.79608544711E+02 0.  0.
          6    2    1    2  501    0  0.12688480833E+03 -0.86722087478E+02 -0.45409806001E+03  0.50940206545E+03  0.17223513330E+03 0.  0.
         24    2    5    5    0    0  0.39984105221E+02 -0.33492223772E+02 -0.95663275813E+02  0.13673232545E+03  0.82606348185E+02 0.  0.
          5    1    5    5  501    0  0.86900703110E+02 -0.53229863706E+02 -0.35843478420E+03  0.37266974000E+03  0.47000000000E+01 0. -1.
        -13    1    6    6    0    0  0.45845507073E+02 -0.49565767033E+02 -0.98470775635E+02  0.11939459550E+03  0.00000000000E+00 0.  1.
         14    1    6    6    0    0 -0.58614018522E+01  0.16073543261E+02  0.28074998219E+01  0.17337729952E+02  0.00000000000E+00 0. -1.
         -5    1    3    3    0  503 -0.37052654334E+02  0.97300830429E+02 -0.24295823153E+03  0.26436933079E+03  0.47000000000E+01 0.  1.
         13    1    4    4    0    0 -0.84098698027E+02  0.66073486608E+01 -0.22978404916E+03  0.24477940542E+03  0.00000000000E+00 0. -1.
        -14    1    4    4    0    0 -0.57334559688E+01 -0.17186091611E+02 -0.22395583538E+03  0.22468745061E+03  0.00000000000E+00 0.  1.
</event>
<event>
12    1  0.8453150E-002  0.2838766E+03  0.7818608E-02  0.1093642E+00
         21   -1    0    0  501  502  0.00000000000E+00  0.00000000000E+00  0.46130564929E+03  0.46130564929E+03  0.00000000000E+00 0. -1.
         21   -1    0    0  502  503 -0.00000000000E+00 -0.00000000000E+00 -0.27229770413E+03  0.27229770413E+03  0.00000000000E+00 0.  1.
         -6    2    1    2    0  503 -0.20291396428E+03  0.99405248787E+02 -0.12541197098E+03  0.30999291878E+03  0.17120737963E+03 0.  0.
        -24    2    3    3    0    0 -0.33774837078E+02 -0.37733766085E+01 -0.35413036151E+02  0.92333158235E+02  0.78207103191E+02 0.  0.
          6    2    1    2  501    0  0.20291396428E+03 -0.99405248787E+02  0.31441991615E+03  0.42361043464E+03  0.17184422097E+03 0.  0.
         24    2    5    5    0    0  0.52574654977E+02 -0.13709756808E+01  0.16267862431E+03  0.18853568850E+03  0.79469472819E+02 0.  0.
          5    1    5    5  501    0  0.15033930930E+03 -0.98034273106E+02  0.15174129184E+03  0.23507474614E+03  0.47000000000E+01 0. -1.
        -13    1    6    6    0    0  0.14644660752E+02  0.34213990449E+02  0.36811430328E+02  0.52346390838E+02  0.00000000000E+00 0.  1.
         14    1    6    6    0    0  0.37929994225E+02 -0.35584966130E+02  0.12586719398E+03  0.13618929766E+03  0.00000000000E+00 0. -1.
         -5    1    3    3    0  503 -0.16913912720E+03  0.10317862540E+03 -0.89998934833E+02  0.21765976054E+03  0.47000000000E+01 0.  1.
         13    1    4    4    0    0 -0.22764090155E+02 -0.17644244768E+02 -0.57328379177E+02  0.64156575915E+02  0.00000000000E+00 0. -1.
        -14    1    4    4    0    0 -0.11010746923E+02  0.13870868159E+02  0.21915343027E+02  0.28176582320E+02  0.00000000000E+00 0.  1.
</event>
<event>
12    1  0.8453150E-002  0.2326905E+03  0.7818608E-02  0.1124840E+00
         21   -1    0    0  503  502  0.00000000000E+00  0.00000000000E+00  0.63608835071E+03  0.63608835071E+03  0.00000000000E+00 0.  1.
         21   -1    0    0  501  503 -0.00000000000E+00 -0.00000000000E+00 -0.84954559892E+02  0.84954559892E+02  0.00000000000E+00 0.  1.
          6    2    1    2  501    0  0.10768476685E+03  0.11362621222E+03  0.27668696039E+03  0.36122918396E+03  0.17153403213E+03 0.  0.
         24    2    3    3    0    0  0.55762327168E+02  0.78988579044E+02  0.27077194245E+03  0.29835802355E+03  0.79695875975E+02 0.  0.
         -6    2    1    2    0  502 -0.10768476685E+03 -0.11362621222E+03  0.27444683042E+03  0.35981372664E+03  0.17215670197E+03 0.  0.
        -24    2    5    5    0    0 -0.89526515642E+02 -0.14891251126E+03  0.24405943804E+03  0.30961085219E+03  0.78127699872E+02 0.  0.
          5    1    3    3  501    0  0.51922439683E+02  0.34637633172E+02  0.59150179447E+01  0.62871160413E+02  0.47000000000E+01 0. -1.
        -11    1    4    4    0    0  0.61501077758E+02  0.18152751728E+02  0.14362485125E+03  0.15728955101E+03  0.00000000000E+00 0.  1.
         12    1    4    4    0    0 -0.57387505901E+01  0.60835827316E+02  0.12714709120E+03  0.14106847253E+03  0.00000000000E+00 0. -1.
         -5    1    5    5    0  502 -0.18158251209E+02  0.35286299038E+02  0.30387392383E+02  0.50202874446E+02  0.47000000000E+01 0.  1.
         13    1    6    6    0    0  0.10547165768E+02 -0.22583771762E+02  0.59963475861E+02  0.64937569173E+02  0.00000000000E+00 0. -1.
        -14    1    6    6    0    0 -0.10007368141E+03 -0.12632873949E+03  0.18409596218E+03  0.24467328302E+03  0.00000000000E+00 0.  1.
</event>
<event>
12    1  0.8453150E-002  0.3603655E+03  0.7818608E-02  0.1058503E+00
         21   -1    0    0  503  502  0.00000000000E+00  0.00000000000E+00  0.51904678404E+03  0.51904678404E+03  0.00000000000E+00 0. -1.
         21   -1    0    0  501  503 -0.00000000000E+00 -0.00000000000E+00 -0.26022353782E+03  0.26022353782E+03  0.00000000000E+00 0. -1.
          6    2    1    2  501    0  0.26509519401E+03 -0.17259366384E+03  0.20747413083E+03  0.41526479809E+03  0.17127551747E+03 0.  0.
         24    2    3    3    0    0  0.49179349026E+02 -0.31439266848E+02  0.80546376372E+02  0.12772878164E+03  0.80124197606E+02 0.  0.
         -6    2    1    2    0  502 -0.26509519401E+03  0.17259366384E+03  0.51349115392E+02  0.36400552376E+03  0.17262460715E+03 0.  0.
        -24    2    5    5    0    0 -0.36595478970E+02  0.70942808039E+02 -0.62998643454E+01  0.10731405308E+03  0.71445829857E+02 0.  0.
          5    1    3    3  501    0  0.21591584498E+03 -0.14115439699E+03  0.12692775446E+03  0.28753601645E+03  0.47000000000E+01 0. -1.
        -13    1    4    4    0    0  0.43124124416E+02  0.74669960949E+01  0.70228154699E+01  0.44325681883E+02  0.00000000000E+00 0.  1.
         14    1    4    4    0    0  0.60552246101E+01 -0.38906262943E+02  0.73523560902E+02  0.83403099756E+02  0.00000000000E+00 0. -1.
         -5    1    5    5    0  502 -0.22849971504E+03  0.10165085580E+03  0.57648979738E+02  0.25669147069E+03  0.47000000000E+01 0.  1.
         11    1    6    6    0    0  0.71987909370E+01  0.46074190110E+02  0.19714916683E+02  0.50629354382E+02  0.00000000000E+00 0. -1.
        -12    1    6    6    0    0 -0.43794269907E+02  0.24868617929E+02 -0.26014781029E+02  0.56684698697E+02  0.00000000000E+00 0.  1.
</event>
<event>
12    1  0.8453150E-002  0.1731983E+03  0.7818608E-02  0.1175334E+00
         21   -1    0    0  501  502  0.00000000000E+00  0.00000000000E+00  0.28098810713E+03  0.28098810713E+03  0.00000000000E+00 0.  1.
         21   -1    0    0  502  503 -0.00000000000E+00 -0.00000000000E+00 -0.21147006937E+03  0.21147006937E+03  0.00000000000E+00 0.  1.
         -6    2    1    2    0  503 -0.14260075111E+02  0.17848900941E+02 -0.13988869461E+03  0.22263530910E+03  0.17168488859E+03 0.  0.
        -24    2    3    3    0    0  0.21955282001E+02  0.98157845480E+01 -0.15938048056E+03  0.18046775321E+03  0.81167039690E+02 0.  0.
          6    2    1    2  501    0  0.14260075111E+02 -0.17848900941E+02  0.20940673237E+03  0.26982286741E+03  0.16861573832E+03 0.  0.
         24    2    5    5    0    0  0.53067932846E+02  0.34280955720E+02  0.14696945997E+03  0.17957833981E+03  0.81590247838E+02 0.  0.
          5    1    5    5  501    0 -0.38807857736E+02 -0.52129856661E+02  0.62437272395E+02  0.90244527600E+02  0.47000000000E+01 0. -1.
        -13    1    6    6    0    0  0.30936433533E+01  0.40629919341E+02  0.25478867992E+02  0.48057608025E+02  0.00000000000E+00 0.  1.
         14    1    6    6    0    0  0.49974289493E+02 -0.63489636212E+01  0.12149059198E+03  0.13152073178E+03  0.00000000000E+00 0. -1.
         -5    1    3    3    0  503 -0.36215357112E+02  0.80331163928E+01  0.19491785950E+02  0.42167555884E+02  0.47000000000E+01 0.  1.
         13    1    4    4    0    0  0.22210609323E+02 -0.27071891431E+02 -0.12580363317E+03  0.13058618836E+03  0.00000000000E+00 0. -1.
        -14    1    4    4    0    0 -0.25532732189E+00  0.36887675979E+02 -0.33576847386E+02  0.49881564847E+02  0.00000000000E+00 0.  1.
</event>
<event>
12    1  0.8453150E-002  0.1786955E+03  0.7818608E-02  0.1173412E+00
         21   -1    0    0  501  502  0.00000000000E+00  0.00000000000E+00  0.12596265170E+03  0.12596265170E+03  0.00000000000E+00 0.  1.
         21   -1    0    0  502  503 -0.00000000000E+00 -0.00000000000E+00 -0.51578028528E+03  0.51578028528E+03  0.00000000000E+00 0.  1.
         -6    2    1    2    0  503  0.44799157865E+02 -0.16660181843E+02 -0.43786241079E+03  0.47292236550E+03  0.17218462998E+03 0.  0.
        -24    2    3    3    0    0 -0.14867505663E+02  0.35823931058E+02 -0.14773495383E+03  0.17207236280E+03  0.79239413768E+02 0.  0.
          6    2    1    2  501    0 -0.44799157865E+02  0.16660181843E+02  0.48044777204E+02  0.16882057148E+03  0.15462069245E+03 0.  0.
         24    2    5    5    0    0 -0.35974632733E+02  0.68978704921E+02  0.33514094916E+02  0.11360888043E+03  0.75706982646E+02 0.  0.
          5    1    5    5  501    0 -0.88245251321E+01 -0.52318523078E+02  0.14530682288E+02  0.55211691050E+02  0.47000000000E+01 0. -1.
        -11    1    6    6    0    0 -0.14964363872E+02  0.37933512513E+01  0.41858708261E+02  0.44614719063E+02  0.00000000000E+00 0.  1.
         12    1    6    6    0    0 -0.21010268861E+02  0.65185353669E+02 -0.83446133452E+01  0.68994161365E+02  0.00000000000E+00 0. -1.
         -5    1    3    3    0  503  0.59666663528E+02 -0.52484112901E+02 -0.29012745696E+03  0.30085000270E+03  0.47000000000E+01 0.  1.
         13    1    4    4    0    0 -0.15987188950E+02  0.77262500696E+01  0.36249580794E+01  0.18122512843E+02  0.00000000000E+00 0. -1.
        -14    1    4    4    0    0  0.11196832869E+01  0.28097680989E+02 -0.15135991191E+03  0.15394984996E+03  0.00000000000E+00 0.  1.
</event>
<event>
12    1  0.8453150E-002  0.1834636E+03  0.7818608E-02  0.1164782E+00
         21   -1    0    0  501  502  0.00000000000E+00  0.00000000000E+00  0.44712118920E+03  0.44712118920E+03  0.00000000000E+00 0. -1.
         21   -1    0    0  502  503 -0.00000000000E+00 -0.00000000000E+00 -0.87394620266E+02  0.87394620266E+02  0.00000000000E+00 0. -1.
         -6    2    1    2    0  503  0.64058651524E+02 -0.12376463536E+02  0.78835541420E+02  0.19968460096E+03  0.17147072516E+03 0.  0.
        -24    2    3    3    0    0 -0.12925396068E+02  0.31804611473E+02  0.77969049397E+01  0.85899325791E+02  0.78353706168E+02 0.  0.
          6    2    1    2  501    0 -0.64058651524E+02  0.12376463536E+02  0.28089102751E+03  0.33483120850E+03  0.17016310166E+03 0.  0.
         24    2    5    5    0    0 -0.72894848208E+02  0.56286868847E+02  0.13888568395E+03  0.18585533909E+03  0.82286714375E+02 0.  0.
          5    1    5    5  501    0  0.88361966850E+01 -0.43910405310E+02  0.14200534357E+03  0.14897586942E+03  0.47000000000E+01 0. -1.
        -11    1    6    6    0    0 -0.30712748255E+02  0.91934435484E+01 -0.12863461376E+01  0.32084996432E+02  0.00000000000E+00 0.  1.
         12    1    6    6    0    0 -0.42182099954E+02  0.47093425298E+02  0.14017203009E+03  0.15377034266E+03  0.00000000000E+00 0. -1.
         -5    1    3    3    0  503  0.76984047592E+02 -0.44181075009E+02  0.71038636480E+02  0.11378527517E+03  0.47000000000E+01 0.  1.
         11    1    4    4    0    0 -0.20174330562E+02 -0.12468723281E+02 -0.21750758524E+02  0.32180245031E+02  0.00000000000E+00 0. -1.
        -12    1    4    4    0    0  0.72489344934E+01  0.44273334754E+02  0.29547663464E+02  0.53719080760E+02  0.00000000000E+00 0.  1.
</event>
<event>
12    1  0.8453150E-002  0.2011664E+03  0.7818608E-02  0.1150037E+00
         21   -1    0    0  503  502  0.00000000000E+00  0.00000000000E+00  0.41185868834E+02  0.41185868834E+02  0.00000000000E+00 0.  1.
         21   -1    0    0  501  503 -0.00000000000E+00 -0.00000000000E+00 -0.11158029291E+04  0.11158029291E+04  0.00000000000E+00 0. -1.
          6    2    1    2  501    0  0.87789292430E+02  0.54533540525E+02 -0.76492879716E+03  0.79093867599E+03  0.17258927414E+03 0.  0.
         24    2    3    3    0    0  0.10033402202E+03 -0.92853381558E+01 -0.39686771179E+03  0.41714558874E+03  0.79707766636E+02 0.  0.
         -6    2    1    2    0  502 -0.87789292430E+02 -0.54533540525E+02 -0.30968826311E+03  0.36605012195E+03  0.16554456971E+03 0.  0.
        -24    2    5    5    0    0 -0.67982801641E+02 -0.74920732372E+02 -0.31147945261E+03  0.33718434587E+03  0.80243730248E+02 0.  0.
          5    1    3    3  501    0 -0.12544729587E+02  0.63818878681E+02 -0.36806108536E+03  0.37379308725E+03  0.47000000000E+01 0. -1.
        -11    1    4    4    0    0  0.94868264656E+02 -0.29313560693E+02 -0.37056158857E+03  0.38363415307E+03  0.00000000000E+00 0.  1.
         12    1    4    4    0    0  0.54657573615E+01  0.20028222538E+02 -0.26306123227E+02  0.33511435672E+02  0.00000000000E+00 0. -1.
         -5    1    5    5    0  502 -0.19806490790E+02  0.20387191847E+02  0.17911894966E+01  0.28865776079E+02  0.47000000000E+01 0.  1.
         11    1    6    6    0    0 -0.32250642280E+02  0.43020348663E+01 -0.15317780516E+03  0.15659518328E+03  0.00000000000E+00 0. -1.
        -12    1    6    6    0    0 -0.35732159361E+02 -0.79222767238E+02 -0.15830164745E+03  0.18058916259E+03  0.00000000000E+00 0.  1.
</event>
<event>
12    1  0.8453150E-002  0.3170865E+03  0.7818608E-02  0.1077054E+00
         21   -1    0    0  501  502  0.00000000000E+00  0.00000000000E+00  0.12114852297E+03  0.12114852297E+03  0.00000000000E+00 0.  1.
         21   -1    0    0  502  503 -0.00000000000E+00 -0.00000000000E+00 -0.82896683684E+03  0.82896683684E+03  0.00000000000E+00 0.  1.
         -6    2    1    2    0  503 -0.26415626647E+03  0.45740136390E+02 -0.36262097770E+03  0.48138829808E+03  0.16843404306E+03 0.  0.
        -24    2    3    3    0    0 -0.22083206934E+03 -0.81950797333E+01 -0.32671490867E+03  0.40330290003E+03  0.84122740332E+02 0.  0.
          6    2    1    2  501    0  0.26415626647E+03 -0.45740136390E+02 -0.34519733616E+03  0.46872706174E+03  0.16933152191E+03 0.  0.
         24    2    5    5    0    0  0.27662921698E+03 -0.48501740036E+02 -0.28900203319E+03  0.41090662395E+03  0.80286586347E+02 0.  0.
          5    1    5    5  501    0 -0.12472950505E+02  0.27616036466E+01 -0.56195302974E+02  0.57820437782E+02  0.47000000000E+01 0. -1.
        -13    1    6    6    0    0  0.21107590011E+03 -0.59497472835E+02 -0.25471882471E+03  0.33611703994E+03  0.00000000000E+00 0.  1.
         14    1    6    6    0    0  0.65553316868E+02  0.10995732799E+02 -0.34283208484E+02  0.74789584008E+02  0.00000000000E+00 0. -1.
         -5    1    3    3    0  503 -0.43324197132E+02  0.53935216123E+02 -0.35906069028E+02  0.78085398049E+02  0.47000000000E+01 0.  1.
         13    1    4    4    0    0 -0.19689313661E+02 -0.23404349405E+01 -0.92110905565E+02  0.94220834385E+02  0.00000000000E+00 0. -1.
        -14    1    4    4    0    0 -0.20114275568E+03 -0.58546447927E+01 -0.23460400311E+03  0.30908206564E+03  0.00000000000E+00 0.  1.
</event>
<event>
12    1  0.8453150E-002  0.1885496E+03  0.7818608E-02  0.1159988E+00
         21   -1    0    0  503  502  0.00000000000E+00  0.00000000000E+00  0.52694773595E+02  0.52694773595E+02  0.00000000000E+00 0. -1.
         21   -1    0    0  501  503 -0.00000000000E+00 -0.00000000000E+00 -0.74932881256E+03  0.74932881256E+03  0.00000000000E+00 0. -1.
          6    2    1    2  501    0 -0.13251409331E+01 -0.72001916108E+02 -0.47691700958E+03  0.51249544811E+03  0.17325044987E+03 0.  0.
         24    2    3    3    0    0  0.59244939002E+02 -0.57862307472E+01 -0.24130146519E+03  0.26032481871E+03  0.77454314734E+02 0.  0.
         -6    2    1    2    0  502  0.13251409331E+01  0.72001916108E+02 -0.21971702938E+03  0.28952813804E+03  0.17425538097E+03 0.  0.
        -24    2    5    5    0    0 -0.32365877986E+02  0.10880230625E+03 -0.16392816636E+03  0.21453586706E+03  0.79168823555E+02 0.  0.
          5    1    3    3  501    0 -0.60570079935E+02 -0.66215685361E+02 -0.23561554439E+03  0.25217062940E+03  0.47000000000E+01 0. -1.
        -11    1    4    4    0    0  0.81737667943E+01  0.14661931336E+02 -0.16717091597E+03  0.16801160031E+03  0.00000000000E+00 0.  1.
         12    1    4    4    0    0  0.51071172208E+02 -0.20448162083E+02 -0.74130549223E+02  0.92313218400E+02  0.00000000000E+00 0. -1.
         -5    1    5    5    0  502  0.33691018919E+02 -0.36800390146E+02 -0.55788863017E+02  0.74992270985E+02  0.47000000000E+01 0.  1.
         11    1    6    6    0    0 -0.19738329905E+02  0.98990979071E+02 -0.79173575083E+02  0.12828589399E+03  0.00000000000E+00 0. -1.
        -12    1    6    6    0    0 -0.12627548081E+02  0.98113271830E+01 -0.84754591276E+02  0.86249973067E+02  0.00000000000E+00 0.  1.
</event>
<event>
12    1  0.8453150E-002  0.2264272E+03  0.7818608E-02  0.1129560E+00
         21   -1    0    0  501  502  0.00000000000E+00  0.00000000000E+00  0.30666662555E+02  0.30666662555E+02  0.00000000000E+00 0.  1.
         21   -1    0    0  502  503 -0.00000000000E+00 -0.00000000000E+00 -0.17317882974E+04  0.17317882974E+04  0.00000000000E+00 0.  1.
         -6    2    1    2    0  503 -0.14374946099E+03  0.16292656777E+02 -0.66277503484E+03  0.69970713366E+03  0.17143502523E+03 0.  0.
        -24    2    3    3    0    0 -0.84313221987E+02 -0.57047688229E+02 -0.38829222873E+03  0.40940664526E+03  0.80497131345E+02 0.  0.
          6    2    1    2  501    0  0.14374946099E+03 -0.16292656777E+02 -0.10383466000E+04  0.10627478263E+04  0.17418358810E+03 0.  0.
         24    2    5    5    0    0  0.11442753662E+03 -0.69881469426E+02 -0.86149852671E+03  0.87558782224E+03  0.80605471481E+02 0.  0.
          5    1    5    5  501    0  0.29321924376E+02  0.53588812650E+02 -0.17684807329E+03  0.18716000405E+03  0.47000000000E+01 0. -1.
        -11    1    6    6    0    0 -0.94024281472E+01 -0.21483848862E+01 -0.14494758422E+03  0.14526810862E+03  0.00000000000E+00 0.  1.
         12    1    6    6    0    0  0.12382996477E+03 -0.67733084540E+02 -0.71655094249E+03  0.73031971362E+03  0.00000000000E+00 0. -1.
         -5    1    3    3    0  503 -0.59436239008E+02  0.73340345005E+02 -0.27448280612E+03  0.29030048840E+03  0.47000000000E+01 0.  1.
         13    1    4    4    0    0 -0.13731702640E+02 -0.27101211643E+02 -0.24513396456E+03  0.24700950571E+03  0.00000000000E+00 0. -1.
        -14    1    4    4    0    0 -0.70581519347E+02 -0.29946476586E+02 -0.14315826417E+03  0.16239713955E+03  0.00000000000E+00 0.  1.
</event>
<event>
12    1  0.8453150E-002  0.1943325E+03  0.7818608E-02  0.1154914E+00
         21   -1    0    0  503  502  0.00000000000E+00  0.00000000000E+00  0.15811863039E+03  0.15811863039E+03  0.00000000000E+00 0.  1.
         21   -1    0    0  501  503 -0.00000000000E+00 -0.00000000000E+00 -0.59826371210E+03  0.59826371210E+03  0.00000000000E+00 0.  1.
          6    2    1    2  501    0 -0.33488883367E+02  0.86870534043E+02 -0.51358635677E+03  0.54863551331E+03  0.16900291598E+03 0.  0.
         24    2    3    3    0    0  0.37226796601E+02  0.59212811045E+02 -0.20486875664E+03  0.23068220909E+03  0.79693680842E+02 0.  0.
         -6    2    1    2    0  502  0.33488883367E+02 -0.86870534043E+02  0.73441275063E+02  0.20774682918E+03  0.17057880629E+03 0.  0.
        -24    2    5    5    0    0  0.18607623169E+02 -0.12620430036E+03  0.64592093686E+02  0.16451495334E+03  0.81358848533E+02 0.  0.
          5    1    3    3  501    0 -0.70715679968E+02  0.27657722999E+02 -0.30871760014E+03  0.31795330423E+03  0.47000000000E+01 0. -1.
        -11    1    4    4    0    0 -0.33756321339E+01  0.64145982267E+02 -0.13939427078E+03  0.15348245717E+03  0.00000000000E+00 0.  1.
         12    1    4    4    0    0  0.40602428735E+02 -0.49331712222E+01 -0.65474485858E+02  0.77199751916E+02  0.00000000000E+00 0. -1.
         -5    1    5    5    0  502  0.14881260198E+02  0.39333766317E+02  0.88491813763E+01  0.43231875842E+02  0.47000000000E+01 0.  1.
         11    1    6    6    0    0 -0.14736383543E+02 -0.34435177964E+02 -0.13159455065E+02  0.39700298978E+02  0.00000000000E+00 0. -1.
        -12    1    6    6    0    0  0.33344006712E+02 -0.91769122397E+02  0.77751548752E+02  0.12481465436E+03  0.00000000000E+00 0.  1.
</event>
<event>
12    1  0.8453150E-002  0.2362732E+03  0.7818608E-02  0.1122325E+00
         21   -1    0    0  501  502  0.00000000000E+00  0.00000000000E+00  0.20201228444E+03  0.20201228444E+03  0.00000000000E+00 0. -1.
         21   -1    0    0  502  503 -0.00000000000E+00 -0.00000000000E+00 -0.41137879617E+03  0.41137879617E+03  0.00000000000E+00 0.  1.
         -6    2    1    2    0  503 -0.13650308093E+03 -0.88034552610E+02  0.71120742684E+02  0.24674522783E+03  0.17158634520E+03 0.  0.
        -24    2    3    3    0    0 -0.63776377823E+01 -0.65431093407E+02  0.20749892278E+02  0.10531376071E+03  0.79614872456E+02 0.  0.
          6    2    1    2  501    0  0.13650308093E+03  0.88034552610E+02 -0.28048725442E+03  0.36664585278E+03  0.17138526165E+03 0.  0.
         24    2    5    5    0    0  0.39453252233E+02  0.99969459208E+02 -0.19673502091E+03  0.23781403271E+03  0.79375020087E+02 0.  0.
          5    1    5    5  501    0  0.97049828696E+02 -0.11934906598E+02 -0.83752233512E+02  0.12883182007E+03  0.47000000000E+01 0. -1.
        -11    1    6    6    0    0 -0.12152687471E+02  0.57808713397E+02 -0.52918742433E+02  0.79309069204E+02  0.00000000000E+00 0.  1.
         12    1    6    6    0    0  0.51605939704E+02  0.42160745811E+02 -0.14381627848E+03  0.15850496350E+03  0.00000000000E+00 0. -1.
         -5    1    3    3    0  503 -0.13012544315E+03 -0.22603459203E+02  0.50370850406E+02  0.14143146712E+03  0.47000000000E+01 0.  1.
         13    1    4    4    0    0  0.22660883157E+02 -0.47376029001E+02  0.40053272417E+02  0.66047470661E+02  0.00000000000E+00 0. -1.
        -14    1    4    4    0    0 -0.29038520940E+02 -0.18055064406E+02 -0.19303380139E+02  0.39266290044E+02  0.00000000000E+00 0.  1.
</event>
<event>
12    1  0.8453150E-002  0.2742799E+03  0.7818608E-02  0.1098935E+00
         21   -1    0    0  501  502  0.00000000000E+00  0.00000000000E+00  0.19390109506E+03  0.19390109506E+03  0.00000000000E+00 0. -1.
         21   -1    0    0  502  503 -0.00000000000E+00 -0.00000000000E+00 -0.47575699431E+03  0.47575699431E+03  0.00000000000E+00 0.  1.
         -6    2    1    2    0  503  0.59782686556E+02 -0.20439399530E+03 -0.28553262792E+03  0.39592722626E+03  0.17285430849E+03 0.  0.
        -24    2    3    3    0    0  0.99500476736E+02 -0.15365017936E+03 -0.16781043660E+03  0.26164006365E+03  0.82379959868E+02 0.  0.
          6    2    1    2  501    0 -0.59782686556E+02  0.20439399530E+03  0.36767286673E+01  0.27373086311E+03  0.17194240942E+03 0.  0.
         24    2    5    5    0    0 -0.22348673638E+02  0.17078237262E+03  0.58832330729E+02  0.19892927930E+03  0.80284076937E+02 0.  0.
          5    1    5    5  501    0 -0.37434012918E+02  0.33611622673E+02 -0.55155602062E+02  0.74801583811E+02  0.47000000000E+01 0. -1.
        -11    1    6    6    0    0  0.15868928969E+02  0.63786297863E+02 -0.93987585171E+01  0.66399181948E+02  0.00000000000E+00 0.  1.
         12    1    6    6    0    0 -0.38217602607E+02  0.10699607476E+03  0.68231089246E+02  0.13253009735E+03  0.00000000000E+00 0. -1.
         -5    1    3    3    0  503 -0.39717790180E+02 -0.50743815936E+02 -0.11772219132E+03  0.13428716261E+03  0.47000000000E+01 0.  1.
         13    1    4    4    0    0  0.11235409667E+03 -0.14274626213E+03 -0.16311095942E+03  0.24414160537E+03  0.00000000000E+00 0. -1.
        -14    1    4    4    0    0 -0.12853619935E+02 -0.10903917231E+02 -0.46994771787E+01  0.17498458280E+02  0.00000000000E+00 0.  1.
</event>
<event>
12    1  0.8453150E-002  0.2268995E+03  0.7818608E-02  0.1128897E+00
         21   -1    0    0  503  502  0.00000000000E+00  0.00000000000E+00  0.25859363969E+03  0.25859363969E+03  0.00000000000E+00 0. -1.
         21   -1    0    0  501  503 -0.00000000000E+00 -0.00000000000E+00 -0.20319020132E+03  0.20319020132E+03  0.00000000000E+00 0.  1.
          6    2    1    2  501    0  0.52082458984E+02  0.13862308040E+03 -0.61544305237E+01  0.22698299769E+03  0.17191411597E+03 0.  0.
         24    2    3    3    0    0 -0.32380440618E+02  0.98495856399E+02 -0.19941483777E+02  0.13234501191E+03  0.79797322882E+02 0.  0.
         -6    2    1    2    0  502 -0.52082458984E+02 -0.13862308040E+03  0.61557868891E+02  0.23480084331E+03  0.17150254763E+03 0.  0.
        -24    2    5    5    0    0  0.22032895477E+01 -0.14848140898E+03  0.28798490461E+02  0.17046270524E+03  0.78591332391E+02 0.  0.
          5    1    3    3  501    0  0.84462899602E+02  0.40127224006E+02  0.13787053253E+02  0.94637985782E+02  0.47000000000E+01 0. -1.
        -11    1    4    4    0    0 -0.10096759391E+02  0.19363469894E+00 -0.29419130034E+02  0.31104135682E+02  0.00000000000E+00 0.  1.
         12    1    4    4    0    0 -0.22283681227E+02  0.98302221700E+02  0.94776462572E+01  0.10124087622E+03  0.00000000000E+00 0. -1.
         -5    1    5    5    0  502 -0.54285748532E+02  0.98583285762E+01  0.32759378429E+02  0.64338138076E+02  0.47000000000E+01 0.  1.
         11    1    6    6    0    0  0.33111882192E+02 -0.92702895059E+02  0.38998166899E+02  0.10588239002E+03  0.00000000000E+00 0. -1.
        -12    1    6    6    0    0 -0.30908592644E+02 -0.55778513922E+02 -0.10199676437E+02  0.64580315221E+02  0.00000000000E+00 0.  1.
</event>
<event>
12    1  0.8453150E-002  0.2301745E+03  0.7818608E-02  0.1126587E+00
         21   -1    0    0  503  502  0.00000000000E+00  0.00000000000E+00  0.32021595566E+03  0.32021595566E+03  0.00000000000E+00 0.  1.
         21   -1    0    0  501  503 -0.00000000000E+00 -0.00000000000E+00 -0.22213973632E+03  0.22213973632E+03  0.00000000000E+00 0.  1.
          6    2    1    2  501    0 -0.16881682813E+02 -0.15149741950E+03 -0.88329145177E+02  0.24616778393E+03  0.17193045288E+03 0.  0.
         24    2    3    3    0    0 -0.29088688556E+02 -0.34318289073E+02 -0.89133820258E+02  0.12825808501E+03  0.80507153040E+02 0.  0.
         -6    2    1    2    0  502  0.16881682813E+02  0.15149741950E+03  0.18640536452E+03  0.29618790805E+03  0.17246407632E+03 0.  0.
        -24    2    5    5    0    0  0.13691104707E+02  0.17731756970E+03  0.18674781416E+03  0.26974802876E+03  0.79121969479E+02 0.  0.
          5    1    3    3  501    0  0.12207005743E+02 -0.11717913043E+03  0.80467508050E+00  0.11790969892E+03  0.47000000000E+01 0. -1.
        -13    1    4    4    0    0  0.25978217078E+02  0.22518933244E+01 -0.27027489050E+02  0.37555611438E+02  0.00000000000E+00 0.  1.
         14    1    4    4    0    0 -0.55066905634E+02 -0.36570182397E+02 -0.62106331207E+02  0.90702473575E+02  0.00000000000E+00 0. -1.
         -5    1    5    5    0  502  0.31905781062E+01 -0.25820150197E+02 -0.34244964112E+00  0.26439879285E+02  0.47000000000E+01 0.  1.
         11    1    6    6    0    0  0.17042239226E+02  0.10937903728E+03  0.60030194059E+02  0.12592789966E+03  0.00000000000E+00 0. -1.
        -12    1    6    6    0    0 -0.33511345191E+01  0.67938532418E+02  0.12671762010E+03  0.14382012910E+03  0.00000000000E+00 0.  1.
</event>
<event>
12    1  0.8453150E-002  0.2103259E+03  0.7818608E-02  0.1141411E+00
         21   -1    0    0  501  502  0.00000000000E+00  0.00000000000E+00  0.22328054931E+03  0.22328054931E+03  0.00000000000E+00 0. -1.
         21   -1    0    0  502  503 -0.00000000000E+00 -0.00000000000E+00 -0.47790823445E+03  0.47790823445E+03  0.00000000000E+00 0. -1.
         -6    2    1    2    0  503 -0.37873952065E+02 -0.11514787425E+03 -0.39573696205E+03  0.44791261063E+03  0.17124396175E+03 0.  0.
        -24    2    3    3    0    0 -0.59563716172E+02 -0.75852319093E+02 -0.13888375850E+03  0.18712487185E+03  0.80159894546E+02 0.  0.
          6    2    1    2  501    0  0.37873952065E+02  0.11514787425E+03  0.14110927692E+03  0.25327617313E+03  0.17188229302E+03 0.  0.
         24    2    5    5    0    0  0.27291734182E+02  0.74984568884E+02  0.63680100826E+01  0.11220040121E+03  0.78618408498E+02 0.  0.
          5    1    5    5  501    0  0.10582217883E+02  0.40163305362E+02  0.13474126683E+03  0.14107577191E+03  0.47000000000E+01 0. -1.
        -11    1    6    6    0    0 -0.26455248224E+02  0.16811596453E+02 -0.63578707243E+01  0.31983315244E+02  0.00000000000E+00 0.  1.
         12    1    6    6    0    0  0.53746982405E+02  0.58172972431E+02  0.12725880807E+02  0.80217085969E+02  0.00000000000E+00 0. -1.
         -5    1    3    3    0  503  0.21689764107E+02 -0.39295555153E+02 -0.25685320355E+03  0.26078773878E+03  0.47000000000E+01 0.  1.
         11    1    4    4    0    0  0.17918236624E+02 -0.93012331342E+01 -0.40775064769E+02  0.45499253273E+02  0.00000000000E+00 0. -1.
        -12    1    4    4    0    0 -0.77481952796E+02 -0.66551085959E+02 -0.98108693730E+02  0.14162561857E+03  0.00000000000E+00 0.  1.
</event>
<event>
12    1  0.8453150E-002  0.1886941E+03  0.7818608E-02  0.1159771E+00
         21   -1    0    0  503  502  0.00000000000E+00  0.00000000000E+00  0.14400304130E+03  0.14400304130E+03  0.00000000000E+00 0.  1.
         21   -1    0    0  501  503 -0.00000000000E+00 -0.00000000000E+00 -0.45847163613E+03  0.45847163613E+03  0.00000000000E+00 0.  1.
          6    2    1    2  501    0  0.48146310186E+02 -0.60512559395E+02 -0.36192513431E+03  0.40790442947E+03  0.17151205118E+03 0.  0.
         24    2    3    3    0    0  0.10090896899E+02 -0.98351853671E+02 -0.19852654503E+03  0.23585439125E+03  0.80247065161E+02 0.  0.
         -6    2    1    2    0  502 -0.48146310186E+02  0.60512559395E+02  0.47456539487E+02  0.19457024796E+03  0.17212094940E+03 0.  0.
        -24    2    5    5    0    0 -0.11929839295E+01  0.61196080237E+02 -0.29786563756E+02  0.10405136017E+03  0.78696014679E+02 0.  0.
          5    1    3    3  501    0  0.38055413287E+02  0.37839294277E+02 -0.16339858928E+03  0.17205003822E+03  0.47000000000E+01 0. -1.
        -13    1    4    4    0    0 -0.17423335796E+02 -0.42141829342E+02 -0.14966001597E+03  0.15645327351E+03  0.00000000000E+00 0.  1.
         14    1    4    4    0    0  0.27514232696E+02 -0.56210024329E+02 -0.48866529063E+02  0.79401117741E+02  0.00000000000E+00 0. -1.
         -5    1    5    5    0  502 -0.46953326257E+02 -0.68352084267E+00  0.77243103243E+02  0.90518887786E+02  0.47000000000E+01 0.  1.
         13    1    6    6    0    0  0.35419157793E+02  0.44778740204E+02 -0.28726232872E+02  0.63912821624E+02  0.00000000000E+00 0. -1.
        -14    1    6    6    0    0 -0.36612141722E+02  0.16417340034E+02 -0.10603308842E+01  0.40138538549E+02  0.00000000000E+00 0.  1.
</event>
<event>
12    1  0.8453150E-002  0.2096411E+03  0.7818608E-02  0.1142644E+00
         21   -1    0    0  503  502  0.00000000000E+00  0.00000000000E+00  0.26135499528E+03  0.26135499528E+03  0.00000000000E+00 0.  1.
         21   -1    0    0  501  503 -0.00000000000E+00 -0.00000000000E+00 -0.18847115079E+03  0.18847115079E+03  0.00000000000E+00 0.  1.
          6    2    1    2  501    0 -0.10938070605E+03  0.36919814733E+02 -0.43228128898E+02  0.21017769679E+03  0.17023155266E+03 0.  0.
         24    2    3    3    0    0 -0.11930893368E+03 -0.19759960132E+02 -0.14001710422E+02  0.14546726394E+03  0.79621600732E+02 0.  0.
         -6    2    1    2    0  502  0.10938070605E+03 -0.36919814733E+02  0.11611197338E+03  0.23964844928E+03  0.17499193497E+03 0.  0.
        -24    2    5    5    0    0  0.10495888711E+03 -0.58134036398E+01  0.14540973732E+03  0.19643259264E+03  0.79947533415E+02 0.  0.
          5    1    3    3  501    0  0.99282276260E+01  0.56679774865E+02 -0.29226418476E+02  0.64710432849E+02  0.47000000000E+01 0. -1.
        -11    1    4    4    0    0 -0.32551923767E+01 -0.29010176289E+01 -0.27116046650E+02  0.27464379961E+02  0.00000000000E+00 0.  1.
         12    1    4    4    0    0 -0.11605374130E+03 -0.16858942503E+02  0.13114336229E+02  0.11800288398E+03  0.00000000000E+00 0. -1.
         -5    1    5    5    0  502  0.44218189361E+01 -0.31106411093E+02 -0.29297763935E+02  0.43215856643E+02  0.47000000000E+01 0.  1.
         13    1    6    6    0    0  0.67594902956E+02  0.20345905997E+02  0.38972564630E+02  0.80634282971E+02  0.00000000000E+00 0. -1.
        -14    1    6    6    0    0  0.37363984159E+02 -0.26159309637E+02  0.10643717269E+03  0.11579830967E+03  0.00000000000E+00 0.  1.
</event>
<event>
12    1  0.8453150E-002  0.2453769E+03  0.7818608E-02  0.1116369E+00
         21   -1    0    0  503  502  0.00000000000E+00  0.00000000000E+00  0.17339477935E+04  0.17339477935E+04  0.00000000000E+00 0.  1.
         21   -1    0    0  501  503 -0.00000000000E+00 -0.00000000000E+00 -0.10658177819E+03  0.10658177819E+03  0.00000000000E+00 0.  1.
          6    2    1    2  501    0 -0.11511245470E+03 -0.13143230072E+03  0.57207551682E+02  0.25131359993E+03  0.17134904331E+03 0.  0.
         24    2    3    3    0    0 -0.12232754025E+03 -0.12612622856E+03  0.85031915453E+01  0.20157009224E+03  0.98419231772E+02 0.  0.
         -6    2    1    2    0  502  0.11511245470E+03  0.13143230072E+03  0.15701584636E+04  0.15892159718E+04  0.17229183699E+03 0.  0.
        -24    2    5    5    0    0  0.12139798924E+03  0.36615522718E+02  0.96722760278E+03  0.97882475107E+03  0.80563573825E+02 0.  0.
          5    1    3    3  501    0  0.72150855541E+01 -0.53060721566E+01  0.48704360137E+02  0.49743507693E+02  0.47000000000E+01 0. -1.
        -11    1    4    4    0    0 -0.79376076974E+02 -0.11000548698E+03  0.45025884346E+02  0.14293039923E+03  0.00000000000E+00 0.  1.
         12    1    4    4    0    0 -0.42951463278E+02 -0.16120741578E+02 -0.36522692801E+02  0.58639693009E+02  0.00000000000E+00 0. -1.
         -5    1    5    5    0  502 -0.62855345407E+01  0.94816778000E+02  0.60293086086E+03  0.61039122070E+03  0.47000000000E+01 0.  1.
         13    1    6    6    0    0  0.26394696971E+02  0.39665500205E+02  0.19345199392E+03  0.19923279320E+03  0.00000000000E+00 0. -1.
        -14    1    6    6    0    0  0.95003292268E+02 -0.30499774880E+01  0.77377560887E+03  0.77959195787E+03  0.00000000000E+00 0.  1.
</event>
<event>
12    1  0.8453150E-002  0.1752358E+03  0.7818608E-02  0.1173182E+00
         21   -1    0    0  501  502  0.00000000000E+00  0.00000000000E+00  0.55902782504E+02  0.55902782504E+02  0.00000000000E+00 0.  1.
         21   -1    0    0  502  503 -0.00000000000E+00 -0.00000000000E+00 -0.14042697765E+04  0.14042697765E+04  0.00000000000E+00 0.  1.
         -6    2    1    2    0  503  0.23269537456E+02  0.22853264290E+02 -0.12486958883E+04  0.12609317998E+04  0.17217386321E+03 0.  0.
        -24    2    3    3    0    0  0.21924864471E+02 -0.48890241708E+02 -0.54223016664E+03  0.55081572146E+03  0.80705947625E+02 0.  0.
          6    2    1    2  501    0 -0.23269537456E+02 -0.22853264290E+02 -0.99671105658E+02  0.19924075919E+03  0.16940722463E+03 0.  0.
         24    2    5    5    0    0 -0.30000484044E+02  0.43386792692E+02 -0.90955086759E+02  0.13192724066E+03  0.79683914300E+02 0.  0.
          5    1    5    5  501    0  0.67309465884E+01 -0.66240056981E+02 -0.87160188988E+01  0.67313518526E+02  0.47000000000E+01 0. -1.
        -11    1    6    6    0    0 -0.86092163988E+01 -0.10547154951E+02  0.90226699604E+01  0.16333084760E+02  0.00000000000E+00 0.  1.
         12    1    6    6    0    0 -0.21391267645E+02  0.53933947643E+02 -0.99977756719E+02  0.11559415590E+03  0.00000000000E+00 0. -1.
         -5    1    3    3    0  503  0.13446729846E+01  0.71743505998E+02 -0.70646572167E+03  0.71011607832E+03  0.47000000000E+01 0.  1.
         11    1    4    4    0    0  0.13544118745E+02  0.15147745429E+02 -0.44584052114E+02  0.48996275849E+02  0.00000000000E+00 0. -1.
        -12    1    4    4    0    0  0.83807457263E+01 -0.64037987137E+02 -0.49764611452E+03  0.50181944561E+03  0.00000000000E+00 0.  1.
</event>
<event>
12    1  0.8453150E-002  0.1826991E+03  0.7818608E-02  0.1165235E+00
         21   -1    0    0  503  502  0.00000000000E+00  0.00000000000E+00  0.51756883926E+02  0.51756883926E+02  0.00000000000E+00 0.  1.
         21   -1    0    0  501  503 -0.00000000000E+00 -0.00000000000E+00 -0.70706281645E+03  0.70706281645E+03  0.00000000000E+00 0.  1.
          6    2    1    2  501    0  0.54499004492E+02  0.31242343218E+02 -0.44032024381E+03  0.47668884313E+03  0.17147626820E+03 0.  0.
         24    2    3    3    0    0  0.33074759251E+02  0.75369216759E+02 -0.19421130089E+03  0.22569505628E+03  0.80285555992E+02 0.  0.
         -6    2    1    2    0  502 -0.54499004492E+02 -0.31242343218E+02 -0.21498568871E+03  0.28213085724E+03  0.17155975273E+03 0.  0.
        -24    2    5    5    0    0  0.80457627144E+01 -0.70946279242E+02 -0.11736695468E+03  0.15949416749E+03  0.81026406655E+02 0.  0.
          5    1    3    3  501    0  0.21424245242E+02 -0.44126873541E+02 -0.24610894292E+03  0.25099378686E+03  0.47000000000E+01 0. -1.
        -13    1    4    4    0    0  0.47987651679E+02  0.27974509595E+02 -0.14704793084E+03  0.15718931855E+03  0.00000000000E+00 0.  1.
         14    1    4    4    0    0 -0.14912892428E+02  0.47394707164E+02 -0.47163370048E+02  0.68505737731E+02  0.00000000000E+00 0. -1.
         -5    1    5    5    0  502 -0.62544767207E+02  0.39703936024E+02 -0.97618734026E+02  0.12263668975E+03  0.47000000000E+01 0.  1.
         11    1    6    6    0    0  0.22220356542E+02  0.76617626459E+01 -0.96852811223E+01  0.25421477576E+02  0.00000000000E+00 0. -1.
        -12    1    6    6    0    0 -0.14174593828E+02 -0.78608041888E+02 -0.10768167356E+03  0.13407268991E+03  0.00000000000E+00 0.  1.
</event>
<event>
12    1  0.8453150E-002  0.1994183E+03  0.7818608E-02  0.1150329E+00
         21   -1    0    0  503  502  0.00000000000E+00  0.00000000000E+00  0.77994926157E+02  0.77994926157E+02  0.00000000000E+00 0.  1.
         21   -1    0    0  501  503 -0.00000000000E+00 -0.00000000000E+00 -0.88927554666E+03  0.88927554666E+03  0.00000000000E+00 0.  1.
          6    2    1    2  501    0  0.40086028036E+02 -0.92811289354E+02 -0.72176189057E+03  0.74868124080E+03  0.17135503659E+03 0.  0.
         24    2    3    3    0    0 -0.28598035517E+02 -0.63253734165E+02 -0.25729145318E+03  0.27820698341E+03  0.79883360075E+02 0.  0.
         -6    2    1    2    0  502 -0.40086028036E+02  0.92811289354E+02 -0.89518729938E+02  0.21858923202E+03  0.17189189705E+03 0.  0.
        -24    2    5    5    0    0  0.25808279835E+02  0.10021985053E+03 -0.83205961799E+02  0.15181432933E+03  0.73581742042E+02 0.  0.
          5    1    3    3  501    0  0.68684063553E+02 -0.29557555189E+02 -0.46447043739E+03  0.47047425739E+03  0.47000000000E+01 0. -1.
        -11    1    4    4    0    0 -0.24183553145E+02  0.98694314735E+00 -0.15813728418E+03  0.15997880781E+03  0.00000000000E+00 0.  1.
         12    1    4    4    0    0 -0.44144823726E+01 -0.64240677312E+02 -0.99154169000E+02  0.11822817560E+03  0.00000000000E+00 0. -1.
         -5    1    5    5    0  502 -0.65894307871E+02 -0.74085611779E+01 -0.63127681387E+01  0.66774902696E+02  0.47000000000E+01 0.  1.
         13    1    6    6    0    0 -0.14709089929E+02 -0.31746470799E+01 -0.45163172524E+01  0.15710914427E+02  0.00000000000E+00 0. -1.
        -14    1    6    6    0    0  0.40517369764E+02  0.10339449761E+03 -0.78689644547E+02  0.13610341490E+03  0.00000000000E+00 0.  1.
</event>
<event>
12    1  0.8453150E-002  0.2376551E+03  0.7818608E-02  0.1121422E+00
         21   -1    0    0  501  502  0.00000000000E+00  0.00000000000E+00  0.78690600686E+02  0.78690600686E+02  0.00000000000E+00 0. -1.
         21   -1    0    0  502  503 -0.00000000000E+00 -0.00000000000E+00 -0.71777730269E+03  0.71777730269E+03  0.00000000000E+00 0.  1.
         -6    2    1    2    0  503  0.15707361323E+03 -0.41718501121E+02 -0.30409638769E+03  0.38573874764E+03  0.17293702644E+03 0.  0.
        -24    2    3    3    0    0  0.96837501873E+02 -0.57615436391E+02 -0.97553796487E+02  0.16995405484E+03  0.81673724476E+02 0.  0.
          6    2    1    2  501    0 -0.15707361323E+03  0.41718501121E+02 -0.33499031432E+03  0.41072915574E+03  0.17339946765E+03 0.  0.
         24    2    5    5    0    0 -0.91959595272E+01 -0.35402143394E+01 -0.89872357528E+02  0.12086530058E+03  0.80213972890E+02 0.  0.
          5    1    5    5  501    0 -0.14787765370E+03  0.45258715461E+02 -0.24511795679E+03  0.28986385517E+03  0.47000000000E+01 0. -1.
        -11    1    6    6    0    0 -0.31822243485E+02 -0.11642767466E+02 -0.90694553759E+02  0.96817928589E+02  0.00000000000E+00 0.  1.
         12    1    6    6    0    0  0.22626283958E+02  0.81025531263E+01  0.82219623106E+00  0.24047371989E+02  0.00000000000E+00 0. -1.
         -5    1    3    3    0  503  0.60236111359E+02  0.15896935270E+02 -0.20654259120E+03  0.21578469279E+03  0.47000000000E+01 0.  1.
         11    1    4    4    0    0  0.77649467862E+02 -0.40403532827E+02 -0.11061380806E+03  0.14105778907E+03  0.00000000000E+00 0. -1.
        -12    1    4    4    0    0  0.19188034011E+02 -0.17211903564E+02  0.13060011571E+02  0.28896265775E+02  0.00000000000E+00 0.  1.
</event>
<event>
12    1  0.8453150E-002  0.2157308E+03  0.7818608E-02  0.1137421E+00
         21   -1    0    0  501  502  0.00000000000E+00  0.00000000000E+00  0.32665943131E+03  0.32665943131E+03  0.00000000000E+00 0.  1.
         21   -1    0    0  502  503 -0.00000000000E+00 -0.00000000000E+00 -0.14687652112E+03  0.14687652112E+03  0.00000000000E+00 0.  1.
         -6    2    1    2    0  503  0.93066955939E+02  0.88130194595E+02  0.13596741667E+03  0.25500376519E+03  0.17352634491E+03 0.  0.
        -24    2    3    3    0    0  0.74976532149E+02 -0.14184921662E+02  0.51351999023E+02  0.12092354536E+03  0.78503398920E+02 0.  0.
          6    2    1    2  501    0 -0.93066955939E+02 -0.88130194595E+02  0.43815493519E+02  0.21853218724E+03  0.17148798763E+03 0.  0.
         24    2    5    5    0    0 -0.36693916611E+01 -0.38739391481E+02 -0.28354923034E+02  0.93384135094E+02  0.80014936978E+02 0.  0.
          5    1    5    5  501    0 -0.89397564277E+02 -0.49390803114E+02  0.72170416553E+02  0.12514805215E+03  0.47000000000E+01 0. -1.
        -11    1    6    6    0    0 -0.19382914683E+02 -0.11451752177E+02 -0.50228957090E+02  0.55043511333E+02  0.00000000000E+00 0.  1.
         12    1    6    6    0    0  0.15713523022E+02 -0.27287639303E+02  0.21874034056E+02  0.38340623761E+02  0.00000000000E+00 0. -1.
         -5    1    3    3    0  503  0.18090423790E+02  0.10231511626E+03  0.84615417644E+02  0.13408021983E+03  0.47000000000E+01 0.  1.
         13    1    4    4    0    0  0.15030845900E+02 -0.30807635607E+02 -0.77197817777E+01  0.35137327315E+02  0.00000000000E+00 0. -1.
        -14    1    4    4    0    0  0.59945686248E+02  0.16622713944E+02  0.59071780801E+02  0.85786218040E+02  0.00000000000E+00 0.  1.
</event>
<event>
12    1  0.8453150E-002  0.1762584E+03  0.7818608E-02  0.1171802E+00
         21   -1    0    0  501  502  0.00000000000E+00  0.00000000000E+00  0.12800740167E+03  0.12800740167E+03  0.00000000000E+00 0.  1.
         21   -1    0    0  502  503 -0.00000000000E+00 -0.00000000000E+00 -0.53712613460E+03  0.53712613460E+03  0.00000000000E+00 0.  1.
         -6    2    1    2    0  503  0.15311138070E+02 -0.34348679381E+02 -0.45119405618E+03  0.48392275627E+03  0.17085343127E+03 0.  0.
        -24    2    3    3    0    0  0.65576441181E+02 -0.96085696378E+01 -0.18224441609E+03  0.20915981730E+03  0.78372238245E+02 0.  0.
          6    2    1    2  501    0 -0.15311138070E+02  0.34348679381E+02  0.42075323252E+02  0.18121078000E+03  0.17219974226E+03 0.  0.
         24    2    5    5    0    0  0.19612070210E+02  0.77208323108E+02  0.59527450175E+00  0.11193405965E+03  0.78632823324E+02 0.  0.
          5    1    5    5  501    0 -0.34923208280E+02 -0.42859643726E+02  0.41480048750E+02  0.69276720341E+02  0.47000000000E+01 0. -1.
        -13    1    6    6    0    0 -0.91363021023E+01  0.74929937525E+02  0.18850784726E+02  0.77803082448E+02  0.00000000000E+00 0.  1.
         14    1    6    6    0    0  0.28748372312E+02  0.22783855824E+01 -0.18255510225E+02  0.34130977206E+02  0.00000000000E+00 0. -1.
         -5    1    3    3    0  503 -0.50265303110E+02 -0.24740109743E+02 -0.26894964009E+03  0.27476293897E+03  0.47000000000E+01 0.  1.
         13    1    4    4    0    0  0.72181645443E+01  0.23923754253E+02 -0.15655591236E+02  0.29488056123E+02  0.00000000000E+00 0. -1.
        -14    1    4    4    0    0  0.58358276637E+02 -0.33532323891E+02 -0.16658882485E+03  0.17967176117E+03  0.00000000000E+00 0.  1.
</event>
<event>
12    1  0.8453150E-002  0.2042600E+03  0.7818608E-02  0.1146375E+00
         21   -1    0    0  503  502  0.00000000000E+00  0.00000000000E+00  0.22669481613E+02  0.22669481613E+02  0.00000000000E+00 0. -1.
         21   -1    0    0  501  503 -0.00000000000E+00 -0.00000000000E+00 -0.18682170345E+04  0.18682170345E+04  0.00000000000E+00 0.  1.
          6    2    1    2  501    0 -0.64786610643E+02 -0.89050523415E+02 -0.10515169655E+04  0.10710043675E+04  0.17098282365E+03 0.  0.
         24    2    3    3    0    0 -0.95319947212E+01 -0.81272298155E+02 -0.93100323857E+03  0.93811636304E+03  0.81235675697E+02 0.  0.
         -6    2    1    2    0  502  0.64786610643E+02  0.89050523415E+02 -0.79403058739E+03  0.81988214855E+03  0.17203157603E+03 0.  0.
        -24    2    5    5    0    0  0.10451734326E+03  0.34432956108E+02 -0.49110838841E+03  0.50948633928E+03  0.79242521657E+02 0.  0.
          5    1    3    3  501    0 -0.55254615921E+02 -0.77782252595E+01 -0.12051372690E+03  0.13288800450E+03  0.47000000000E+01 0. -1.
        -11    1    4    4    0    0 -0.14724145059E+02  0.12669670035E+02 -0.10595204583E+03  0.10771795116E+03  0.00000000000E+00 0.  1.
         12    1    4    4    0    0  0.51921503373E+01 -0.93941968190E+02 -0.82505119274E+03  0.83039841188E+03  0.00000000000E+00 0. -1.
         -5    1    5    5    0  502 -0.39730732619E+02  0.54617567307E+02 -0.30292219899E+03  0.31039580927E+03  0.47000000000E+01 0.  1.
         13    1    6    6    0    0  0.13222282138E+02  0.38249960272E+02 -0.10071817470E+03  0.10854510086E+03  0.00000000000E+00 0. -1.
        -14    1    6    6    0    0  0.91295061123E+02 -0.38170041642E+01 -0.39039021370E+03  0.40094123842E+03  0.00000000000E+00 0.  1.
</event>
<event>
12    1  0.8453150E-002  0.1859957E+03  0.7818608E-02  0.1162193E+00
         21   -1    0    0  503  502  0.00000000000E+00  0.00000000000E+00  0.20050710343E+03  0.20050710343E+03  0.00000000000E+00 0. -1.
         21   -1    0    0  501  503 -0.00000000000E+00 -0.00000000000E+00 -0.18034935681E+03  0.18034935681E+03  0.00000000000E+00 0. -1.
          6    2    1    2  501    0  0.70207130480E+02  0.89706701079E+01  0.50409797114E+02  0.19241658948E+03  0.17167842662E+03 0.  0.
         24    2    3    3    0    0 -0.44170497506E+01 -0.16555109060E+02 -0.18821852182E+02  0.87366863434E+02  0.83577058707E+02 0.  0.
         -6    2    1    2    0  502 -0.70207130480E+02 -0.89706701079E+01 -0.30252050495E+02  0.18843987076E+03  0.17200257045E+03 0.  0.
        -24    2    5    5    0    0 -0.94549049632E+02 -0.19889806115E+02  0.28430224398E+02  0.12380662896E+03  0.72004698050E+02 0.  0.
          5    1    3    3  501    0  0.74624180231E+02  0.25525779168E+02  0.69231649296E+02  0.10504972604E+03  0.47000000000E+01 0. -1.
        -13    1    4    4    0    0 -0.38817408274E+02  0.99798505279E+01 -0.15229566247E+00  0.40080067311E+02  0.00000000000E+00 0.  1.
         14    1    4    4    0    0  0.34400358524E+02 -0.26534959588E+02 -0.18669556519E+02  0.47286796123E+02  0.00000000000E+00 0. -1.
         -5    1    5    5    0  502  0.24341919151E+02  0.10919136007E+02 -0.58682274893E+02  0.64633241801E+02  0.47000000000E+01 0.  1.
         11    1    6    6    0    0 -0.54520462194E+02 -0.47106774587E+02  0.18583421412E+02  0.74410164367E+02  0.00000000000E+00 0. -1.
        -12    1    6    6    0    0 -0.40028587437E+02  0.27216968472E+02  0.98468029862E+01  0.49396464591E+02  0.00000000000E+00 0.  1.
</event>
<event>
12    1  0.8453150E-002  0.2051250E+03  0.7818608E-02  0.1145571E+00
         21   -1    0    0  503  502  0.00000000000E+00  0.00000000000E+00  0.52741101664E+03  0.52741101664E+03  0.00000000000E+00 0. -1.
         21   -1    0    0  501  503 -0.00000000000E+00 -0.00000000000E+00 -0.79829927600E+02  0.79829927600E+02  0.00000000000E+00 0. -1.
          6    2    1    2  501    0  0.97184811152E+02  0.53554337457E+02  0.23968020553E+03  0.31547245510E+03  0.17252047537E+03 0.  0.
         24    2    3    3    0    0 -0.11742266328E+02  0.27724720003E+01  0.69836310924E+02  0.10735483306E+03  0.80637351382E+02 0.  0.
         -6    2    1    2    0  502 -0.97184811152E+02 -0.53554337457E+02  0.20790088350E+03  0.29176848914E+03  0.17202650759E+03 0.  0.
        -24    2    5    5    0    0 -0.13351431298E+03 -0.41335518109E+02  0.13968084826E+03  0.21337719206E+03  0.80525709508E+02 0.  0.
          5    1    3    3  501    0  0.10892707748E+03  0.50781865457E+02  0.16984389461E+03  0.20811762204E+03  0.47000000000E+01 0. -1.
        -13    1    4    4    0    0  0.13265413218E+01 -0.27995894091E+02  0.68372434111E+02  0.73893975019E+02  0.00000000000E+00 0.  1.
         14    1    4    4    0    0 -0.13068807650E+02  0.30768366092E+02  0.14638768130E+01  0.33460858038E+02  0.00000000000E+00 0. -1.
         -5    1    5    5    0  502  0.36329501829E+02 -0.12218819348E+02  0.68220035242E+02  0.78391297080E+02  0.47000000000E+01 0.  1.
         11    1    6    6    0    0 -0.11256880086E+03 -0.46756129317E+02  0.14660643132E+03  0.19066021153E+03  0.00000000000E+00 0. -1.
        -12    1    6    6    0    0 -0.20945512123E+02  0.54206112077E+01 -0.69255830545E+01  0.22716980534E+02  0.00000000000E+00 0.  1.
</event>
<event>
12    1  0.8453150E-002  0.1956537E+03  0.7818608E-02  0.1153782E+00
         21   -1    0    0  503  502  0.00000000000E+00  0.00000000000E+00  0.19303251070E+04  0.19303251070E+04  0.00000000000E+00 0. -1.
         21   -1    0    0  501  503 -0.00000000000E+00 -0.00000000000E+00 -0.22836106976E+02  0.22836106976E+02  0.00000000000E+00 0. -1.
          6    2    1    2  501    0 -0.89324467898E+02  0.21820501964E+01  0.13136228566E+04  0.13278953861E+04  0.17238771772E+03 0.  0.
         24    2    3    3    0    0 -0.68254359902E+01  0.20733769333E+02  0.98247433095E+03  0.98608887275E+03  0.81479925275E+02 0.  0.
         -6    2    1    2    0  502  0.89324467898E+02 -0.21820501964E+01  0.59386614341E+03  0.62526582783E+03  0.17405957961E+03 0.  0.
        -24    2    5    5    0    0  0.44810248499E+02 -0.15379814712E+02  0.12992440647E+03  0.15898295018E+03  0.78426589749E+02 0.  0.
          5    1    3    3  501    0 -0.82499031907E+02 -0.18551719137E+02  0.33114852563E+03  0.34180651336E+03  0.47000000000E+01 0. -1.
        -11    1    4    4    0    0  0.27628185177E+02  0.28478105102E+02  0.73928760264E+03  0.74035159114E+03  0.00000000000E+00 0.  1.
         12    1    4    4    0    0 -0.34453621167E+02 -0.77443357688E+01  0.24318672831E+03  0.24573728161E+03  0.00000000000E+00 0. -1.
         -5    1    5    5    0  502  0.44514219399E+02  0.13197764516E+02  0.46394173694E+03  0.46628287765E+03  0.47000000000E+01 0.  1.
         11    1    6    6    0    0  0.58043619202E+02  0.12966125187E+02  0.74371447618E+02  0.95227592395E+02  0.00000000000E+00 0. -1.
        -12    1    6    6    0    0 -0.13233370703E+02 -0.28345939899E+02  0.55552958853E+02  0.63755357785E+02  0.00000000000E+00 0.  1.
</event>
<event>
12    1  0.8453150E-002  0.2495968E+03  0.7818608E-02  0.1113975E+00
         21   -1    0    0  503  502  0.00000000000E+00  0.00000000000E+00  0.43163420314E+02  0.43163420314E+02  0.00000000000E+00 0.  1.
         21   -1    0    0  501  503 -0.00000000000E+00 -0.00000000000E+00 -0.14374050345E+04  0.14374050345E+04  0.00000000000E+00 0. -1.
          6    2    1    2  501    0 -0.74402556493E+02 -0.15224269322E+03 -0.75974156909E+03  0.79969107329E+03  0.18326206058E+03 0.  0.
         24    2    3    3    0    0 -0.10277209291E+03 -0.92065468280E+02 -0.66224012982E+03  0.68156085000E+03  0.83216880297E+02 0.  0.
         -6    2    1    2    0  502  0.74402556493E+02  0.15224269322E+03 -0.63450004505E+03  0.68087738147E+03  0.17969452798E+03 0.  0.
        -24    2    5    5    0    0  0.75782094237E+02  0.14088553659E+03 -0.32235993756E+03  0.36849232287E+03  0.79240156797E+02 0.  0.
          5    1    3    3  501    0  0.28369536413E+02 -0.60177224935E+02 -0.97501439264E+02  0.11813022330E+03  0.47000000000E+01 0. -1.
        -13    1    4    4    0    0 -0.71628572384E+02 -0.84202075430E+02 -0.33545003188E+03  0.35319593115E+03  0.00000000000E+00 0.  1.
         14    1    4    4    0    0 -0.31143520523E+02 -0.78633928502E+01 -0.32679009794E+03  0.32836491885E+03  0.00000000000E+00 0. -1.
         -5    1    5    5    0  502 -0.13795377439E+01  0.11357156629E+02 -0.31214010749E+03  0.31238505860E+03  0.47000000000E+01 0.  1.
         13    1    6    6    0    0  0.41437829107E+02  0.80662827293E+02 -0.25957742832E+03  0.27496186405E+03  0.00000000000E+00 0. -1.
        -14    1    6    6    0    0  0.34344265131E+02  0.60222709294E+02 -0.62782509238E+02  0.93530458827E+02  0.00000000000E+00 0.  1.
</event>
<event>
12    1  0.8453150E-002  0.2214725E+03  0.7818608E-02  0.1133234E+00
         21   -1    0    0  503  502  0.00000000000E+00  0.00000000000E+00  0.60475000208E+03  0.60475000208E+03  0.00000000000E+00 0. -1.
         21   -1    0    0  501  503 -0.00000000000E+00 -0.00000000000E+00 -0.72237325359E+03  0.72237325359E+03  0.00000000000E+00 0.  1.
          6    2    1    2  501    0  0.63413297335E+02 -0.12062033158E+03 -0.68440088415E+03  0.71861117726E+03  0.17154283193E+03 0.  0.
         24    2    3    3    0    0 -0.21972689312E+02 -0.15201467933E+02 -0.16325334332E+03  0.18007542836E+03  0.71145077772E+02 0.  0.
         -6    2    1    2    0  502 -0.63413297335E+02  0.12062033158E+03  0.56677763265E+03  0.60851207840E+03  0.17458394549E+03 0.  0.
        -24    2    5    5    0    0 -0.53590125957E+02  0.11354578379E+03  0.24017528149E+03  0.28165166522E+03  0.76674298611E+02 0.  0.
          5    1    3    3  501    0  0.85385986646E+02 -0.10541886365E+03 -0.52114754083E+03  0.53853574890E+03  0.47000000000E+01 0. -1.
        -11    1    4    4    0    0 -0.26329245488E+02  0.50678832641E+01 -0.15572844183E+03  0.15801980953E+03  0.00000000000E+00 0.  1.
         12    1    4    4    0    0  0.43565561760E+01 -0.20269351197E+02 -0.75249014922E+01  0.22055618834E+02  0.00000000000E+00 0. -1.
         -5    1    5    5    0  502 -0.98231713773E+01  0.70745477916E+01  0.32660235116E+03  0.32686041318E+03  0.47000000000E+01 0.  1.
         13    1    6    6    0    0  0.47312500819E+01  0.25133481304E+02  0.11438499589E+03  0.11720923126E+03  0.00000000000E+00 0. -1.
        -14    1    6    6    0    0 -0.58321376039E+02  0.88412302483E+02  0.12579028560E+03  0.16444243396E+03  0.00000000000E+00 0.  1.
</event>
<event>
12    1  0.8453150E-002  0.3725095E+03  0.7818608E-02  0.1054269E+00
         21   -1    0    0  503  502  0.00000000000E+00  0.00000000000E+00  0.19756739000E+03  0.19756739000E+03  0.00000000000E+00 0. -1.
         21   -1    0    0  501  503 -0.00000000000E+00 -0.00000000000E+00 -0.71084531025E+03  0.71084531025E+03  0.00000000000E+00 0. -1.
          6    2    1    2  501    0  0.11681855831E+03 -0.30411037384E+03 -0.18064165109E+03  0.40900286386E+03  0.16888529094E+03 0.  0.
         24    2    3    3    0    0  0.54280959241E+02 -0.15303666972E+03 -0.15747836267E+03  0.24379740601E+03  0.90945564229E+02 0.  0.
         -6    2    1    2    0  502 -0.11681855831E+03  0.30411037384E+03 -0.33263626916E+03  0.49940983640E+03  0.18064772928E+03 0.  0.
        -24    2    5    5    0    0 -0.12087263883E+03  0.26001262905E+03 -0.19475880798E+03  0.35451908112E+03  0.74404458932E+02 0.  0.
          5    1    3    3  501    0  0.62537599070E+02 -0.15107370411E+03 -0.23163288423E+02  0.16520545785E+03  0.47000000000E+01 0. -1.
        -11    1    4    4    0    0  0.64825553351E+02 -0.60249097982E+02 -0.50896086532E+02  0.10209171269E+03  0.00000000000E+00 0.  1.
         12    1    4    4    0    0 -0.10544594109E+02 -0.92787571739E+02 -0.10658227613E+03  0.14170569332E+03  0.00000000000E+00 0. -1.
         -5    1    5    5    0  502  0.40540805153E+01  0.44097744786E+02 -0.13787746119E+03  0.14489075529E+03  0.47000000000E+01 0.  1.
         13    1    6    6    0    0 -0.58696037350E+02  0.10555338194E+03 -0.40073575912E+02  0.12725027594E+03  0.00000000000E+00 0. -1.
        -14    1    6    6    0    0 -0.62176601477E+02  0.15445924711E+03 -0.15468523206E+03  0.22726880518E+03  0.00000000000E+00 0.  1.
</event>
<event>
12    1  0.8453150E-002  0.1956053E+03  0.7818608E-02  0.1153573E+00
         21   -1    0    0  501  502  0.00000000000E+00  0.00000000000E+00  0.17569425155E+03  0.17569425155E+03  0.00000000000E+00 0.  1.
         21   -1    0    0  502  503 -0.00000000000E+00 -0.00000000000E+00 -0.82854464875E+03  0.82854464875E+03  0.00000000000E+00 0. -1.
         -6    2    1    2    0  503  0.45991476191E+02  0.78633978515E+02 -0.75773967244E+03  0.78257960504E+03  0.17309797391E+03 0.  0.
        -24    2    3    3    0    0 -0.40197144942E+02  0.59615208859E+02 -0.44889873316E+03  0.46133980709E+03  0.78451012617E+02 0.  0.
          6    2    1    2  501    0 -0.45991476191E+02 -0.78633978515E+02  0.10488927523E+03  0.22165929526E+03  0.17272106026E+03 0.  0.
         24    2    5    5    0    0 -0.73531217539E+02 -0.62244493479E+01  0.94899804925E+02  0.14340677591E+03  0.78191730250E+02 0.  0.
          5    1    5    5  501    0  0.27539741348E+02 -0.72409529167E+02  0.99894703095E+01  0.78252519350E+02  0.47000000000E+01 0. -1.
        -11    1    6    6    0    0 -0.27619220119E+02 -0.66668094139E+01  0.93228874638E+02  0.97462252868E+02  0.00000000000E+00 0.  1.
         12    1    6    6    0    0 -0.45911997420E+02  0.44236006599E+00  0.16709302866E+01  0.45944523041E+02  0.00000000000E+00 0. -1.
         -5    1    3    3    0  503  0.86188621133E+02  0.19018769655E+02 -0.30884093928E+03  0.32123979795E+03  0.47000000000E+01 0.  1.
         13    1    4    4    0    0 -0.64225825737E+01  0.46504024371E+01 -0.28631276331E+03  0.28642254493E+03  0.00000000000E+00 0. -1.
        -14    1    4    4    0    0 -0.33774562369E+02  0.54964806422E+02 -0.16258596985E+03  0.17491726216E+03  0.00000000000E+00 0.  1.
</event>
<event>
12    1  0.8453150E-002  0.2105320E+03  0.7818608E-02  0.1141265E+00
         21   -1    0    0  503  502  0.00000000000E+00  0.00000000000E+00  0.10809520524E+04  0.10809520524E+04  0.00000000000E+00 0.  1.
         21   -1    0    0  501  503 -0.00000000000E+00 -0.00000000000E+00 -0.60241709791E+02  0.60241709791E+02  0.00000000000E+00 0. -1.
          6    2    1    2  501    0  0.96625562569E+02  0.73360168876E+02  0.18742497737E+03  0.28187205339E+03  0.17206254275E+03 0.  0.
         24    2    3    3    0    0  0.35522644435E+02  0.84234292292E+02  0.18316799073E+03  0.21948595638E+03  0.79159951702E+02 0.  0.
         -6    2    1    2    0  502 -0.96625562569E+02 -0.73360168876E+02  0.83328536525E+03  0.85932170882E+03  0.17132158530E+03 0.  0.
        -24    2    5    5    0    0 -0.15254566100E+02 -0.74724349690E+02  0.62980720444E+03  0.64012190959E+03  0.85337647907E+02 0.  0.
          5    1    3    3  501    0  0.61102918134E+02 -0.10874123416E+02  0.42569866443E+01  0.62386097007E+02  0.47000000000E+01 0. -1.
        -11    1    4    4    0    0  0.23354494058E+02 -0.13626578294E+01  0.87347237597E+02  0.90425821229E+02  0.00000000000E+00 0.  1.
         12    1    4    4    0    0  0.12168150376E+02  0.85596950122E+02  0.95820753133E+02  0.12906013515E+03  0.00000000000E+00 0. -1.
         -5    1    5    5    0  502 -0.81370996469E+02  0.13641808133E+01  0.20347816081E+03  0.21919979923E+03  0.47000000000E+01 0.  1.
         13    1    6    6    0    0 -0.28192151797E+02  0.62183575802E+01  0.10275539296E+03  0.10673395043E+03  0.00000000000E+00 0. -1.
        -14    1    6    6    0    0  0.12937585697E+02 -0.80942707270E+02  0.52705181149E+03  0.53338795916E+03  0.00000000000E+00 0.  1.
</event>
<event>
12    1  0.8453150E-002  0.3132427E+03  0.7818608E-02  0.1078885E+00
         21   -1    0    0  503  502  0.00000000000E+00  0.00000000000E+00  0.72640379995E+03  0.72640379995E+03  0.00000000000E+00 0.  1.
         21   -1    0    0  501  503 -0.00000000000E+00 -0.00000000000E+00 -0.15847556691E+03  0.15847556691E+03  0.00000000000E+00 0. -1.
          6    2    1    2  501    0  0.24721331908E+03 -0.84064677314E+02  0.11259589114E+03  0.33220539658E+03  0.17175941230E+03 0.  0.
         24    2    3    3    0    0  0.26287032249E+03 -0.93939827234E+02  0.11587676455E+03  0.31282720080E+03  0.80671775819E+02 0.  0.
         -6    2    1    2    0  502 -0.24721331908E+03  0.84064677314E+02  0.45533234191E+03  0.55267397027E+03  0.17303086640E+03 0.  0.
        -24    2    5    5    0    0 -0.65310004805E+02 -0.21642115033E+02  0.13461332332E+03  0.16907845338E+03  0.75716568282E+02 0.  0.
          5    1    3    3  501    0 -0.15657003403E+02  0.98751499194E+01 -0.32808734119E+01  0.19378195784E+02  0.47000000000E+01 0. -1.
        -13    1    4    4    0    0  0.14360018161E+03 -0.90616248022E+02  0.83360447107E+02  0.18915940554E+03  0.00000000000E+00 0.  1.
         14    1    4    4    0    0  0.11927014088E+03 -0.33235792118E+01  0.32516317441E+02  0.12366779526E+03  0.00000000000E+00 0. -1.
         -5    1    5    5    0  502 -0.18190331428E+03  0.10570679235E+03  0.32071901859E+03  0.38359551689E+03  0.47000000000E+01 0.  1.
         11    1    6    6    0    0 -0.47635467531E+02 -0.12341145249E+02  0.13999680089E+03  0.14839321377E+03  0.00000000000E+00 0. -1.
        -12    1    6    6    0    0 -0.17674537275E+02 -0.93009697848E+01 -0.53834775785E+01  0.20685239608E+02  0.00000000000E+00 0.  1.
</event>
<event>
12    1  0.8453150E-002  0.2400301E+03  0.7818608E-02  0.1119790E+00
         21   -1    0    0  503  502  0.00000000000E+00  0.00000000000E+00  0.57117139185E+03  0.57117139185E+03  0.00000000000E+00 0. -1.
         21   -1    0    0  501  503 -0.00000000000E+00 -0.00000000000E+00 -0.10214830719E+03  0.10214830719E+03  0.00000000000E+00 0.  1.
          6    2    1    2  501    0  0.93374368812E+01  0.16865691485E+03  0.19617868764E+03  0.30992111113E+03  0.17038977370E+03 0.  0.
         24    2    3    3    0    0  0.35435021574E+02  0.29916664528E+02  0.10521636710E+03  0.14191463879E+03  0.83178321868E+02 0.  0.
         -6    2    1    2    0  502 -0.93374368812E+01 -0.16865691485E+03  0.27284439702E+03  0.36339858792E+03  0.17053482360E+03 0.  0.
        -24    2    5    5    0    0 -0.15348521264E+00 -0.97627522055E+01  0.96983651536E+02  0.12616285770E+03  0.80099332759E+02 0.  0.
          5    1    3    3  501    0 -0.26097584693E+02  0.13874025032E+03  0.90962320549E+02  0.16800647233E+03  0.47000000000E+01 0. -1.
        -11    1    4    4    0    0 -0.98965559103E+00 -0.26982366939E+02  0.22742289109E+02  0.35302114069E+02  0.00000000000E+00 0.  1.
         12    1    4    4    0    0  0.36424677165E+02  0.56899031467E+02  0.82474077987E+02  0.10661252473E+03  0.00000000000E+00 0. -1.
         -5    1    5    5    0  502 -0.91839516686E+01 -0.15889416264E+03  0.17586074548E+03  0.23723573022E+03  0.47000000000E+01 0.  1.
         11    1    6    6    0    0 -0.36910380598E+02  0.10936751687E+02  0.45232769088E+02  0.59396903394E+02  0.00000000000E+00 0. -1.
        -12    1    6    6    0    0  0.36756895386E+02 -0.20699503893E+02  0.51750882448E+02  0.66765954303E+02  0.00000000000E+00 0.  1.
</event>
<event>
12    1  0.8453150E-002  0.2421384E+03  0.7818608E-02  0.1118477E+00
         21   -1    0    0  503  502  0.00000000000E+00  0.00000000000E+00  0.97510091863E+02  0.97510091863E+02  0.00000000000E+00 0.  1.
         21   -1    0    0  501  503 -0.00000000000E+00 -0.00000000000E+00 -0.75497235177E+03  0.75497235177E+03  0.00000000000E+00 0. -1.
          6    2    1    2  501    0  0.15597944905E+03  0.68232860356E+02 -0.52165961738E+03  0.57486157341E+03  0.17132355476E+03 0.  0.
         24    2    3    3    0    0  0.13038829153E+03 -0.80800278215E+01 -0.27022075619E+03  0.31081204176E+03  0.80737072096E+02 0.  0.
         -6    2    1    2    0  502 -0.15597944905E+03 -0.68232860356E+02 -0.13580264252E+03  0.27762087022E+03  0.17217920347E+03 0.  0.
        -24    2    5    5    0    0 -0.48856139449E+02 -0.59087154183E+02 -0.83730065732E+01  0.11082923518E+03  0.79591444139E+02 0.  0.
          5    1    3    3  501    0  0.25591157523E+02  0.76312888177E+02 -0.25143886119E+03  0.26404953165E+03  0.47000000000E+01 0. -1.
        -13    1    4    4    0    0  0.79690811388E+02  0.33275238754E+02 -0.12988011660E+03  0.15597022672E+03  0.00000000000E+00 0.  1.
         14    1    4    4    0    0  0.50697480143E+02 -0.41355266576E+02 -0.14034063959E+03  0.15484181504E+03  0.00000000000E+00 0. -1.
         -5    1    5    5    0  502 -0.10712330960E+03 -0.91457061732E+01 -0.12742963595E+03  0.16679163504E+03  0.47000000000E+01 0.  1.
         11    1    6    6    0    0  0.19258610990E+02  0.62942368610E+00 -0.61147029490E+01  0.20215832004E+02  0.00000000000E+00 0. -1.
        -12    1    6    6    0    0 -0.68114750439E+02 -0.59716577869E+02 -0.22583036242E+01  0.90613403175E+02  0.00000000000E+00 0.  1.
</event>
<event>
12    1  0.8453150E-002  0.2204747E+03  0.7818608E-02  0.1133568E+00
         21   -1    0    0  501  502  0.00000000000E+00  0.00000000000E+00  0.50323109041E+03  0.50323109041E+03  0.00000000000E+00 0. -1.
         21   -1    0    0  502  503 -0.00000000000E+00 -0.00000000000E+00 -0.10400409501E+03  0.10400409501E+03  0.00000000000E+00 0.  1.
         -6    2    1    2    0  503  0.10816249754E+03 -0.85508864658E+02  0.11816555244E+03  0.25014436601E+03  0.17204131554E+03 0.  0.
        -24    2    3    3    0    0  0.63617700009E+02  0.16600606762E+02  0.75091661582E+02  0.13061180469E+03  0.84248999911E+02 0.  0.
          6    2    1    2  501    0 -0.10816249754E+03  0.85508864658E+02  0.28106144296E+03  0.35709081941E+03  0.17177725920E+03 0.  0.
         24    2    5    5    0    0 -0.70680045029E+02 -0.75749792177E+01  0.20488871703E+03  0.23101976638E+03  0.79609654026E+02 0.  0.
          5    1    5    5  501    0 -0.37482452514E+02  0.93083843876E+02  0.76172725923E+02  0.12607105303E+03  0.47000000000E+01 0. -1.
        -13    1    6    6    0    0 -0.46665996840E+02  0.93699924495E+01  0.36224839229E+02  0.59814304282E+02  0.00000000000E+00 0.  1.
         14    1    6    6    0    0 -0.24014048189E+02 -0.16944971667E+02  0.16866387781E+03  0.17120546210E+03  0.00000000000E+00 0. -1.
         -5    1    3    3    0  503  0.44544797534E+02 -0.10210947142E+03  0.43073890858E+02  0.11953256132E+03  0.47000000000E+01 0.  1.
         13    1    4    4    0    0  0.51457864591E+00  0.15687704230E+01  0.64931113636E+02  0.64952100426E+02  0.00000000000E+00 0. -1.
        -14    1    4    4    0    0  0.63103121363E+02  0.15031836339E+02  0.10160547947E+02  0.65659704264E+02  0.00000000000E+00 0.  1.
</event>
<event>
12    1  0.8453150E-002  0.1924484E+03  0.7818608E-02  0.1157769E+00
         21   -1    0    0  503  502  0.00000000000E+00  0.00000000000E+00  0.14239471910E+03  0.14239471910E+03  0.00000000000E+00 0. -1.
         21   -1    0    0  501  503 -0.00000000000E+00 -0.00000000000E+00 -0.26182311798E+03  0.26182311798E+03  0.00000000000E+00 0. -1.
          6    2    1    2  501    0 -0.18148475551E+02  0.49889177365E+02 -0.20042670485E+02  0.19348925207E+03  0.18498130945E+03 0.  0.
         24    2    3    3    0    0  0.41790423077E+02 -0.28493609742E+02 -0.94584943721E+01  0.94138118877E+02  0.78830178566E+02 0.  0.
         -6    2    1    2    0  502  0.18148475551E+02 -0.49889177365E+02 -0.99385728392E+02  0.21072858501E+03  0.17807503011E+03 0.  0.
        -24    2    5    5    0    0 -0.32565388758E+02 -0.34776167700E+02  0.44790918444E+01  0.94065437539E+02  0.80983689041E+02 0.  0.
          5    1    3    3  501    0 -0.59938898629E+02  0.78382787107E+02 -0.10584176113E+02  0.99351133196E+02  0.47000000000E+01 0. -1.
        -13    1    4    4    0    0 -0.83296700863E+01 -0.36618611987E+02  0.11400052529E+02  0.39246239887E+02  0.00000000000E+00 0.  1.
         14    1    4    4    0    0  0.50120093164E+02  0.81250022453E+01 -0.20858546901E+02  0.54891878990E+02  0.00000000000E+00 0. -1.
         -5    1    5    5    0  502  0.50713864310E+02 -0.15113009665E+02 -0.10386482024E+03  0.11666314747E+03  0.47000000000E+01 0.  1.
         11    1    6    6    0    0 -0.22852589790E+02 -0.30080776570E+02 -0.35994044019E+02  0.52179164271E+02  0.00000000000E+00 0. -1.
        -12    1    6    6    0    0 -0.97127989689E+01 -0.46953911306E+01  0.40473135864E+02  0.41886273268E+02  0.00000000000E+00 0.  1.
</event>
<event>
12    1  0.8453150E-002  0.2559425E+03  0.7818608E-02  0.1109935E+00
         21   -1    0    0  501  502  0.00000000000E+00  0.00000000000E+00  0.34826673692E+03  0.34826673692E+03  0.00000000000E+00 0.  1.
         21   -1    0    0  502  503 -0.00000000000E+00 -0.00000000000E+00 -0.30456276443E+03  0.30456276443E+03  0.00000000000E+00 0.  1.
         -6    2    1    2    0  503 -0.10372677211E+03  0.15312095491E+03 -0.18129972818E+03  0.31364972015E+03  0.17692169292E+03 0.  0.
        -24    2    3    3    0    0  0.29658312032E+02  0.57458219081E+02 -0.94001249140E+02  0.12767645825E+03  0.57306027076E+02 0.  0.
          6    2    1    2  501    0  0.10372677211E+03 -0.15312095491E+03  0.22500370067E+03  0.33917978120E+03  0.17381308516E+03 0.  0.
         24    2    5    5    0    0  0.30953351972E+02 -0.15875154470E+03  0.16277961042E+03  0.24315061049E+03  0.80404321200E+02 0.  0.
          5    1    5    5  501    0  0.72773420142E+02  0.56305897877E+01  0.62224090246E+02  0.96029170711E+02  0.47000000000E+01 0. -1.
        -13    1    6    6    0    0  0.70498475370E+01 -0.86895364512E+02  0.13844723573E+03  0.16360972406E+03  0.00000000000E+00 0.  1.
         14    1    6    6    0    0  0.23903504435E+02 -0.71856180190E+02  0.24332374685E+02  0.79540886427E+02  0.00000000000E+00 0. -1.
         -5    1    3    3    0  503 -0.13338508415E+03  0.95662735833E+02 -0.87298479043E+02  0.18597326190E+03  0.47000000000E+01 0.  1.
         13    1    4    4    0    0  0.17527729937E+02 -0.30349911497E+00 -0.10399210844E+01  0.17561174913E+02  0.00000000000E+00 0. -1.
        -14    1    4    4    0    0  0.12130582095E+02  0.57761718196E+02 -0.92961328056E+02  0.11011528334E+03  0.00000000000E+00 0.  1.
</event>
<event>
12    1  0.8453150E-002  0.2032639E+03  0.7818608E-02  0.1147252E+00
         21   -1    0    0  503  502  0.00000000000E+00  0.00000000000E+00  0.13018343557E+03  0.13018343557E+03  0.00000000000E+00 0. -1.
         21   -1    0    0  501  503 -0.00000000000E+00 -0.00000000000E+00 -0.66323145176E+03  0.66323145176E+03  0.00000000000E+00 0.  1.
          6    2    1    2  501    0  0.46977035579E+02  0.94842932509E+02 -0.55410113134E+03  0.59020698314E+03  0.17353442157E+03 0.  0.
         24    2    3    3    0    0  0.52453435225E+02  0.31924317747E+02 -0.48927453935E+03  0.49957961383E+03  0.80122972835E+02 0.  0.
         -6    2    1    2    0  502 -0.46977035579E+02 -0.94842932509E+02  0.21053115152E+02  0.20320790419E+03  0.17218651210E+03 0.  0.
        -24    2    5    5    0    0 -0.23291027990E+02 -0.60544374301E+01  0.62565633033E+02  0.10226335033E+03  0.77228273229E+02 0.  0.
          5    1    3    3  501    0 -0.54763996459E+01  0.62918614763E+02 -0.64826591998E+02  0.90627369303E+02  0.47000000000E+01 0. -1.
        -11    1    4    4    0    0  0.21118327978E+02  0.29487354614E+02 -0.43757892659E+03  0.43907949719E+03  0.00000000000E+00 0.  1.
         12    1    4    4    0    0  0.31335107247E+02  0.24369631324E+01 -0.51695612754E+02  0.60500116640E+02  0.00000000000E+00 0. -1.
         -5    1    5    5    0  502 -0.23686007589E+02 -0.88788495079E+02 -0.41512517881E+02  0.10094455386E+03  0.47000000000E+01 0.  1.
         11    1    6    6    0    0 -0.47234478732E+02  0.62444128092E+01  0.19508329807E+02  0.51484595796E+02  0.00000000000E+00 0. -1.
        -12    1    6    6    0    0  0.23943450742E+02 -0.12298850239E+02  0.43057303225E+02  0.50778754531E+02  0.00000000000E+00 0.  1.
</event>
<event>
12    1  0.8453150E-002  0.1800653E+03  0.7818608E-02  0.1167982E+00
         21   -1    0    0  503  502  0.00000000000E+00  0.00000000000E+00  0.44338702879E+03  0.44338702879E+03  0.00000000000E+00 0. -1.
         21   -1    0    0  501  503 -0.00000000000E+00 -0.00000000000E+00 -0.10755948131E+03  0.10755948131E+03  0.00000000000E+00 0. -1.
          6    2    1    2  501    0 -0.53295311462E+02 -0.13113481391E+02  0.11453241456E+02  0.18042916065E+03  0.17149679780E+03 0.  0.
         24    2    3    3    0    0 -0.91287903074E+01 -0.13300942385E+02  0.69852905820E+02  0.10705799785E+03  0.79509348955E+02 0.  0.
         -6    2    1    2    0  502  0.53295311462E+02  0.13113481391E+02  0.32437430602E+03  0.37051734946E+03  0.17044665506E+03 0.  0.
        -24    2    5    5    0    0  0.82474010889E+02  0.44171136920E+02  0.16841968790E+03  0.20877710282E+03  0.80434044915E+02 0.  0.
          5    1    3    3  501    0 -0.44166521155E+02  0.18746099418E+00 -0.58399664364E+02  0.73371162798E+02  0.47000000000E+01 0. -1.
        -11    1    4    4    0    0 -0.14516255819E+02  0.30278194789E+02  0.46403562314E+02  0.57278105399E+02  0.00000000000E+00 0.  1.
         12    1    4    4    0    0  0.53874655117E+01 -0.43579137174E+02  0.23449343506E+02  0.49779892450E+02  0.00000000000E+00 0. -1.
         -5    1    5    5    0  502 -0.29178699427E+02 -0.31057655529E+02  0.15595461813E+03  0.16174024664E+03  0.47000000000E+01 0.  1.
         11    1    6    6    0    0  0.60784174040E+02  0.63911953739E+02  0.15040143405E+03  0.17435608681E+03  0.00000000000E+00 0. -1.
        -12    1    6    6    0    0  0.21689836849E+02 -0.19740816819E+02  0.18018253846E+02  0.34421016006E+02  0.00000000000E+00 0.  1.
</event>
<event>
12    1  0.8453150E-002  0.2658387E+03  0.7818608E-02  0.1104135E+00
         21   -1    0    0  501  502  0.00000000000E+00  0.00000000000E+00  0.55307709713E+03  0.55307709713E+03  0.00000000000E+00 0. -1.
         21   -1    0    0  502  503 -0.00000000000E+00 -0.00000000000E+00 -0.17704055528E+03  0.17704055528E+03  0.00000000000E+00 0. -1.
         -6    2    1    2    0  503 -0.19279179080E+03 -0.58942647776E+02  0.38421522889E+03  0.46721680333E+03  0.17328383906E+03 0.  0.
        -24    2    3    3    0    0 -0.71017559921E+02 -0.28797288498E+01  0.27104886043E+03  0.29171543258E+03  0.81108706140E+02 0.  0.
          6    2    1    2  501    0  0.19279179080E+03  0.58942647776E+02 -0.81786870382E+01  0.26290084907E+03  0.16854392660E+03 0.  0.
         24    2    5    5    0    0  0.98015907866E+02 -0.31891024860E+02 -0.27830413005E+02  0.13007952396E+03  0.74310127199E+02 0.  0.
          5    1    5    5  501    0  0.94775882936E+02  0.90833672635E+02  0.19651725967E+02  0.13282132511E+03  0.47000000000E+01 0. -1.
        -13    1    6    6    0    0  0.67365974004E+02 -0.46573295805E+02  0.60119597755E+01  0.82118146569E+02  0.00000000000E+00 0.  1.
         14    1    6    6    0    0  0.30649933862E+02  0.14682270945E+02 -0.33842372780E+02  0.47961377391E+02  0.00000000000E+00 0. -1.
         -5    1    3    3    0  503 -0.12177423088E+03 -0.56062918926E+02  0.11316636846E+03  0.17550137075E+03  0.47000000000E+01 0.  1.
         11    1    4    4    0    0 -0.87296282680E+02 -0.11325795128E+02  0.20354004937E+03  0.22175992943E+03  0.00000000000E+00 0. -1.
        -12    1    4    4    0    0  0.16278722758E+02  0.84460662783E+01  0.67508811058E+02  0.69955503148E+02  0.00000000000E+00 0.  1.
</event>
<event>
12    1  0.8453150E-002  0.2044168E+03  0.7818608E-02  0.1146110E+00
         21   -1    0    0  503  502  0.00000000000E+00  0.00000000000E+00  0.14795888949E+03  0.14795888949E+03  0.00000000000E+00 0.  1.
         21   -1    0    0  501  503 -0.00000000000E+00 -0.00000000000E+00 -0.28920755834E+03  0.28920755834E+03  0.00000000000E+00 0. -1.
          6    2    1    2  501    0 -0.63408857587E+02 -0.90136766794E+02 -0.36359488538E+02  0.20741010519E+03  0.17190584452E+03 0.  0.
         24    2    3    3    0    0  0.26414282340E+02 -0.33060727725E+02 -0.43285876357E+02  0.10065835790E+03  0.80422085853E+02 0.  0.
         -6    2    1    2    0  502  0.63408857587E+02  0.90136766794E+02 -0.10488918031E+03  0.22975634264E+03  0.17216537657E+03 0.  0.
        -24    2    5    5    0    0 -0.30666660773E+02  0.32966102164E+02 -0.69906562900E+02  0.11415114566E+03  0.78207087557E+02 0.  0.
          5    1    3    3  501    0 -0.89823139928E+02 -0.57076039069E+02  0.69263878191E+01  0.10675174729E+03  0.47000000000E+01 0. -1.
        -11    1    4    4    0    0  0.13295699251E+02  0.24663917763E+02 -0.27798249327E+02  0.39469318763E+02  0.00000000000E+00 0.  1.
         12    1    4    4    0    0  0.13118583089E+02 -0.57724645487E+02 -0.15487627030E+02  0.61189039132E+02  0.00000000000E+00 0. -1.
         -5    1    5    5    0  502  0.94075518360E+02  0.57170664630E+02 -0.34982617407E+02  0.11560519698E+03  0.47000000000E+01 0.  1.
         11    1    6    6    0    0  0.93591899109E+01  0.21025962434E+02  0.91274005254E+01  0.24758735275E+02  0.00000000000E+00 0. -1.
        -12    1    6    6    0    0 -0.40025850684E+02  0.11940139730E+02 -0.79033963426E+02  0.89392410386E+02  0.00000000000E+00 0.  1.
</event>
<event>
12    1  0.8453150E-002  0.2593729E+03  0.7818608E-02  0.1108177E+00
         21   -1    0    0  501  502  0.00000000000E+00  0.00000000000E+00  0.12054860224E+03  0.12054860224E+03  0.00000000000E+00 0.  1.
         21   -1    0    0  502  503 -0.00000000000E+00 -0.00000000000E+00 -0.56292725166E+03  0.56292725166E+03  0.00000000000E+00 0.  1.
         -6    2    1    2    0  503  0.13938857468E+03 -0.12723299777E+03 -0.27349165814E+03  0.37396477260E+03  0.17156501274E+03 0.  0.
        -24    2    3    3    0    0  0.10060992430E+03 -0.15297734873E+03 -0.25073554252E+03  0.32194087300E+03  0.85165646429E+02 0.  0.
          6    2    1    2  501    0 -0.13938857468E+03  0.12723299777E+03 -0.16888699128E+03  0.30951108131E+03  0.17792381279E+03 0.  0.
         24    2    5    5    0    0 -0.98073156263E+02  0.55038770782E+02 -0.19958025772E+02  0.13886262109E+03  0.78974011381E+02 0.  0.
          5    1    5    5  501    0 -0.41315418415E+02  0.72194226988E+02 -0.14892896551E+03  0.17064846022E+03  0.47000000000E+01 0. -1.
        -11    1    6    6    0    0 -0.72830157907E+02  0.68524728230E+02 -0.35722665073E+02  0.10618841311E+03  0.00000000000E+00 0.  1.
         12    1    6    6    0    0 -0.25242998356E+02 -0.13485957448E+02  0.15764639301E+02  0.32674207972E+02  0.00000000000E+00 0. -1.
         -5    1    3    3    0  503  0.38778650376E+02  0.25744350958E+02 -0.22756115623E+02  0.52023899599E+02  0.47000000000E+01 0.  1.
         13    1    4    4    0    0  0.26490141154E+02 -0.10989083684E+02 -0.57613504788E+01  0.29252020408E+02  0.00000000000E+00 0. -1.
        -14    1    4    4    0    0  0.74119783147E+02 -0.14198826504E+03 -0.24497419204E+03  0.29268885259E+03  0.00000000000E+00 0.  1.
</event>
<event>
12    1  0.8453150E-002  0.1858352E+03  0.7818608E-02  0.1162515E+00
         21   -1    0    0  503  502  0.00000000000E+00  0.00000000000E+00  0.66286266170E+02  0.66286266170E+02  0.00000000000E+00 0. -1.
         21   -1    0    0  501  503 -0.00000000000E+00 -0.00000000000E+00 -0.84225617076E+03  0.84225617076E+03  0.00000000000E+00 0. -1.
          6    2    1    2  501    0 -0.44902016878E+02  0.49969418886E+02 -0.66914394040E+03  0.69419108154E+03  0.17214677102E+03 0.  0.
         24    2    3    3    0    0 -0.31723023196E+02  0.98688142363E+02 -0.53874763938E+03  0.55428938316E+03  0.79006339592E+02 0.  0.
         -6    2    1    2    0  502  0.44902016878E+02 -0.49969418886E+02 -0.10682596419E+03  0.21435135539E+03  0.17326737428E+03 0.  0.
        -24    2    5    5    0    0  0.17991988790E+02  0.68485456072E+01 -0.12369844330E+03  0.14908879911E+03  0.80966356634E+02 0.  0.
          5    1    3    3  501    0 -0.13178993682E+02 -0.48718723478E+02 -0.13039630102E+03  0.13990169838E+03  0.47000000000E+01 0. -1.
        -11    1    4    4    0    0  0.24994890989E+02  0.23871416375E+02 -0.10668740511E+03  0.11214629510E+03  0.00000000000E+00 0.  1.
         12    1    4    4    0    0 -0.56717914186E+02  0.74816725988E+02 -0.43206023427E+03  0.44214308806E+03  0.00000000000E+00 0. -1.
         -5    1    5    5    0  502  0.26910028088E+02 -0.56817964493E+02  0.16872479114E+02  0.65262556280E+02  0.47000000000E+01 0.  1.
         13    1    6    6    0    0  0.33281905822E+02  0.20856390874E+02 -0.21437179290E+02  0.44746250696E+02  0.00000000000E+00 0. -1.
        -14    1    6    6    0    0 -0.15289917031E+02 -0.14007845266E+02 -0.10226126401E+03  0.10434254841E+03  0.00000000000E+00 0.  1.
</event>
<event>
12    1  0.8453150E-002  0.2118119E+03  0.7818608E-02  0.1140257E+00
         21   -1    0    0  501  502  0.00000000000E+00  0.00000000000E+00  0.13261535440E+04  0.13261535440E+04  0.00000000000E+00 0.  1.
         21   -1    0    0  502  503 -0.00000000000E+00 -0.00000000000E+00 -0.60673906977E+02  0.60673906977E+02  0.00000000000E+00 0. -1.
         -6    2    1    2    0  503 -0.11390562931E+03 -0.50005925892E+02  0.17019244732E+03  0.27124765034E+03  0.17068899694E+03 0.  0.
        -24    2    3    3    0    0  0.96219998296E+00  0.11173221273E+02  0.61813424426E+02  0.10182035367E+03  0.80129384617E+02 0.  0.
          6    2    1    2  501    0  0.11390562931E+03  0.50005925892E+02  0.10952871897E+04  0.11155798006E+04  0.17143272338E+03 0.  0.
         24    2    5    5    0    0  0.13249920640E+03  0.69412277870E+02  0.10390257637E+04  0.10530516816E+04  0.83481750158E+02 0.  0.
          5    1    5    5  501    0 -0.18593577087E+02 -0.19406351977E+02  0.56261425991E+02  0.62528118958E+02  0.47000000000E+01 0. -1.
        -11    1    6    6    0    0  0.23906375774E+02  0.62651640048E+01  0.45492023047E+03  0.45559102622E+03  0.00000000000E+00 0.  1.
         12    1    6    6    0    0  0.10859283063E+03  0.63147113865E+02  0.58410553321E+03  0.59746065542E+03  0.00000000000E+00 0. -1.
         -5    1    3    3    0  503 -0.11486782930E+03 -0.61179147165E+02  0.10837902290E+03  0.16942729668E+03  0.47000000000E+01 0.  1.
         11    1    4    4    0    0  0.26323015373E+02 -0.24154834831E+02  0.17683085230E+02  0.39862873546E+02  0.00000000000E+00 0. -1.
        -12    1    4    4    0    0 -0.25360815390E+02  0.35328056104E+02  0.44130339195E+02  0.61957480120E+02  0.00000000000E+00 0.  1.
</event>
<event>
12    1  0.8453150E-002  0.1826973E+03  0.7818608E-02  0.1165323E+00
         21   -1    0    0  501  502  0.00000000000E+00  0.00000000000E+00  0.71978557479E+02  0.71978557479E+02  0.00000000000E+00 0.  1.
         21   -1    0    0  502  503 -0.00000000000E+00 -0.00000000000E+00 -0.70291036711E+03  0.70291036711E+03  0.00000000000E+00 0.  1.
         -6    2    1    2    0  503 -0.58972380353E+02 -0.18823457111E+02 -0.54225382086E+03  0.57220407400E+03  0.17189017390E+03 0.  0.
        -24    2    3    3    0    0 -0.44705056061E+02 -0.68760309328E+02 -0.24318232377E+03  0.26862031929E+03  0.79326610705E+02 0.  0.
          6    2    1    2  501    0  0.58972380353E+02  0.18823457111E+02 -0.88677988773E+02  0.20268485059E+03  0.17142140702E+03 0.  0.
         24    2    5    5    0    0  0.80241473870E+02 -0.17570896728E+02 -0.13805684159E+02  0.11663326531E+03  0.81641234202E+02 0.  0.
          5    1    5    5  501    0 -0.21269093517E+02  0.36394353839E+02 -0.74872304614E+02  0.86051585277E+02  0.47000000000E+01 0. -1.
        -11    1    6    6    0    0  0.73047261032E+02  0.97969505605E+01 -0.34696185892E+02  0.81459854529E+02  0.00000000000E+00 0.  1.
         12    1    6    6    0    0  0.71942128380E+01 -0.27367847288E+02  0.20890501733E+02  0.35173410784E+02  0.00000000000E+00 0. -1.
         -5    1    3    3    0  503 -0.14267324292E+02  0.49936852216E+02 -0.29907149709E+03  0.30358375471E+03  0.47000000000E+01 0.  1.
         13    1    4    4    0    0  0.20609770145E+02 -0.56468544848E+01 -0.68211282756E+02  0.71480267810E+02  0.00000000000E+00 0. -1.
        -14    1    4    4    0    0 -0.65314826206E+02 -0.63113454843E+02 -0.17497104101E+03  0.19714005148E+03  0.00000000000E+00 0.  1.
</event>
<event>
12    1  0.8453150E-002  0.2953552E+03  0.7818608E-02  0.1087631E+00
         21   -1    0    0  503  502  0.00000000000E+00  0.00000000000E+00  0.58224140600E+03  0.58224140600E+03  0.00000000000E+00 0. -1.
         21   -1    0    0  501  503 -0.00000000000E+00 -0.00000000000E+00 -0.35460762981E+03  0.35460762981E+03  0.00000000000E+00 0. -1.
          6    2    1    2  501    0  0.50136729641E+02  0.23457866533E+03 -0.24233691181E+03  0.38177502617E+03  0.17170949273E+03 0.  0.
         24    2    3    3    0    0  0.73189486806E+02  0.21868610205E+03 -0.15317623864E+03  0.28820302811E+03  0.80110630507E+02 0.  0.
         -6    2    1    2    0  502 -0.50136729641E+02 -0.23457866533E+03  0.46997068800E+03  0.55507400964E+03  0.17231908400E+03 0.  0.
        -24    2    5    5    0    0 -0.92251182899E+02 -0.12714591807E+03  0.23843435790E+03  0.29633362912E+03  0.79286262933E+02 0.  0.
          5    1    3    3  501    0 -0.23052757164E+02  0.15892563281E+02 -0.89160673168E+02  0.93571998057E+02  0.47000000000E+01 0. -1.
        -13    1    4    4    0    0  0.32291138653E+02  0.11987083302E+03 -0.35347708000E+02  0.12907825032E+03  0.00000000000E+00 0.  1.
         14    1    4    4    0    0  0.40898348152E+02  0.98815269033E+02 -0.11782853064E+03  0.15912477780E+03  0.00000000000E+00 0. -1.
         -5    1    5    5    0  502  0.42114453258E+02 -0.10743274726E+03  0.23153633010E+03  0.25874038053E+03  0.47000000000E+01 0.  1.
         11    1    6    6    0    0 -0.43038628373E+02 -0.21690162056E+02  0.12436807983E+03  0.13337993081E+03  0.00000000000E+00 0. -1.
        -12    1    6    6    0    0 -0.49212554526E+02 -0.10545575601E+03  0.11406627808E+03  0.16295369831E+03  0.00000000000E+00 0.  1.
</event>
<event>
12    1  0.8453150E-002  0.1876428E+03  0.7818608E-02  0.1160809E+00
         21   -1    0    0  501  502  0.00000000000E+00  0.00000000000E+00  0.28640312969E+03  0.28640312969E+03  0.00000000000E+00 0.  1.
         21   -1    0    0  502  503 -0.00000000000E+00 -0.00000000000E+00 -0.21485415196E+03  0.21485415196E+03  0.00000000000E+00 0.  1.
         -6    2    1    2    0  503  0.67052681246E+02 -0.22750844091E+02 -0.12872119230E+03  0.22681610566E+03  0.17280838367E+03 0.  0.
        -24    2    3    3    0    0  0.70041805758E+02 -0.69805449857E+02 -0.12489441708E+03  0.17927869936E+03  0.82240994899E+02 0.  0.
          6    2    1    2  501    0 -0.67052681246E+02  0.22750844091E+02  0.20027017003E+03  0.27444117599E+03  0.17377040917E+03 0.  0.
         24    2    5    5    0    0 -0.67289927125E+02  0.55463185784E+02  0.20356019315E+03  0.24122871091E+03  0.95657929410E+02 0.  0.
          5    1    5    5  501    0  0.23724587922E+00 -0.32712341693E+02 -0.32900231197E+01  0.33212465081E+02  0.47000000000E+01 0. -1.
        -11    1    6    6    0    0  0.21596812363E+02 -0.23858613121E+01  0.50920201937E+02  0.55362275998E+02  0.00000000000E+00 0.  1.
         12    1    6    6    0    0 -0.88886739488E+02  0.57849047096E+02  0.15263999122E+03  0.18586643491E+03  0.00000000000E+00 0. -1.
         -5    1    3    3    0  503 -0.29891245119E+01  0.47054605766E+02 -0.38267752243E+01  0.47537406300E+02  0.47000000000E+01 0.  1.
         13    1    4    4    0    0  0.34041657320E+02  0.52325494153E+01 -0.72908048608E+01  0.35204684943E+02  0.00000000000E+00 0. -1.
        -14    1    4    4    0    0  0.36000148438E+02 -0.75037999272E+02 -0.11760361222E+03  0.14407401441E+03  0.00000000000E+00 0.  1.
</event>
<event>
12    1  0.8453150E-002  0.1741833E+03  0.7818608E-02  0.1173730E+00
         21   -1    0    0  501  502  0.00000000000E+00  0.00000000000E+00  0.56694818187E+02  0.56694818187E+02  0.00000000000E+00 0.  1.
         21   -1    0    0  502  503 -0.00000000000E+00 -0.00000000000E+00 -0.10506215032E+04  0.10506215032E+04  0.00000000000E+00 0.  1.
         -6    2    1    2    0  503  0.78348658058E+01  0.26033211925E+02 -0.88608258145E+03  0.90304051482E+03  0.17204858911E+03 0.  0.
        -24    2    3    3    0    0  0.35154894030E+02  0.29818912782E+01 -0.22996518214E+03  0.24593330971E+03  0.79714801515E+02 0.  0.
          6    2    1    2  501    0 -0.78348658058E+01 -0.26033211925E+02 -0.10784410361E+03  0.20427580662E+03  0.17134509400E+03 0.  0.
         24    2    5    5    0    0 -0.30169219392E+02 -0.54535370940E+02 -0.12045057801E+02  0.10175388897E+03  0.79526612034E+02 0.  0.
          5    1    5    5  501    0  0.22334353586E+02  0.28502159015E+02 -0.95799045813E+02  0.10252191764E+03  0.47000000000E+01 0. -1.
        -11    1    6    6    0    0 -0.17807434607E+02 -0.66755664364E+02 -0.31269035394E+02  0.75836508533E+02  0.00000000000E+00 0.  1.
         12    1    6    6    0    0 -0.12361784785E+02  0.12220293424E+02  0.19223977593E+02  0.25917380441E+02  0.00000000000E+00 0. -1.
         -5    1    3    3    0  503 -0.27320028224E+02  0.23051320647E+02 -0.65611739931E+03  0.65710720511E+03  0.47000000000E+01 0.  1.
         13    1    4    4    0    0  0.21310019585E+02  0.23494401519E+02 -0.27556738409E+02  0.42017587618E+02  0.00000000000E+00 0. -1.
        -14    1    4    4    0    0  0.13844874445E+02 -0.20512510241E+02 -0.20240844373E+03  0.20391572209E+03  0.00000000000E+00 0.  1.
</event>
<event>
12    1  0.8453150E-002  0.1939351E+03  0.7818608E-02  0.1156127E+00
         21   -1    0    0  501  502  0.00000000000E+00  0.00000000000E+00  0.12014814135E+04  0.12014814135E+04  0.00000000000E+00 0.  1.
         21   -1    0    0  502  503 -0.00000000000E+00 -0.00000000000E+00 -0.33901814249E+02  0.33901814249E+02  0.00000000000E+00 0.  1.
         -6    2    1    2    0  503  0.82530192637E+02 -0.36097851503E+02  0.77330346315E+03  0.79599217805E+03  0.16580414297E+03 0.  0.
        -24    2    3    3    0    0  0.59766676967E+01  0.45445288605E+02  0.29174884851E+03  0.30159692852E+03  0.61174519817E+02 0.  0.
          6    2    1    2  501    0 -0.82530192637E+02  0.36097851503E+02  0.39427613610E+03  0.43939104969E+03  0.17174555444E+03 0.  0.
         24    2    5    5    0    0 -0.51375094761E+02 -0.32327079530E+02  0.31225477507E+03  0.32802586224E+03  0.80084213879E+02 0.  0.
          5    1    5    5  501    0 -0.31155097876E+02  0.68424931033E+02  0.82021361029E+02  0.11136518745E+03  0.47000000000E+01 0. -1.
        -13    1    6    6    0    0 -0.53736151597E+02 -0.18221793479E+02  0.97601456372E+02  0.11289664314E+03  0.00000000000E+00 0.  1.
         14    1    6    6    0    0  0.23610568356E+01 -0.14105286052E+02  0.21465331869E+03  0.21512921910E+03  0.00000000000E+00 0. -1.
         -5    1    3    3    0  503  0.76553524941E+02 -0.81543140108E+02  0.48155461464E+03  0.49439524953E+03  0.47000000000E+01 0.  1.
         13    1    4    4    0    0 -0.22542504719E+02  0.28801936357E+01  0.12858212336E+03  0.13057496882E+03  0.00000000000E+00 0. -1.
        -14    1    4    4    0    0  0.28519172415E+02  0.42565094969E+02  0.16316672515E+03  0.17102195971E+03  0.00000000000E+00 0.  1.
</event>
<event>
12    1  0.8453150E-002  0.1959772E+03  0.7818608E-02  0.1153472E+00
         21   -1    0    0  501  502  0.00000000000E+00  0.00000000000E+00  0.69260490317E+03  0.69260490317E+03  0.00000000000E+00 0. -1.
         21   -1    0    0  502  503 -0.00000000000E+00 -0.00000000000E+00 -0.13196188956E+03  0.13196188956E+03  0.00000000000E+00 0. -1.
         -6    2    1    2    0  503 -0.47968175618E+02 -0.78542011994E+02 -0.33981442967E+02  0.19890144195E+03  0.17302384698E+03 0.  0.
        -24    2    3    3    0    0 -0.44492471786E+02 -0.76508121768E+02 -0.86427456541E+02  0.14609148487E+03  0.77717076411E+02 0.  0.
          6    2    1    2  501    0  0.47968175618E+02  0.78542011994E+02  0.59462445658E+03  0.62566535078E+03  0.17149079650E+03 0.  0.
         24    2    5    5    0    0  0.69858143871E+02  0.10797257140E+03  0.41037460179E+03  0.43774135676E+03  0.81681975904E+02 0.  0.
          5    1    5    5  501    0 -0.21889968253E+02 -0.29430559404E+02  0.18424985479E+03  0.18792399401E+03  0.47000000000E+01 0. -1.
        -11    1    6    6    0    0  0.87853990192E+01  0.72728847029E+02  0.13627822962E+03  0.15472047148E+03  0.00000000000E+00 0.  1.
         12    1    6    6    0    0  0.61072744852E+02  0.35243724369E+02  0.27409637216E+03  0.28302088528E+03  0.00000000000E+00 0. -1.
         -5    1    3    3    0  503 -0.34757038321E+01 -0.20338902260E+01  0.52446013574E+02  0.52809957076E+02  0.47000000000E+01 0.  1.
         13    1    4    4    0    0 -0.43559963831E+02 -0.80606297120E+02 -0.40844368035E+02  0.10031504366E+03  0.00000000000E+00 0. -1.
        -14    1    4    4    0    0 -0.93250795493E+00  0.40981753522E+01 -0.45583088506E+02  0.45776441212E+02  0.00000000000E+00 0.  1.
</event>
<event>
12    1  0.8453150E-002  0.2882990E+03  0.7818608E-02  0.1092708E+00
         21   -1    0    0  501  502  0.00000000000E+00  0.00000000000E+00  0.27371179064E+03  0.27371179064E+03  0.00000000000E+00 0. -1.
         21   -1    0    0  502  503 -0.00000000000E+00 -0.00000000000E+00 -0.33466497303E+03  0.33466497303E+03  0.00000000000E+00 0.  1.
         -6    2    1    2    0  503  0.14122963634E+03 -0.16311075675E+03 -0.13924732423E+03  0.32016582893E+03  0.19122084499E+03 0.  0.
        -24    2    3    3    0    0  0.24467302117E+02  0.81961471755E+01 -0.42548370324E+02  0.91359632087E+02  0.76618488998E+02 0.  0.
          6    2    1    2  501    0 -0.14122963634E+03  0.16311075675E+03  0.78294141850E+02  0.28821093474E+03  0.17431190754E+03 0.  0.
         24    2    5    5    0    0 -0.14484599479E+03  0.11905307874E+03  0.11132264819E+03  0.23282926566E+03  0.81625591468E+02 0.  0.
          5    1    5    5  501    0  0.36163584514E+01  0.44057678012E+02 -0.33028506336E+02  0.55381669089E+02  0.47000000000E+01 0. -1.
        -13    1    6    6    0    0 -0.94119566110E+02  0.33379722958E+02  0.29995004462E+02  0.10427079611E+03  0.00000000000E+00 0.  1.
         14    1    6    6    0    0 -0.50726428683E+02  0.85673355779E+02  0.81327643725E+02  0.12855846954E+03  0.00000000000E+00 0. -1.
         -5    1    3    3    0  503  0.11676233423E+03 -0.17130690392E+03 -0.96698953910E+02  0.22880619684E+03  0.47000000000E+01 0.  1.
         13    1    4    4    0    0  0.10774453005E+02 -0.79112155823E+01  0.20717235804E+02  0.24655223157E+02  0.00000000000E+00 0. -1.
        -14    1    4    4    0    0  0.13692849111E+02  0.16107362758E+02 -0.63265606129E+02  0.66704408930E+02  0.00000000000E+00 0.  1.
</event>
<event>
12    1  0.8453150E-002  0.2610279E+03  0.7818608E-02  0.1106586E+00
         21   -1    0    0  501  502  0.00000000000E+00  0.00000000000E+00  0.12067197022E+04  0.12067197022E+04  0.00000000000E+00 0.  1.
         21   -1    0    0  502  503 -0.00000000000E+00 -0.00000000000E+00 -0.92872349424E+02  0.92872349424E+02  0.00000000000E+00 0. -1.
         -6    2    1    2    0  503 -0.60069062465E+02 -0.18628811005E+03  0.14985110188E+03  0.30098326134E+03  0.17269631918E+03 0.  0.
        -24    2    3    3    0    0 -0.17224689227E+02 -0.19342136577E+03  0.91922727029E+02  0.22842769458E+03  0.77594518177E+02 0.  0.
          6    2    1    2  501    0  0.60069062465E+02  0.18628811005E+03  0.96399625087E+03  0.99860879026E+03  0.17210227215E+03 0.  0.
         24    2    5    5    0    0  0.98838953477E+02  0.16680745516E+03  0.67318799286E+03  0.70454394487E+03  0.74874766833E+02 0.  0.
          5    1    5    5  501    0 -0.38769891012E+02  0.19480654891E+02  0.29080825801E+03  0.29406484539E+03  0.47000000000E+01 0. -1.
        -13    1    6    6    0    0  0.64158694612E+02  0.87184444787E+02  0.24828058161E+03  0.27085182797E+03  0.00000000000E+00 0.  1.
         14    1    6    6    0    0  0.34680258865E+02  0.79623010376E+02  0.42490741124E+03  0.43369211691E+03  0.00000000000E+00 0. -1.
         -5    1    3    3    0  503 -0.42844373238E+02  0.71332557116E+01  0.57928374850E+02  0.72555566761E+02  0.47000000000E+01 0.  1.
         13    1    4    4    0    0 -0.23380716996E+02 -0.14804098476E+03  0.32420310654E+02  0.15334232175E+03  0.00000000000E+00 0. -1.
        -14    1    4    4    0    0  0.61560277691E+01 -0.45380381002E+02  0.59502416375E+02  0.75085372825E+02  0.00000000000E+00 0.  1.
</event>
<event>
12    1  0.8453150E-002  0.2005558E+03  0.7818608E-02  0.1149381E+00
         21   -1    0    0  503  502  0.00000000000E+00  0.00000000000E+00  0.12878433926E+04  0.12878433926E+04  0.00000000000E+00 0. -1.
         21   -1    0    0  501  503 -0.00000000000E+00 -0.00000000000E+00 -0.44733296787E+02  0.44733296787E+02  0.00000000000E+00 0. -1.
          6    2    1    2  501    0  0.61898593831E+02  0.83413263099E+02  0.25498070804E+03  0.32440374635E+03  0.17156171133E+03 0.  0.
         24    2    3    3    0    0  0.10246293564E+03  0.54337416150E+02  0.14008830607E+03  0.19905134417E+03  0.80904240572E+02 0.  0.
         -6    2    1    2    0  502 -0.61898593831E+02 -0.83413263099E+02  0.98812938779E+03  0.10081729431E+04  0.17094966427E+03 0.  0.
        -24    2    5    5    0    0 -0.10150996425E+03 -0.73933319953E+02  0.88119917268E+03  0.89365180574E+03  0.79568582558E+02 0.  0.
          5    1    3    3  501    0 -0.40564341813E+02  0.29075846949E+02  0.11489240197E+03  0.12535240218E+03  0.47000000000E+01 0. -1.
        -13    1    4    4    0    0  0.59108293893E+02 -0.65870543836E+01  0.93932363723E+02  0.11117764455E+03  0.00000000000E+00 0.  1.
         14    1    4    4    0    0  0.43354641751E+02  0.60924470533E+02  0.46155942351E+02  0.87873699623E+02  0.00000000000E+00 0. -1.
         -5    1    5    5    0  502  0.39611370417E+02 -0.94799431453E+01  0.10693021511E+03  0.11452113731E+03  0.47000000000E+01 0.  1.
         13    1    6    6    0    0 -0.37201549620E+02 -0.16077221176E+02  0.10342221952E+03  0.11107919618E+03  0.00000000000E+00 0. -1.
        -14    1    6    6    0    0 -0.64308414628E+02 -0.57856098777E+02  0.77777695317E+03  0.78257260956E+03  0.00000000000E+00 0.  1.
</event>
<event>
12    1  0.8453150E-002  0.1853488E+03  0.7818608E-02  0.1162875E+00
         21   -1    0    0  501  502  0.00000000000E+00  0.00000000000E+00  0.49276988757E+03  0.49276988757E+03  0.00000000000E+00 0. -1.
         21   -1    0    0  502  503 -0.00000000000E+00 -0.00000000000E+00 -0.11716123688E+03  0.11716123688E+03  0.00000000000E+00 0. -1.
         -6    2    1    2    0  503 -0.60392345483E+02 -0.34321850258E+02 -0.65631320828E+01  0.18546494036E+03  0.17183988071E+03 0.  0.
        -24    2    3    3    0    0 -0.99872424521E+02 -0.56614940973E+02 -0.13985169238E+02  0.13928231191E+03  0.77615879383E+02 0.  0.
          6    2    1    2  501    0  0.60392345483E+02  0.34321850258E+02  0.38217178278E+03  0.42446618409E+03  0.17114626811E+03 0.  0.
         24    2    5    5    0    0 -0.47204322598E+01  0.20022522895E+02  0.81968648499E+02  0.11691430811E+03  0.80789307462E+02 0.  0.
          5    1    5    5  501    0  0.65112777743E+02  0.14299327363E+02  0.30020313428E+03  0.30755187598E+03  0.47000000000E+01 0. -1.
        -11    1    6    6    0    0 -0.13248325608E+02 -0.27861695610E+02  0.49863981804E+02  0.58636242164E+02  0.00000000000E+00 0.  1.
         12    1    6    6    0    0  0.85278933482E+01  0.47884218505E+02  0.32104666695E+02  0.58278065946E+02  0.00000000000E+00 0. -1.
         -5    1    3    3    0  503  0.39480079037E+02  0.22293090716E+02  0.74220371549E+01  0.46182628444E+02  0.47000000000E+01 0.  1.
         11    1    4    4    0    0 -0.10386133584E+03 -0.30631309685E+02  0.23913456484E+01  0.10831053850E+03  0.00000000000E+00 0. -1.
        -12    1    4    4    0    0  0.39889113241E+01 -0.25983631288E+02 -0.16376514886E+02  0.30971773412E+02  0.00000000000E+00 0.  1.
</event>
<event>
12    1  0.8453150E-002  0.2133820E+03  0.7818608E-02  0.1138967E+00
         21   -1    0    0  503  502  0.00000000000E+00  0.00000000000E+00  0.11408535498E+04  0.11408535498E+04  0.00000000000E+00 0.  1.
         21   -1    0    0  501  503 -0.00000000000E+00 -0.00000000000E+00 -0.40461885057E+02  0.40461885057E+02  0.00000000000E+00 0.  1.
          6    2    1    2  501    0  0.17908969647E+02 -0.12492618907E+03  0.47785998837E+03  0.52322914625E+03  0.17173027423E+03 0.  0.
         24    2    3    3    0    0  0.53791876128E+02 -0.12564629772E+03  0.45340734872E+03  0.47954707761E+03  0.75542158488E+02 0.  0.
         -6    2    1    2    0  502 -0.17908969647E+02  0.12492618907E+03  0.62253167635E+03  0.65808628859E+03  0.17205984789E+03 0.  0.
        -24    2    5    5    0    0  0.65008386866E+01  0.22084166691E+02  0.13068818554E+03  0.15499143693E+03  0.80081036209E+02 0.  0.
          5    1    3    3  501    0 -0.35882906481E+02  0.72010864749E+00  0.24452639652E+02  0.43682068631E+02  0.47000000000E+01 0. -1.
        -11    1    4    4    0    0 -0.15719235518E+02 -0.44689977857E+02  0.10559278462E+03  0.11573298860E+03  0.00000000000E+00 0.  1.
         12    1    4    4    0    0  0.69511111646E+02 -0.80956319864E+02  0.34781456409E+03  0.36381408901E+03  0.00000000000E+00 0. -1.
         -5    1    5    5    0  502 -0.24409808334E+02  0.10284202238E+03  0.49184349081E+03  0.50309485166E+03  0.47000000000E+01 0.  1.
         11    1    6    6    0    0 -0.20372575016E+02 -0.12754511988E+02  0.91232562992E+01  0.25709009984E+02  0.00000000000E+00 0. -1.
        -12    1    6    6    0    0  0.26873413703E+02  0.34838678679E+02  0.12156492924E+03  0.12928242695E+03  0.00000000000E+00 0.  1.
</event>
<event>
12    1  0.8453150E-002  0.2351523E+03  0.7818608E-02  0.1123146E+00
         21   -1    0    0  503  502  0.00000000000E+00  0.00000000000E+00  0.36383878711E+02  0.36383878711E+02  0.00000000000E+00 0.  1.
         21   -1    0    0  501  503 -0.00000000000E+00 -0.00000000000E+00 -0.19483912668E+04  0.19483912668E+04  0.00000000000E+00 0. -1.
          6    2    1    2  501    0  0.14229560651E+03  0.72988418775E+02 -0.14238374957E+04  0.14431250147E+04  0.17239850674E+03 0.  0.
         24    2    3    3    0    0  0.54423752556E+02 -0.21469955539E+02 -0.49020457313E+03  0.50060903542E+03  0.82981799138E+02 0.  0.
         -6    2    1    2    0  502 -0.14229560651E+03 -0.72988418775E+02 -0.48816989244E+03  0.54165013082E+03  0.17175468383E+03 0.  0.
        -24    2    5    5    0    0 -0.17021082972E+03 -0.53624902591E+02 -0.36935992007E+03  0.41798887989E+03  0.80253326574E+02 0.  0.
          5    1    3    3  501    0  0.87871853955E+02  0.94458374314E+02 -0.93363292253E+03  0.94251597930E+03  0.47000000000E+01 0. -1.
        -11    1    4    4    0    0 -0.19882862666E+02 -0.20661716236E+01 -0.51697556234E+02  0.55427742273E+02  0.00000000000E+00 0.  1.
         12    1    4    4    0    0  0.74306615222E+02 -0.19403783916E+02 -0.43850701690E+03  0.44518129314E+03  0.00000000000E+00 0. -1.
         -5    1    5    5    0  502  0.27915223205E+02 -0.19363516184E+02 -0.11880997237E+03  0.12366125092E+03  0.47000000000E+01 0.  1.
         13    1    6    6    0    0 -0.10828587141E+03 -0.69577329534E+02 -0.27934727795E+03  0.30757395278E+03  0.00000000000E+00 0. -1.
        -14    1    6    6    0    0 -0.61924958308E+02  0.15952426943E+02 -0.90012642128E+02  0.11041492711E+03  0.00000000000E+00 0.  1.
</event>
<event>
12    1  0.8453150E-002  0.1874968E+03  0.7818608E-02  0.1160952E+00
         21   -1    0    0  501  502  0.00000000000E+00  0.00000000000E+00  0.31743241263E+03  0.31743241263E+03  0.00000000000E+00 0. -1.
         21   -1    0    0  502  503 -0.00000000000E+00 -0.00000000000E+00 -0.32900699598E+03  0.32900699598E+03  0.00000000000E+00 0. -1.
         -6    2    1    2    0  503 -0.79765720524E+01 -0.75715550393E+02 -0.26937874640E+03  0.32820718813E+03  0.17134345349E+03 0.  0.
        -24    2    3    3    0    0 -0.39044630617E+02 -0.67164639083E+02 -0.81513089566E+02  0.13754010297E+03  0.78976732207E+02 0.  0.
          6    2    1    2  501    0  0.79765720524E+01  0.75715550393E+02  0.25780416305E+03  0.31823222048E+03  0.17032994274E+03 0.  0.
         24    2    5    5    0    0 -0.47317946235E+01  0.10961334528E+03  0.24741812145E+03  0.28027799883E+03  0.72818640895E+02 0.  0.
          5    1    5    5  501    0  0.12708366676E+02 -0.33897794883E+02  0.10386041601E+02  0.37954221658E+02  0.47000000000E+01 0. -1.
        -13    1    6    6    0    0 -0.54164403242E+01 -0.29472601581E+01 -0.21251179322E+01  0.65222921164E+01  0.00000000000E+00 0.  1.
         14    1    6    6    0    0  0.68464570068E+00  0.11256060543E+03  0.24954323938E+03  0.27375570671E+03  0.00000000000E+00 0. -1.
         -5    1    3    3    0  503  0.31068058564E+02 -0.85509113101E+01 -0.18786565684E+03  0.19066708517E+03  0.47000000000E+01 0.  1.
         11    1    4    4    0    0 -0.72121163397E+01 -0.71477101746E+02 -0.32291778891E+02  0.78763885633E+02  0.00000000000E+00 0. -1.
        -12    1    4    4    0    0 -0.31832514277E+02  0.43124626625E+01 -0.49221310675E+02  0.58776217333E+02  0.00000000000E+00 0.  1.
</event>
<event>
12    1  0.8453150E-002  0.2066133E+03  0.7818608E-02  0.1144652E+00
         21   -1    0    0  501  502  0.00000000000E+00  0.00000000000E+00  0.35117946641E+03  0.35117946641E+03  0.00000000000E+00 0. -1.
         21   -1    0    0  502  503 -0.00000000000E+00 -0.00000000000E+00 -0.19679793583E+03  0.19679793583E+03  0.00000000000E+00 0.  1.
         -6    2    1    2    0  503 -0.15672263764E+02 -0.11257809798E+03 -0.93650908546E+02  0.22516300055E+03  0.17031863124E+03 0.  0.
        -24    2    3    3    0    0  0.91716237283E+01 -0.13304826629E+03 -0.35782295962E+02  0.15877691120E+03  0.78382236387E+02 0.  0.
          6    2    1    2  501    0  0.15672263764E+02  0.11257809798E+03  0.24803243913E+03  0.32281440169E+03  0.17253868866E+03 0.  0.
         24    2    5    5    0    0  0.61265869739E+02  0.71078761194E+02  0.87382978382E+02  0.15067692438E+03  0.79133138068E+02 0.  0.
          5    1    5    5  501    0 -0.45593605974E+02  0.41499336785E+02  0.16064946074E+03  0.17213747732E+03  0.47000000000E+01 0. -1.
        -11    1    6    6    0    0  0.45691346763E+02  0.15726205787E+02  0.28050894425E+01  0.48403318526E+02  0.00000000000E+00 0.  1.
         12    1    6    6    0    0  0.15574522975E+02  0.55352555406E+02  0.84577888940E+02  0.10227360585E+03  0.00000000000E+00 0. -1.
         -5    1    3    3    0  503 -0.24843887493E+02  0.20470168311E+02 -0.57868612584E+02  0.66386089347E+02  0.47000000000E+01 0.  1.
         11    1    4    4    0    0 -0.90783586121E+01  0.55892288890E+01 -0.13463724444E+02  0.17173466469E+02  0.00000000000E+00 0. -1.
        -12    1    4    4    0    0  0.18249982340E+02 -0.13863749518E+03 -0.22318571518E+02  0.14160344473E+03  0.00000000000E+00 0.  1.
</event>
<event>
12    1  0.8453150E-002  0.4673763E+03  0.7818608E-02  0.1022682E+00
         21   -1    0    0  503  502  0.00000000000E+00  0.00000000000E+00  0.46180252416E+03  0.46180252416E+03  0.00000000000E+00 0. -1.
         21   -1    0    0  501  503 -0.00000000000E+00 -0.00000000000E+00 -0.62065540401E+03  0.62065540401E+03  0.00000000000E+00 0.  1.
          6    2    1    2  501    0 -0.69090456226E+02  0.42911273678E+03 -0.34365151828E+03  0.58011808126E+03  0.17184117718E+03 0.  0.
         24    2    3    3    0    0 -0.31931273425E+02  0.41749208636E+03 -0.30131290170E+03  0.52240765901E+03  0.82468473122E+02 0.  0.
         -6    2    1    2    0  502  0.69090456226E+02 -0.42911273678E+03  0.18479863843E+03  0.50233984691E+03  0.17112437878E+03 0.  0.
        -24    2    5    5    0    0  0.11005007390E+03 -0.33347073668E+03  0.16575863575E+03  0.39646400375E+03  0.79962678490E+02 0.  0.
          5    1    3    3  501    0 -0.37159182801E+02  0.11620650420E+02 -0.42338616581E+02  0.57710422253E+02  0.47000000000E+01 0. -1.
        -13    1    4    4    0    0  0.25480157999E+02  0.20615846370E+03 -0.15004052906E+03  0.25624736285E+03  0.00000000000E+00 0.  1.
         14    1    4    4    0    0 -0.57411431424E+02  0.21133362267E+03 -0.15127237264E+03  0.26616029616E+03  0.00000000000E+00 0. -1.
         -5    1    5    5    0  502 -0.40959617672E+02 -0.95642000098E+02  0.19040002677E+02  0.10587584316E+03  0.47000000000E+01 0.  1.
         11    1    6    6    0    0  0.51851485437E+02 -0.16410860858E+03  0.12525191795E+03  0.21285735811E+03  0.00000000000E+00 0. -1.
        -12    1    6    6    0    0  0.58198588462E+02 -0.16936212811E+03  0.40506717806E+02  0.18360664564E+03  0.00000000000E+00 0.  1.
</event>
<event>
12    1  0.8453150E-002  0.2094034E+03  0.7818608E-02  0.1142906E+00
         21   -1    0    0  501  502  0.00000000000E+00  0.00000000000E+00  0.30465362147E+03  0.30465362147E+03  0.00000000000E+00 0.  1.
         21   -1    0    0  502  503 -0.00000000000E+00 -0.00000000000E+00 -0.28432969254E+03  0.28432969254E+03  0.00000000000E+00 0.  1.
         -6    2    1    2    0  503 -0.11096412648E+03  0.39794652328E+02 -0.19898520616E+03  0.28575688453E+03  0.16782500728E+03 0.  0.
        -24    2    3    3    0    0  0.44745505065E+01  0.40379118782E+02 -0.95568010852E+02  0.13069677996E+03  0.79359364650E+02 0.  0.
          6    2    1    2  501    0  0.11096412648E+03 -0.39794652328E+02  0.21930913509E+03  0.30322642947E+03  0.17306969428E+03 0.  0.
         24    2    5    5    0    0  0.47778394741E+02 -0.34542070687E+02  0.29443460087E+02  0.10299883184E+03  0.79157516177E+02 0.  0.
          5    1    5    5  501    0  0.63185731736E+02 -0.52525816412E+01  0.18986567500E+03  0.20022759763E+03  0.47000000000E+01 0. -1.
        -13    1    6    6    0    0 -0.85627800683E+01 -0.41096424702E+02  0.12342212547E+02  0.43755771463E+02  0.00000000000E+00 0.  1.
         14    1    6    6    0    0  0.56341174810E+02  0.65543540154E+01  0.17101247539E+02  0.59243060378E+02  0.00000000000E+00 0. -1.
         -5    1    3    3    0  503 -0.11543867698E+03 -0.58446645410E+00 -0.10341719531E+03  0.15506010457E+03  0.47000000000E+01 0.  1.
         13    1    4    4    0    0 -0.48306170993E+01  0.47656016753E+02 -0.16366346331E+02  0.50619048653E+02  0.00000000000E+00 0. -1.
        -14    1    4    4    0    0  0.93051676058E+01 -0.72768979711E+01 -0.79201664521E+02  0.80077731306E+02  0.00000000000E+00 0.  1.
</event>
<event>
12    1  0.8453150E-002  0.1748461E+03  0.7818608E-02  0.1173531E+00
         21   -1    0    0  501  502  0.00000000000E+00  0.00000000000E+00  0.37238674244E+03  0.37238674244E+03  0.00000000000E+00 0.  1.
         21   -1    0    0  502  503 -0.00000000000E+00 -0.00000000000E+00 -0.36128851684E+03  0.36128851684E+03  0.00000000000E+00 0.  1.
         -6    2    1    2    0  503  0.17144989370E+00 -0.72817676425E+01 -0.31760383048E+03  0.36255117446E+03  0.17469432571E+03 0.  0.
        -24    2    3    3    0    0 -0.36422898018E+02  0.38244057514E+02 -0.27273143307E+03  0.28874487999E+03  0.78752369485E+02 0.  0.
          6    2    1    2  501    0 -0.17144989370E+00  0.72817676425E+01  0.32870205608E+03  0.37112408482E+03  0.17214816621E+03 0.  0.
         24    2    5    5    0    0  0.20426609860E+02  0.33666106998E+02  0.76604529195E+02  0.11677065652E+03  0.78844652195E+02 0.  0.
          5    1    5    5  501    0 -0.20598059754E+02 -0.26384339356E+02  0.25209752689E+03  0.25435342831E+03  0.47000000000E+01 0. -1.
        -13    1    6    6    0    0 -0.24871950960E+02 -0.67110165925E+01  0.33858530811E+02  0.42544703512E+02  0.00000000000E+00 0.  1.
         14    1    6    6    0    0  0.45298560820E+02  0.40377123590E+02  0.42745998385E+02  0.74225953006E+02  0.00000000000E+00 0. -1.
         -5    1    3    3    0  503  0.36594347912E+02 -0.45525825156E+02 -0.44872397411E+02  0.73806294479E+02  0.47000000000E+01 0.  1.
         11    1    4    4    0    0 -0.24004722358E+02  0.29774309104E+02 -0.39329181591E+02  0.54859098632E+02  0.00000000000E+00 0. -1.
        -12    1    4    4    0    0 -0.12418175660E+02  0.84697484099E+01 -0.23340225148E+03  0.23388578135E+03  0.00000000000E+00 0.  1.
</event>
<event>
12    1  0.8453150E-002  0.1870971E+03  0.7818608E-02  0.1161319E+00
         21   -1    0    0  501  502  0.00000000000E+00  0.00000000000E+00  0.24276296279E+03  0.24276296279E+03  0.00000000000E+00 0. -1.
         21   -1    0    0  502  503 -0.00000000000E+00 -0.00000000000E+00 -0.58378653361E+03  0.58378653361E+03  0.00000000000E+00 0. -1.
         -6    2    1    2    0  503 -0.36295652526E+01 -0.70571552411E+02 -0.52952607257E+03  0.56160768667E+03  0.17323918275E+03 0.  0.
        -24    2    3    3    0    0 -0.39813113408E+02 -0.13290594364E+02 -0.13911349034E+03  0.16533198508E+03  0.78869374258E+02 0.  0.
          6    2    1    2  501    0  0.36295652526E+01  0.70571552411E+02  0.18850250175E+03  0.26494180973E+03  0.17224242108E+03 0.  0.
         24    2    5    5    0    0  0.50069105247E+02  0.90357677854E+02  0.13395373689E+03  0.19047181991E+03  0.87547046249E+02 0.  0.
          5    1    5    5  501    0 -0.46439539994E+02 -0.19786125443E+02  0.54548764863E+02  0.74469989815E+02  0.47000000000E+01 0. -1.
        -13    1    6    6    0    0  0.26820254252E+02  0.10420783228E+03  0.11461307693E+03  0.15720927374E+03  0.00000000000E+00 0.  1.
         14    1    6    6    0    0  0.23248850995E+02 -0.13850154427E+02  0.19340659965E+02  0.33262546176E+02  0.00000000000E+00 0. -1.
         -5    1    3    3    0  503  0.36183548156E+02 -0.57280958047E+02 -0.39041258222E+03  0.39627570159E+03  0.47000000000E+01 0.  1.
         13    1    4    4    0    0  0.16659152727E+02  0.23573077864E+01 -0.81265759304E+02  0.82989203544E+02  0.00000000000E+00 0. -1.
        -14    1    4    4    0    0 -0.56472266135E+02 -0.15647902151E+02 -0.57847731040E+02  0.82342781533E+02  0.00000000000E+00 0.  1.
</event>
<event>
12    1  0.8453150E-002  0.1958497E+03  0.7818608E-02  0.1153617E+00
         21   -1    0    0  501  502  0.00000000000E+00  0.00000000000E+00  0.84087643833E+02  0.84087643833E+02  0.00000000000E+00 0. -1.
         21   -1    0    0  502  503 -0.00000000000E+00 -0.00000000000E+00 -0.47693725549E+03  0.47693725549E+03  0.00000000000E+00 0. -1.
         -6    2    1    2    0  503  0.29486734152E+02 -0.88195926593E+02 -0.13383888225E+03  0.23721286813E+03  0.17236330656E+03 0.  0.
        -24    2    3    3    0    0 -0.41803997197E+02 -0.44589564268E+02 -0.12203042677E+03  0.15268232435E+03  0.68444603054E+02 0.  0.
          6    2    1    2  501    0 -0.29486734152E+02  0.88195926593E+02 -0.25901072941E+03  0.32381203119E+03  0.17064490803E+03 0.  0.
         24    2    5    5    0    0  0.25088706070E+02 -0.13188136858E+01 -0.77352237663E+02  0.11401864468E+03  0.79910576401E+02 0.  0.
          5    1    5    5  501    0 -0.54575440221E+02  0.89514740278E+02 -0.18165849175E+03  0.20979338652E+03  0.47000000000E+01 0. -1.
        -11    1    6    6    0    0  0.30348078443E+02 -0.21513783118E+02 -0.84203032561E+02  0.92054328642E+02  0.00000000000E+00 0.  1.
         12    1    6    6    0    0 -0.52593723738E+01  0.20194969433E+02  0.68507948979E+01  0.21964316035E+02  0.00000000000E+00 0. -1.
         -5    1    3    3    0  503  0.71290731349E+02 -0.43606362324E+02 -0.11808455477E+02  0.84530543783E+02  0.47000000000E+01 0.  1.
         13    1    4    4    0    0 -0.10626506752E+02 -0.24891974220E+02 -0.11090844991E+03  0.11416311702E+03  0.00000000000E+00 0. -1.
        -14    1    4    4    0    0 -0.31177490446E+02 -0.19697590048E+02 -0.11121976868E+02  0.38519207334E+02  0.00000000000E+00 0.  1.
</event>
<event>
12    1  0.8453150E-002  0.1811206E+03  0.7818608E-02  0.1168327E+00
         21   -1    0    0  503  502  0.00000000000E+00  0.00000000000E+00  0.22335428724E+03  0.22335428724E+03  0.00000000000E+00 0.  1.
         21   -1    0    0  501  503 -0.00000000000E+00 -0.00000000000E+00 -0.29374180088E+03  0.29374180088E+03  0.00000000000E+00 0.  1.
          6    2    1    2  501    0  0.30655692770E+01 -0.54843069990E+02 -0.22093449330E+03  0.28157740527E+03  0.16570040672E+03 0.  0.
         24    2    3    3    0    0 -0.13349092734E+01  0.20465787381E+02 -0.17548636368E+03  0.19338210666E+03  0.78616441688E+02 0.  0.
         -6    2    1    2    0  502 -0.30655692770E+01  0.54843069990E+02  0.15054697966E+03  0.23551868285E+03  0.17259054680E+03 0.  0.
        -24    2    5    5    0    0  0.81674045187E+01  0.10304636940E+03  0.97663040500E+02  0.16293398201E+03  0.79524538813E+02 0.  0.
          5    1    3    3  501    0  0.44004785503E+01 -0.75308857370E+02 -0.45448129621E+02  0.88195298605E+02  0.47000000000E+01 0. -1.
        -11    1    4    4    0    0 -0.46566910847E+01  0.11496929546E+02 -0.18160501220E+03  0.18202814238E+03  0.00000000000E+00 0.  1.
         12    1    4    4    0    0  0.33217818113E+01  0.89688578345E+01  0.61186485210E+01  0.11353964285E+02  0.00000000000E+00 0. -1.
         -5    1    5    5    0  502 -0.11232973796E+02 -0.48203299405E+02  0.52883939159E+02  0.72584700832E+02  0.47000000000E+01 0.  1.
         11    1    6    6    0    0 -0.34060321749E+02  0.27216719156E+02  0.31107389743E+02  0.53558612900E+02  0.00000000000E+00 0. -1.
        -12    1    6    6    0    0  0.42227726267E+02  0.75829650240E+02  0.66555650757E+02  0.10937536911E+03  0.00000000000E+00 0.  1.
</event>
<event>
12    1  0.8453150E-002  0.2465475E+03  0.7818608E-02  0.1115750E+00
         21   -1    0    0  503  502  0.00000000000E+00  0.00000000000E+00  0.12608630923E+03  0.12608630923E+03  0.00000000000E+00 0. -1.
         21   -1    0    0  501  503 -0.00000000000E+00 -0.00000000000E+00 -0.51096151225E+03  0.51096151225E+03  0.00000000000E+00 0.  1.
          6    2    1    2  501    0 -0.34593477424E+02  0.17385968330E+03 -0.11351592521E+03  0.27142498653E+03  0.17135273526E+03 0.  0.
         24    2    3    3    0    0  0.16848652125E+02  0.61797244458E+02 -0.92753513919E+02  0.14629525141E+03  0.93254006554E+02 0.  0.
         -6    2    1    2    0  502  0.34593477424E+02 -0.17385968330E+03 -0.27135927781E+03  0.36562283495E+03  0.16917535762E+03 0.  0.
        -24    2    5    5    0    0 -0.14283921974E+02 -0.14849859794E+03 -0.13125720726E+03  0.21501451846E+03  0.82139665668E+02 0.  0.
          5    1    3    3  501    0 -0.51442129550E+02  0.11206243884E+03 -0.20762411293E+02  0.12512973513E+03  0.47000000000E+01 0. -1.
        -13    1    4    4    0    0  0.19898230715E+02  0.75468205177E+02 -0.10279074898E+03  0.12906326997E+03  0.00000000000E+00 0.  1.
         14    1    4    4    0    0 -0.30495785894E+01 -0.13670960719E+02  0.10037235064E+02  0.17231981438E+02  0.00000000000E+00 0. -1.
         -5    1    5    5    0  502  0.48877399398E+02 -0.25361085359E+02 -0.14010207055E+03  0.15060831648E+03  0.47000000000E+01 0.  1.
         13    1    6    6    0    0 -0.39092006130E+02 -0.46158686311E+02 -0.25104030205E+02  0.65490622212E+02  0.00000000000E+00 0. -1.
        -14    1    6    6    0    0  0.24808084156E+02 -0.10233991163E+03 -0.10615317706E+03  0.14952389625E+03  0.00000000000E+00 0.  1.
</event>
<event>
12    1  0.8453150E-002  0.2130658E+03  0.7818608E-02  0.1139369E+00
         21   -1    0    0  503  502  0.00000000000E+00  0.00000000000E+00  0.13686665074E+04  0.13686665074E+04  0.00000000000E+00 0. -1.
         21   -1    0    0  501  503 -0.00000000000E+00 -0.00000000000E+00 -0.87040169446E+02  0.87040169446E+02  0.00000000000E+00 0. -1.
          6    2    1    2  501    0 -0.85389979777E+02  0.88952060917E+02  0.66706873379E+02  0.22224556225E+03  0.17245105159E+03 0.  0.
         24    2    3    3    0    0 -0.82431557769E+02  0.51288400908E+02 -0.23446601394E+02  0.12438319686E+03  0.74134841736E+02 0.  0.
         -6    2    1    2    0  502  0.85389979777E+02 -0.88952060917E+02  0.12149194645E+04  0.12334611146E+04  0.17376161268E+03 0.  0.
        -24    2    5    5    0    0  0.13013596986E+02  0.67785928761E+00  0.28970508348E+03  0.30109015604E+03  0.80971806639E+02 0.  0.
          5    1    3    3  501    0 -0.29584220079E+01  0.37663660009E+02  0.90153474773E+02  0.97862365390E+02  0.47000000000E+01 0. -1.
        -13    1    4    4    0    0 -0.20315624042E+02 -0.14790811826E+02 -0.22434190115E+02  0.33686578645E+02  0.00000000000E+00 0.  1.
         14    1    4    4    0    0 -0.62115933728E+02  0.66079212734E+02 -0.10124112797E+01  0.90696618211E+02  0.00000000000E+00 0. -1.
         -5    1    5    5    0  502  0.72376382791E+02 -0.89629920204E+02  0.92521438105E+03  0.93237095852E+03  0.47000000000E+01 0.  1.
         11    1    6    6    0    0 -0.16525069032E+02 -0.31668665454E+02  0.16763158945E+03  0.17139525098E+03  0.00000000000E+00 0. -1.
        -12    1    6    6    0    0  0.29538666018E+02  0.32346524742E+02  0.12207349404E+03  0.12969490506E+03  0.00000000000E+00 0.  1.
</event>
<event>
12    1  0.8453150E-002  0.1976465E+03  0.7818608E-02  0.1152337E+00
         21   -1    0    0  503  502  0.00000000000E+00  0.00000000000E+00  0.44788893259E+02  0.44788893259E+02  0.00000000000E+00 0.  1.
         21   -1    0    0  501  503 -0.00000000000E+00 -0.00000000000E+00 -0.13135825333E+04  0.13135825333E+04  0.00000000000E+00 0.  1.
          6    2    1    2  501    0  0.50443995228E+02 -0.77673387687E+02 -0.10305588194E+04  0.10488234262E+04  0.17146821094E+03 0.  0.
         24    2    3    3    0    0 -0.29442591358E+02 -0.12169971750E+02 -0.33482856394E+03  0.34544924233E+03  0.78803790517E+02 0.  0.
         -6    2    1    2    0  502 -0.50443995228E+02  0.77673387687E+02 -0.23823482071E+03  0.30954800040E+03  0.17460350209E+03 0.  0.
        -24    2    5    5    0    0 -0.39284719702E+02 -0.16557990823E+02 -0.16722844705E+03  0.19093907482E+03  0.81700186828E+02 0.  0.
          5    1    3    3  501    0  0.79886586585E+02 -0.65503415937E+02 -0.69573025543E+03  0.70337418387E+03  0.47000000000E+01 0. -1.
        -11    1    4    4    0    0 -0.22283869347E+02 -0.10435365978E+02 -0.33690019664E+03  0.33779758761E+03  0.00000000000E+00 0.  1.
         12    1    4    4    0    0 -0.71587220102E+01 -0.17346057718E+01  0.20716327007E+01  0.76516547262E+01  0.00000000000E+00 0. -1.
         -5    1    5    5    0  502 -0.11159275526E+02  0.94231378510E+02 -0.71006373662E+02  0.11860892558E+03  0.47000000000E+01 0.  1.
         13    1    6    6    0    0 -0.13249577016E+00 -0.37305940112E+02 -0.33782513950E+02  0.50329007258E+02  0.00000000000E+00 0. -1.
        -14    1    6    6    0    0 -0.39152223932E+02  0.20747949290E+02 -0.13344593310E+03  0.14061006756E+03  0.00000000000E+00 0.  1.
</event>
<event>
12    1  0.8453150E-002  0.2818711E+03  0.7818608E-02  0.1094681E+00
         21   -1    0    0  503  502  0.00000000000E+00  0.00000000000E+00  0.39643420216E+03  0.39643420216E+03  0.00000000000E+00 0. -1.
         21   -1    0    0  501  503 -0.00000000000E+00 -0.00000000000E+00 -0.54525809863E+03  0.54525809863E+03  0.00000000000E+00 0.  1.
          6    2    1    2  501    0  0.64305741999E+02 -0.21342664960E+03 -0.44888769026E+03  0.53004854561E+03  0.17252576335E+03 0.  0.
         24    2    3    3    0    0  0.35378362816E+02 -0.79263131546E+02 -0.32461515170E+03  0.34483948351E+03  0.77491935682E+02 0.  0.
         -6    2    1    2    0  502 -0.64305741999E+02  0.21342664960E+03  0.30006379378E+03  0.41164375518E+03  0.17241269566E+03 0.  0.
        -24    2    5    5    0    0 -0.77863762934E+02  0.59153848999E+02  0.15188022833E+03  0.19725071423E+03  0.79235705826E+02 0.  0.
          5    1    3    3  501    0  0.28927379183E+02 -0.13416351806E+03 -0.12427253856E+03  0.18520906210E+03  0.47000000000E+01 0. -1.
        -11    1    4    4    0    0 -0.16440388735E+02 -0.29958047921E+02 -0.18324729517E+03  0.18640638992E+03  0.00000000000E+00 0.  1.
         12    1    4    4    0    0  0.51818751551E+02 -0.49305083624E+02 -0.14136785653E+03  0.15843309359E+03  0.00000000000E+00 0. -1.
         -5    1    5    5    0  502  0.13558020935E+02  0.15427280060E+03  0.14818356546E+03  0.21439304095E+03  0.47000000000E+01 0.  1.
         13    1    6    6    0    0 -0.76873946393E+01  0.26328691309E+02  0.10077120261E+03  0.10443721222E+03  0.00000000000E+00 0. -1.
        -14    1    6    6    0    0 -0.70176368295E+02  0.32825157690E+02  0.51109025721E+02  0.92813502005E+02  0.00000000000E+00 0.  1.
</event>
<event>
12    1  0.8453150E-002  0.2555999E+03  0.7818608E-02  0.1109922E+00
         21   -1    0    0  501  502  0.00000000000E+00  0.00000000000E+00  0.64776169830E+03  0.64776169830E+03  0.00000000000E+00 0.  1.
         21   -1    0    0  502  503 -0.00000000000E+00 -0.00000000000E+00 -0.46124620535E+03  0.46124620535E+03  0.00000000000E+00 0.  1.
         -6    2    1    2    0  503 -0.20720981961E+02 -0.18615744497E+03 -0.39704439151E+03  0.47220287992E+03  0.17391767470E+03 0.  0.
        -24    2    3    3    0    0 -0.49658850073E+02 -0.55641701123E+02 -0.25578710631E+03  0.27765861703E+03  0.78136186021E+02 0.  0.
          6    2    1    2  501    0  0.20720981961E+02  0.18615744497E+03  0.58355988445E+03  0.63680502372E+03  0.17290039353E+03 0.  0.
         24    2    5    5    0    0  0.79340118877E+02  0.10573803220E+03  0.32233321789E+03  0.35722507722E+03  0.78966236593E+02 0.  0.
          5    1    5    5  501    0 -0.58619136916E+02  0.80419412764E+02  0.26122666656E+03  0.27957994650E+03  0.47000000000E+01 0. -1.
        -13    1    6    6    0    0  0.22543657855E+02  0.70613287037E+02  0.24015589577E+03  0.25133504946E+03  0.00000000000E+00 0.  1.
         14    1    6    6    0    0  0.56796461022E+02  0.35124745165E+02  0.82177322125E+02  0.10589002776E+03  0.00000000000E+00 0. -1.
         -5    1    3    3    0  503  0.28937868113E+02 -0.13051574384E+03 -0.14125728520E+03  0.19454426289E+03  0.47000000000E+01 0.  1.
         13    1    4    4    0    0 -0.69335951196E+02 -0.50224404168E+02 -0.22482775140E+03  0.24057739441E+03  0.00000000000E+00 0. -1.
        -14    1    4    4    0    0  0.19677101123E+02 -0.54172969548E+01 -0.30959354908E+02  0.37081222623E+02  0.00000000000E+00 0.  1.
</event>
<event>
12    1  0.8453150E-002  0.2228178E+03  0.7818608E-02  0.1132961E+00
         21   -1    0    0  501  502  0.00000000000E+00  0.00000000000E+00  0.35784548484E+02  0.35784548484E+02  0.00000000000E+00 0. -1.
         21   -1    0    0  502  503 -0.00000000000E+00 -0.00000000000E+00 -0.16838951643E+04  0.16838951643E+04  0.00000000000E+00 0.  1.
         -6    2    1    2    0  503 -0.48590485447E+02  0.12229740848E+03 -0.12169599122E+04  0.12371900348E+04  0.17980562537E+03 0.  0.
        -24    2    3    3    0    0  0.30370703174E+01  0.89453712002E+02 -0.41341064816E+03  0.43130069833E+03  0.84265876693E+02 0.  0.
          6    2    1    2  501    0  0.48590485447E+02 -0.12229740848E+03 -0.43115070369E+03  0.48248967806E+03  0.17201066461E+03 0.  0.
         24    2    5    5    0    0  0.10361404602E+02 -0.11488178404E+03 -0.17231383531E+03  0.22069764506E+03  0.75565929395E+02 0.  0.
          5    1    5    5  501    0  0.38229080845E+02 -0.74156244387E+01 -0.25883686838E+03  0.26179203300E+03  0.47000000000E+01 0. -1.
        -11    1    6    6    0    0  0.33462542778E+02 -0.46470374755E+02 -0.11514833465E+03  0.12860161924E+03  0.00000000000E+00 0.  1.
         12    1    6    6    0    0 -0.23101138175E+02 -0.68411409285E+02 -0.57165500661E+02  0.92096025817E+02  0.00000000000E+00 0. -1.
         -5    1    3    3    0  503 -0.51627555765E+02  0.32843696478E+02 -0.80354926400E+03  0.80588933644E+03  0.47000000000E+01 0.  1.
         13    1    4    4    0    0  0.11345453375E+02  0.10370575363E+03 -0.32402149625E+03  0.34040201627E+03  0.00000000000E+00 0. -1.
        -14    1    4    4    0    0 -0.83083830574E+01 -0.14252041631E+02 -0.89389151916E+02  0.90898682059E+02  0.00000000000E+00 0.  1.
</event>
<event>
12    1  0.8453150E-002  0.1944034E+03  0.7818608E-02  0.1154647E+00
         21   -1    0    0  503  502  0.00000000000E+00  0.00000000000E+00  0.43274948862E+03  0.43274948862E+03  0.00000000000E+00 0.  1.
         21   -1    0    0  501  503 -0.00000000000E+00 -0.00000000000E+00 -0.17743815870E+03  0.17743815870E+03  0.00000000000E+00 0.  1.
          6    2    1    2  501    0  0.36134624498E+02 -0.83808644794E+02 -0.90072682717E+02  0.21385091505E+03  0.17114182910E+03 0.  0.
         24    2    3    3    0    0 -0.42946197003E+02 -0.66456415211E+02 -0.46392651018E+02  0.12173733641E+03  0.80042926283E+02 0.  0.
         -6    2    1    2    0  502 -0.36134624498E+02  0.83808644794E+02  0.34538401263E+03  0.39633673226E+03  0.17164815504E+03 0.  0.
        -24    2    5    5    0    0  0.26684316537E+02  0.85257898722E+02  0.16526025600E+03  0.20550964459E+03  0.83320464233E+02 0.  0.
          5    1    3    3  501    0  0.79080821501E+02 -0.17352229583E+02 -0.43680031699E+02  0.92113578641E+02  0.47000000000E+01 0. -1.
        -13    1    4    4    0    0 -0.14385581848E+02 -0.24437807769E+01 -0.49467596022E+02  0.51574800880E+02  0.00000000000E+00 0.  1.
         14    1    4    4    0    0 -0.28560615155E+02 -0.64012634434E+02  0.30749450041E+01  0.70162535530E+02  0.00000000000E+00 0. -1.
         -5    1    5    5    0  502 -0.62818941034E+02 -0.14492539277E+01  0.18012375663E+03  0.19082708768E+03  0.47000000000E+01 0.  1.
         11    1    6    6    0    0 -0.77043629066E+00  0.92873020563E+02  0.13583325227E+03  0.16454988284E+03  0.00000000000E+00 0. -1.
        -12    1    6    6    0    0  0.27454752827E+02 -0.76151218418E+01  0.29427003734E+02  0.40959761745E+02  0.00000000000E+00 0.  1.
</event>
<event>
12    1  0.8453150E-002  0.2794784E+03  0.7818608E-02  0.1097729E+00
         21   -1    0    0  501  502  0.00000000000E+00  0.00000000000E+00  0.74074517059E+02  0.74074517059E+02  0.00000000000E+00 0.  1.
         21   -1    0    0  502  503 -0.00000000000E+00 -0.00000000000E+00 -0.12930267446E+04  0.12930267446E+04  0.00000000000E+00 0. -1.
         -6    2    1    2    0  503 -0.16570518581E+03  0.11960557574E+03 -0.29935944617E+03  0.40954154317E+03  0.19064232274E+03 0.  0.
        -24    2    3    3    0    0 -0.71791613157E+01  0.28088685376E+02 -0.48606757147E+02  0.99050250674E+02  0.81288502969E+02 0.  0.
          6    2    1    2  501    0  0.16570518581E+03 -0.11960557574E+03 -0.91959278137E+03  0.95755971849E+03  0.17177318935E+03 0.  0.
         24    2    5    5    0    0  0.13181226763E+03 -0.16888514763E+02 -0.48814791904E+03  0.51273808710E+03  0.83380209141E+02 0.  0.
          5    1    5    5  501    0  0.33892918172E+02 -0.10271706097E+03 -0.43144486233E+03  0.44482163139E+03  0.47000000000E+01 0. -1.
        -13    1    6    6    0    0  0.13820064728E+03 -0.24533367618E+02 -0.39768425590E+03  0.42172748597E+03  0.00000000000E+00 0.  1.
         14    1    6    6    0    0 -0.63883796467E+01  0.76448528554E+01 -0.90463663137E+02  0.91010601129E+02  0.00000000000E+00 0. -1.
         -5    1    3    3    0  503 -0.15852602449E+03  0.91516890360E+02 -0.25075268902E+03  0.31049129249E+03  0.47000000000E+01 0.  1.
         13    1    4    4    0    0 -0.22728182955E+02  0.52193768042E+02 -0.38103498992E+02  0.68502820076E+02  0.00000000000E+00 0. -1.
        -14    1    4    4    0    0  0.15549021640E+02 -0.24105082666E+02 -0.10503258155E+02  0.30547430598E+02  0.00000000000E+00 0.  1.
</event>
<event>
12    1  0.8453150E-002  0.2001910E+03  0.7818608E-02  0.1149689E+00
         21   -1    0    0  503  502  0.00000000000E+00  0.00000000000E+00  0.32091467689E+03  0.32091467689E+03  0.00000000000E+00 0.  1.
         21   -1    0    0  501  503 -0.00000000000E+00 -0.00000000000E+00 -0.15230574835E+03  0.15230574835E+03  0.00000000000E+00 0.  1.
          6    2    1    2  501    0 -0.20400714774E+02 -0.96919894970E+02  0.18539445898E+03  0.27285073763E+03  0.17397345889E+03 0.  0.
         24    2    3    3    0    0 -0.78843032532E+02 -0.79022249030E+02  0.14249224222E+03  0.19802747628E+03  0.80312531080E+02 0.  0.
         -6    2    1    2    0  502  0.20400714774E+02  0.96919894970E+02 -0.16785530440E+02  0.20036968762E+03  0.17336840104E+03 0.  0.
        -24    2    5    5    0    0  0.75885735743E+02  0.96659725892E+02 -0.33546924568E+01  0.14308851576E+03  0.73221048087E+02 0.  0.
          5    1    3    3  501    0  0.58442317759E+02 -0.17897645941E+02  0.42902216766E+02  0.74823261347E+02  0.47000000000E+01 0. -1.
        -13    1    4    4    0    0 -0.23610644815E+02 -0.72151264387E+02  0.52810347536E+02  0.92478107182E+02  0.00000000000E+00 0.  1.
         14    1    4    4    0    0 -0.55232387717E+02 -0.68709846432E+01  0.89681894681E+02  0.10554936910E+03  0.00000000000E+00 0. -1.
         -5    1    5    5    0  502 -0.55485020969E+02  0.26016907827E+00 -0.13430837983E+02  0.57281171853E+02  0.47000000000E+01 0.  1.
         11    1    6    6    0    0  0.18414632055E+02  0.12190697222E+02 -0.30238535834E+02  0.37444369695E+02  0.00000000000E+00 0. -1.
        -12    1    6    6    0    0  0.57471103687E+02  0.84469028670E+02  0.26883843377E+02  0.10564414607E+03  0.00000000000E+00 0.  1.
</event>
<event>
12    1  0.8453150E-002  0.1874773E+03  0.7818608E-02  0.1160908E+00
         21   -1    0    0  501  502  0.00000000000E+00  0.00000000000E+00  0.38204383151E+03  0.38204383151E+03  0.00000000000E+00 0.  1.
         21   -1    0    0  502  503 -0.00000000000E+00 -0.00000000000E+00 -0.39417957040E+03  0.39417957040E+03  0.00000000000E+00 0.  1.
         -6    2    1    2    0  503  0.75153135521E+02  0.10705665598E+02 -0.34606661295E+03  0.39358585067E+03  0.17142087444E+03 0.  0.
        -24    2    3    3    0    0  0.49323493071E+01  0.93172972140E+01 -0.29774428041E+03  0.30820421209E+03  0.78911594461E+02 0.  0.
          6    2    1    2  501    0 -0.75153135521E+02 -0.10705665598E+02  0.33393087406E+03  0.38263755124E+03  0.17070167520E+03 0.  0.
         24    2    5    5    0    0  0.21174259471E+02 -0.13164124924E+01  0.10475103485E+03  0.13381509687E+03  0.80520920523E+02 0.  0.
          5    1    5    5  501    0 -0.96327394992E+02 -0.93892531058E+01  0.22917983921E+03  0.24882245437E+03  0.47000000000E+01 0. -1.
        -11    1    6    6    0    0  0.10709037265E+02  0.13214207999E+02  0.11287653526E+03  0.11415082560E+03  0.00000000000E+00 0.  1.
         12    1    6    6    0    0  0.10465222206E+02 -0.14530620491E+02 -0.81255004110E+01  0.19664271271E+02  0.00000000000E+00 0. -1.
         -5    1    3    3    0  503  0.70220786214E+02  0.13883683842E+01 -0.48322332541E+02  0.85381638573E+02  0.47000000000E+01 0.  1.
         11    1    4    4    0    0  0.32756886428E+01  0.32148273158E+02 -0.50837874730E+02  0.60238950109E+02  0.00000000000E+00 0. -1.
        -12    1    4    4    0    0  0.16566606642E+01 -0.22830975944E+02 -0.24690640568E+03  0.24796526199E+03  0.00000000000E+00 0.  1.
</event>
<event>
12    1  0.8453150E-002  0.1903576E+03  0.7818608E-02  0.1160376E+00
         21   -1    0    0  501  502  0.00000000000E+00  0.00000000000E+00  0.41882125935E+02  0.41882125935E+02  0.00000000000E+00 0. -1.
         21   -1    0    0  502  503 -0.00000000000E+00 -0.00000000000E+00 -0.82305123401E+03  0.82305123401E+03  0.00000000000E+00 0. -1.
         -6    2    1    2    0  503  0.17304861374E+02  0.81469363123E+02 -0.36358710848E+03  0.40600990322E+03  0.16034880949E+03 0.  0.
        -24    2    3    3    0    0  0.15372577507E+02 -0.12969247027E+02 -0.14512304740E+03  0.16795314362E+03  0.82116028021E+02 0.  0.
          6    2    1    2  501    0 -0.17304861374E+02 -0.81469363123E+02 -0.41758199960E+03  0.45892345673E+03  0.17117037533E+03 0.  0.
         24    2    5    5    0    0  0.16927595138E+02 -0.88540421360E+01 -0.10042145133E+03  0.13172665158E+03  0.83081317453E+02 0.  0.
          5    1    5    5  501    0 -0.34232456512E+02 -0.72615320987E+02 -0.31716054827E+03  0.32719680515E+03  0.47000000000E+01 0. -1.
        -13    1    6    6    0    0 -0.24128970596E+02 -0.20355913414E+02 -0.12389374320E+02  0.33912638190E+02  0.00000000000E+00 0.  1.
         14    1    6    6    0    0  0.41056565734E+02  0.11501871278E+02 -0.88032077009E+02  0.97814013389E+02  0.00000000000E+00 0. -1.
         -5    1    3    3    0  503  0.19322838671E+01  0.94438610149E+02 -0.21846406108E+03  0.23805675960E+03  0.47000000000E+01 0.  1.
         13    1    4    4    0    0 -0.12145921088E+02  0.30401547040E+02 -0.48303574794E+02  0.58352487517E+02  0.00000000000E+00 0. -1.
        -14    1    4    4    0    0  0.27518498595E+02 -0.43370794066E+02 -0.96819472609E+02  0.10960065611E+03  0.00000000000E+00 0.  1.
</event>
<event>
12    1  0.8453150E-002  0.2362487E+03  0.7818608E-02  0.1122695E+00
         21   -1    0    0  503  502  0.00000000000E+00  0.00000000000E+00  0.17490809976E+04  0.17490809976E+04  0.00000000000E+00 0. -1.
         21   -1    0    0  501  503 -0.00000000000E+00 -0.00000000000E+00 -0.36786161952E+02  0.36786161952E+02  0.00000000000E+00 0. -1.
          6    2    1    2  501    0 -0.20319936075E+02 -0.16119739240E+03  0.51782621732E+03  0.56825937438E+03  0.16845541283E+03 0.  0.
         24    2    3    3    0    0 -0.60523376214E+02 -0.89732738914E+02  0.19667021934E+03  0.23676762738E+03  0.75264139503E+02 0.  0.
         -6    2    1    2    0  502  0.20319936075E+02  0.16119739240E+03  0.11944686183E+04  0.12176077852E+04  0.17151075541E+03 0.  0.
        -24    2    5    5    0    0 -0.12790957936E+02  0.17146555122E+03  0.82612459198E+03  0.84760619310E+03  0.79939810152E+02 0.  0.
          5    1    3    3  501    0  0.40203440140E+02 -0.71464653482E+02  0.32115599798E+03  0.33149174701E+03  0.47000000000E+01 0. -1.
        -13    1    4    4    0    0 -0.53777353470E+02 -0.15948828993E+02  0.10356283934E+03  0.11777788665E+03  0.00000000000E+00 0.  1.
         14    1    4    4    0    0 -0.67460227444E+01 -0.73783909920E+02  0.93107380007E+02  0.11898974072E+03  0.00000000000E+00 0. -1.
         -5    1    5    5    0  502  0.33110894011E+02 -0.10268158828E+02  0.36834402634E+03  0.37000159206E+03  0.47000000000E+01 0.  1.
         13    1    6    6    0    0 -0.62747205077E+01  0.76535869966E+02  0.19898084577E+03  0.21328499360E+03  0.00000000000E+00 0. -1.
        -14    1    6    6    0    0 -0.65162374287E+01  0.94929681257E+02  0.62714374621E+03  0.63432119951E+03  0.00000000000E+00 0.  1.
</event>
<event>
12    1  0.8453150E-002  0.2167911E+03  0.7818608E-02  0.1137252E+00
         21   -1    0    0  501  502  0.00000000000E+00  0.00000000000E+00  0.25592024282E+04  0.25592024282E+04  0.00000000000E+00 0. -1.
         21   -1    0    0  502  503 -0.00000000000E+00 -0.00000000000E+00 -0.27176076018E+02  0.27176076018E+02  0.00000000000E+00 0.  1.
         -6    2    1    2    0  503  0.77599657030E+02 -0.10547608166E+03  0.50276809663E+03  0.54557291438E+03  0.16651467007E+03 0.  0.
        -24    2    3    3    0    0  0.78055896869E+00 -0.15358553584E+02  0.29617298605E+03  0.30740076570E+03  0.80872112917E+02 0.  0.
          6    2    1    2  501    0 -0.77599657030E+02  0.10547608166E+03  0.20292582556E+04  0.20408055898E+04  0.17277580036E+03 0.  0.
         24    2    5    5    0    0 -0.63128092426E+02 -0.35241016521E+01  0.11929500530E+04  0.11972867900E+04  0.79801334732E+02 0.  0.
          5    1    5    5  501    0 -0.14471564604E+02  0.10900018331E+03  0.83630820253E+03  0.84351879989E+03  0.47000000000E+01 0. -1.
        -13    1    6    6    0    0 -0.69555454000E+02 -0.93843349828E+01  0.11772343812E+04  0.11793247284E+04  0.00000000000E+00 0.  1.
         14    1    6    6    0    0  0.64273615742E+01  0.58602333306E+01  0.15715671876E+02  0.17962061519E+02  0.00000000000E+00 0. -1.
         -5    1    3    3    0  503  0.76819098061E+02 -0.90117528073E+02  0.20659511057E+03  0.23817214868E+03  0.47000000000E+01 0.  1.
         13    1    4    4    0    0 -0.15419699573E+02  0.28420880508E+02  0.80854145149E+02  0.87079885000E+02  0.00000000000E+00 0. -1.
        -14    1    4    4    0    0  0.16200258542E+02 -0.43779434093E+02  0.21531884090E+03  0.22032088071E+03  0.00000000000E+00 0.  1.
</event>
<event>
12    1  0.8453150E-002  0.2280053E+03  0.7818608E-02  0.1128454E+00
         21   -1    0    0  501  502  0.00000000000E+00  0.00000000000E+00  0.23857774486E+03  0.23857774486E+03  0.00000000000E+00 0.  1.
         21   -1    0    0  502  503 -0.00000000000E+00 -0.00000000000E+00 -0.54836455916E+03  0.54836455916E+03  0.00000000000E+00 0.  1.
         -6    2    1    2    0  503  0.14139078897E+03  0.44973051977E+02 -0.46163372883E+03  0.51487095819E+03  0.17312560003E+03 0.  0.
        -24    2    3    3    0    0  0.12686622563E+03  0.27473902571E+02 -0.19207738399E+03  0.24431616483E+03  0.77115578367E+02 0.  0.
          6    2    1    2  501    0 -0.14139078897E+03 -0.44973051977E+02  0.15184691452E+03  0.27207134583E+03  0.17015111274E+03 0.  0.
         24    2    5    5    0    0 -0.62131873181E+02 -0.61596562329E+02  0.14989010858E+03  0.19092804101E+03  0.79573651659E+02 0.  0.
          5    1    5    5  501    0 -0.79258915786E+02  0.16623510352E+02  0.19568059387E+01  0.81143304822E+02  0.47000000000E+01 0. -1.
        -13    1    6    6    0    0 -0.60306091050E+02 -0.21059038917E+02  0.44097935807E+02  0.77620459160E+02  0.00000000000E+00 0.  1.
         14    1    6    6    0    0 -0.18257821308E+01 -0.40537523412E+02  0.10579217277E+03  0.11330758185E+03  0.00000000000E+00 0. -1.
         -5    1    3    3    0  503  0.14524563337E+02  0.17499149406E+02 -0.26955634483E+03  0.27055479336E+03  0.47000000000E+01 0.  1.
         13    1    4    4    0    0  0.72212797338E+01  0.17590680335E+02 -0.14954674959E+01  0.19073943973E+02  0.00000000000E+00 0. -1.
        -14    1    4    4    0    0  0.11964494590E+03  0.98832222354E+01 -0.19058191650E+03  0.22524222086E+03  0.00000000000E+00 0.  1.
</event>
<event>
12    1  0.8453150E-002  0.1861580E+03  0.7818608E-02  0.1162353E+00
         21   -1    0    0  503  502  0.00000000000E+00  0.00000000000E+00  0.86846722030E+03  0.86846722030E+03  0.00000000000E+00 0. -1.
         21   -1    0    0  501  503 -0.00000000000E+00 -0.00000000000E+00 -0.45551633476E+02  0.45551633476E+02  0.00000000000E+00 0. -1.
          6    2    1    2  501    0  0.32158348700E+02  0.62920807493E+02  0.24405521090E+03  0.30596116404E+03  0.17045850089E+03 0.  0.
         24    2    3    3    0    0 -0.10942150003E+02 -0.20373036542E+02  0.71703170878E+02  0.10968881972E+03  0.79721397339E+02 0.  0.
         -6    2    1    2    0  502 -0.32158348700E+02 -0.62920807493E+02  0.57886037592E+03  0.60805768973E+03  0.17222552607E+03 0.  0.
        -24    2    5    5    0    0 -0.64929037515E+01 -0.40499609719E+02  0.99601801344E+02  0.12756596610E+03  0.68338720288E+02 0.  0.
          5    1    3    3  501    0  0.43100498703E+02  0.83293844035E+02  0.17235204003E+03  0.19627234432E+03  0.47000000000E+01 0. -1.
        -11    1    4    4    0    0 -0.38325740959E+02  0.12152088512E+02  0.39388125950E+02  0.56284635036E+02  0.00000000000E+00 0.  1.
         12    1    4    4    0    0  0.27383590956E+02 -0.32525125054E+02  0.32315044927E+02  0.53404184687E+02  0.00000000000E+00 0. -1.
         -5    1    5    5    0  502 -0.25665444949E+02 -0.22421197774E+02  0.47925857457E+03  0.48049172363E+03  0.47000000000E+01 0.  1.
         11    1    6    6    0    0 -0.38969088828E+00 -0.37931200309E+02  0.10937195492E+03  0.11576334627E+03  0.00000000000E+00 0. -1.
        -12    1    6    6    0    0 -0.61032128633E+01 -0.25684094107E+01 -0.97701535755E+01  0.11802619838E+02  0.00000000000E+00 0.  1.
</event>
<event>
12    1  0.8453150E-002  0.2847481E+03  0.7818608E-02  0.1093210E+00
         21   -1    0    0  503  502  0.00000000000E+00  0.00000000000E+00  0.11218148820E+04  0.11218148820E+04  0.00000000000E+00 0.  1.
         21   -1    0    0  501  503 -0.00000000000E+00 -0.00000000000E+00 -0.10180447031E+03  0.10180447031E+03  0.00000000000E+00 0. -1.
          6    2    1    2  501    0 -0.17740354102E+03 -0.14505500053E+03  0.17918395399E+03  0.33588592388E+03  0.16792705245E+03 0.  0.
         24    2    3    3    0    0 -0.18466940850E+02 -0.49720067042E+02  0.41454033638E+02  0.10492875604E+03  0.80489092226E+02 0.  0.
         -6    2    1    2    0  502  0.17740354102E+03  0.14505500053E+03  0.84082645771E+03  0.88773342845E+03  0.16902230164E+03 0.  0.
        -24    2    5    5    0    0  0.15381691525E+03  0.59964184442E+02  0.43574453032E+03  0.47311283827E+03  0.81896979197E+02 0.  0.
          5    1    3    3  501    0 -0.15893660017E+03 -0.95334933491E+02  0.13772992036E+03  0.23095716784E+03  0.47000000000E+01 0. -1.
        -13    1    4    4    0    0  0.15969496305E+02 -0.53017953470E+02  0.65013816912E+01  0.55751198788E+02  0.00000000000E+00 0.  1.
         14    1    4    4    0    0 -0.34436437155E+02  0.32978864276E+01  0.34952651946E+02  0.49177557248E+02  0.00000000000E+00 0. -1.
         -5    1    5    5    0  502  0.23586625767E+02  0.85090816091E+02  0.40508192739E+03  0.41462059017E+03  0.47000000000E+01 0.  1.
         11    1    6    6    0    0 -0.38921554857E+01  0.12503080761E+02  0.80367373185E+02  0.81427210290E+02  0.00000000000E+00 0. -1.
        -12    1    6    6    0    0  0.15770907074E+03  0.47461103681E+02  0.35537715713E+03  0.39168562798E+03  0.00000000000E+00 0.  1.
</event>
<event>
12    1  0.8453150E-002  0.2736786E+03  0.7818608E-02  0.1099240E+00
         21   -1    0    0  501  502  0.00000000000E+00  0.00000000000E+00  0.11343021036E+04  0.11343021036E+04  0.00000000000E+00 0. -1.
         21   -1    0    0  502  503 -0.00000000000E+00 -0.00000000000E+00 -0.10098846757E+03  0.10098846757E+03  0.00000000000E+00 0.  1.
         -6    2    1    2    0  503  0.20807047598E+03  0.43838340719E+02  0.88067923231E+03  0.92222333776E+03  0.17229292325E+03 0.  0.
        -24    2    3    3    0    0  0.20019821295E+03  0.58345645940E+02  0.87660560869E+03  0.90458477661E+03  0.79703739056E+02 0.  0.
          6    2    1    2  501    0 -0.20807047598E+03 -0.43838340719E+02  0.15263440369E+03  0.31306723337E+03  0.17175188012E+03 0.  0.
         24    2    5    5    0    0 -0.58863302280E+02 -0.13784998502E+01  0.11870583866E+03  0.15419981602E+03  0.78865192007E+02 0.  0.
          5    1    5    5  501    0 -0.14920717370E+03 -0.42459840869E+02  0.33928565033E+02  0.15886741735E+03  0.47000000000E+01 0. -1.
        -13    1    6    6    0    0 -0.34181628477E+02  0.13406732815E+02  0.51745885991E+01  0.37079651795E+02  0.00000000000E+00 0.  1.
         14    1    6    6    0    0 -0.24681673804E+02 -0.14785232665E+02  0.11353125006E+03  0.11712016422E+03  0.00000000000E+00 0. -1.
         -5    1    3    3    0  503  0.78722630384E+01 -0.14507305221E+02  0.40736236145E+01  0.17638561151E+02  0.47000000000E+01 0.  1.
         13    1    4    4    0    0  0.16004853507E+03  0.33370126064E+02  0.78096175688E+03  0.79789119847E+03  0.00000000000E+00 0. -1.
        -14    1    4    4    0    0  0.40149677876E+02  0.24975519875E+02  0.95643851817E+02  0.10669357814E+03  0.00000000000E+00 0.  1.
</event>
<event>
12    1  0.8453150E-002  0.2030276E+03  0.7818608E-02  0.1147262E+00
         21   -1    0    0  503  502  0.00000000000E+00  0.00000000000E+00  0.82090845313E+02  0.82090845313E+02  0.00000000000E+00 0.  1.
         21   -1    0    0  501  503 -0.00000000000E+00 -0.00000000000E+00 -0.54324534870E+03  0.54324534870E+03  0.00000000000E+00 0. -1.
          6    2    1    2  501    0 -0.61539465879E+02  0.88362526307E+02 -0.31711765531E+03  0.37640483198E+03  0.17181952250E+03 0.  0.
         24    2    3    3    0    0  0.62745542699E+01  0.94368179915E+02 -0.14193548467E+03  0.18840033173E+03  0.80026744130E+02 0.  0.
         -6    2    1    2    0  502  0.61539465879E+02 -0.88362526307E+02 -0.14403684808E+03  0.24893136203E+03  0.17211963131E+03 0.  0.
        -24    2    5    5    0    0  0.78515003708E+02 -0.12526889306E+03 -0.99847039407E+02  0.18872274154E+03  0.61562492795E+02 0.  0.
          5    1    3    3  501    0 -0.67814020149E+02 -0.60056536080E+01 -0.17518217064E+03  0.18800450025E+03  0.47000000000E+01 0. -1.
        -11    1    4    4    0    0 -0.27931706069E+02  0.82320598952E+02 -0.10891949616E+03  0.13935680055E+03  0.00000000000E+00 0.  1.
         12    1    4    4    0    0  0.34206260339E+02  0.12047580963E+02 -0.33015988511E+02  0.49043531182E+02  0.00000000000E+00 0. -1.
         -5    1    5    5    0  502 -0.16975537829E+02  0.36906366754E+02 -0.44189808672E+02  0.60208620496E+02  0.47000000000E+01 0.  1.
         11    1    6    6    0    0  0.75814766871E+02 -0.91090855757E+02 -0.99007901901E+02  0.15442793632E+03  0.00000000000E+00 0. -1.
        -12    1    6    6    0    0  0.27002368375E+01 -0.34178037304E+02 -0.83913750564E+00  0.34294805215E+02  0.00000000000E+00 0.  1.
</event>
<event>
12    1  0.8453150E-002  0.1884218E+03  0.7818608E-02  0.1160032E+00
         21   -1    0    0  501  502  0.00000000000E+00  0.00000000000E+00  0.60487683646E+03  0.60487683646E+03  0.00000000000E+00 0. -1.
         21   -1    0    0  502  503 -0.00000000000E+00 -0.00000000000E+00 -0.10621640854E+03  0.10621640854E+03  0.00000000000E+00 0. -1.
         -6    2    1    2    0  503  0.48433292296E+02  0.57969186512E+02  0.10812851737E+02  0.18812285299E+03  0.17195080595E+03 0.  0.
        -24    2    3    3    0    0  0.87806820532E+02  0.14434180082E+02 -0.25042378641E+02  0.11917896960E+03  0.75220494423E+02 0.  0.
          6    2    1    2  501    0 -0.48433292296E+02 -0.57969186512E+02  0.48784757618E+03  0.52297039200E+03  0.17261680954E+03 0.  0.
         24    2    5    5    0    0 -0.97572552029E+02 -0.27472050562E+02  0.31753812922E+03  0.34304779789E+03  0.81093844744E+02 0.  0.
          5    1    5    5  501    0  0.49139259733E+02 -0.30497135951E+02  0.17030944696E+03  0.17992259411E+03  0.47000000000E+01 0. -1.
        -11    1    6    6    0    0 -0.30713129535E+02 -0.19059214168E+02  0.27865335768E+02  0.45640189614E+02  0.00000000000E+00 0.  1.
         12    1    6    6    0    0 -0.66859422494E+02 -0.84128363934E+01  0.28967279346E+03  0.29740760828E+03  0.00000000000E+00 0. -1.
         -5    1    3    3    0  503 -0.39373528236E+02  0.43535006431E+02  0.35855230377E+02  0.68943883384E+02  0.47000000000E+01 0.  1.
         11    1    4    4    0    0  0.83829085450E+02  0.21739598509E+02 -0.44972207712E+02  0.97582914372E+02  0.00000000000E+00 0. -1.
        -12    1    4    4    0    0  0.39777350814E+01 -0.73054184275E+01  0.19929829071E+02  0.21596055232E+02  0.00000000000E+00 0.  1.
</event>
<event>
12    1  0.8453150E-002  0.2054343E+03  0.7818608E-02  0.1146413E+00
         21   -1    0    0  503  502  0.00000000000E+00  0.00000000000E+00  0.74138773267E+03  0.74138773267E+03  0.00000000000E+00 0. -1.
         21   -1    0    0  501  503 -0.00000000000E+00 -0.00000000000E+00 -0.62879189460E+02  0.62879189460E+02  0.00000000000E+00 0. -1.
          6    2    1    2  501    0 -0.69163129510E+02  0.72234131987E+02  0.20436918047E+03  0.28977576651E+03  0.17944894712E+03 0.  0.
         24    2    3    3    0    0  0.15951245560E+02  0.72975343763E+02  0.68334695502E+02  0.12923767963E+03  0.80329970713E+02 0.  0.
         -6    2    1    2    0  502  0.69163129510E+02 -0.72234131987E+02  0.47413936274E+03  0.51449115562E+03  0.17289217913E+03 0.  0.
        -24    2    5    5    0    0  0.85760770139E+02 -0.20718660948E+01  0.37055200573E+03  0.38819525006E+03  0.77637367888E+02 0.  0.
          5    1    3    3  501    0 -0.85114375070E+02 -0.74121177630E+00  0.13603448497E+03  0.16053808688E+03  0.47000000000E+01 0. -1.
        -11    1    4    4    0    0 -0.18043004131E+02  0.20930136529E+02 -0.98636130098E+01  0.29341292998E+02  0.00000000000E+00 0.  1.
         12    1    4    4    0    0  0.33994249691E+02  0.52045207234E+02  0.78198308512E+02  0.99896386632E+02  0.00000000000E+00 0. -1.
         -5    1    5    5    0  502 -0.16597640629E+02 -0.70162265892E+02  0.10358735701E+03  0.12629590556E+03  0.47000000000E+01 0.  1.
         13    1    6    6    0    0  0.51600007554E+02 -0.35646373947E+02  0.15150359741E+03  0.16397123157E+03  0.00000000000E+00 0. -1.
        -14    1    6    6    0    0  0.34160762585E+02  0.33574507853E+02  0.21904840833E+03  0.22422401849E+03  0.00000000000E+00 0.  1.
</event>
<event>
12    1  0.8453150E-002  0.2742336E+03  0.7818608E-02  0.1098910E+00
         21   -1    0    0  501  502  0.00000000000E+00  0.00000000000E+00  0.19407325511E+03  0.19407325511E+03  0.00000000000E+00 0.  1.
         21   -1    0    0  502  503 -0.00000000000E+00 -0.00000000000E+00 -0.10464058967E+04  0.10464058967E+04  0.00000000000E+00 0.  1.
         -6    2    1    2    0  503  0.20604016806E+03  0.57570979240E+02 -0.91839111070E+03  0.95840147455E+03  0.17124306034E+03 0.  0.
        -24    2    3    3    0    0  0.18291463019E+03 -0.12323091039E+02 -0.69320009794E+03  0.72143511874E+03  0.79577850281E+02 0.  0.
          6    2    1    2  501    0 -0.20604016806E+03 -0.57570979240E+02  0.66058469094E+02  0.28207767728E+03  0.17157250995E+03 0.  0.
         24    2    5    5    0    0 -0.16274736748E+03 -0.92745410941E+02  0.87999992305E+02  0.22195257712E+03  0.80190591549E+02 0.  0.
          5    1    5    5  501    0 -0.43292800582E+02  0.35174431700E+02 -0.21941523211E+02  0.60125100153E+02  0.47000000000E+01 0. -1.
        -13    1    6    6    0    0 -0.11786128358E+03 -0.22649597806E+02  0.59628857074E+02  0.13401450311E+03  0.00000000000E+00 0.  1.
         14    1    6    6    0    0 -0.44886083904E+02 -0.70095813134E+02  0.28371135232E+02  0.87938074015E+02  0.00000000000E+00 0. -1.
         -5    1    3    3    0  503  0.23125537877E+02  0.69894070279E+02 -0.22519101276E+03  0.23696635582E+03  0.47000000000E+01 0.  1.
         13    1    4    4    0    0  0.65425577071E+02 -0.16514697304E+02 -0.39811630781E+03  0.40379429900E+03  0.00000000000E+00 0. -1.
        -14    1    4    4    0    0  0.11748905311E+03  0.41916062650E+01 -0.29508379013E+03  0.31764081973E+03  0.00000000000E+00 0.  1.
</event>
<event>
12    1  0.8453150E-002  0.2015800E+03  0.7818608E-02  0.1148418E+00
         21   -1    0    0  503  502  0.00000000000E+00  0.00000000000E+00  0.10474659669E+03  0.10474659669E+03  0.00000000000E+00 0. -1.
         21   -1    0    0  501  503 -0.00000000000E+00 -0.00000000000E+00 -0.48539843213E+03  0.48539843213E+03  0.00000000000E+00 0.  1.
          6    2    1    2  501    0  0.95010820151E+02  0.46313060392E+02 -0.32257316226E+03  0.38036504905E+03  0.17161634542E+03 0.  0.
         24    2    3    3    0    0  0.10588027636E+03  0.12404552907E+01 -0.14441995366E+03  0.19621744373E+03  0.80199691756E+02 0.  0.
         -6    2    1    2    0  502 -0.95010820151E+02 -0.46313060392E+02 -0.58078673179E+02  0.20977997977E+03  0.17164659078E+03 0.  0.
        -24    2    5    5    0    0 -0.11426886325E+02 -0.42114319252E+02  0.17668209989E+02  0.96803948109E+02  0.84585158912E+02 0.  0.
          5    1    3    3  501    0 -0.10869456211E+02  0.45072605101E+02 -0.17815320859E+03  0.18414760531E+03  0.47000000000E+01 0. -1.
        -13    1    4    4    0    0  0.61186132168E+02  0.18775259008E+02 -0.13188950836E+03  0.14659841587E+03  0.00000000000E+00 0.  1.
         14    1    4    4    0    0  0.44694144194E+02 -0.17534803717E+02 -0.12530445304E+02  0.49619027863E+02  0.00000000000E+00 0. -1.
         -5    1    5    5    0  502 -0.83583933826E+02 -0.41987411399E+01 -0.75746883167E+02  0.11297603166E+03  0.47000000000E+01 0.  1.
         13    1    6    6    0    0  0.65217563021E+01  0.22229643043E+02 -0.90321352482E+01  0.24865031716E+02  0.00000000000E+00 0. -1.
        -14    1    6    6    0    0 -0.17948642627E+02 -0.64343962295E+02  0.26700345237E+02  0.71938916393E+02  0.00000000000E+00 0.  1.
</event>
<event>
12    1  0.8453150E-002  0.3299436E+03  0.7818608E-02  0.1071364E+00
         21   -1    0    0  503  502  0.00000000000E+00  0.00000000000E+00  0.62555930607E+03  0.62555930607E+03  0.00000000000E+00 0.  1.
         21   -1    0    0  501  503 -0.00000000000E+00 -0.00000000000E+00 -0.26833570420E+03  0.26833570420E+03  0.00000000000E+00 0. -1.
          6    2    1    2  501    0 -0.23061524143E+03  0.15794657210E+03 -0.88018743987E+02  0.33972579446E+03  0.17185984670E+03 0.  0.
         24    2    3    3    0    0 -0.10005281933E+03  0.15047645280E+02 -0.68863500663E+02  0.14516047715E+03  0.78053725849E+02 0.  0.
         -6    2    1    2    0  502  0.23061524143E+03 -0.15794657210E+03  0.44524234586E+03  0.55416921581E+03  0.17530620065E+03 0.  0.
        -24    2    5    5    0    0  0.11607773110E+03 -0.14673912734E+03  0.35018690345E+03  0.40483042238E+03  0.79059423161E+02 0.  0.
          5    1    3    3  501    0 -0.13056242210E+03  0.14289892682E+03 -0.19155243324E+02  0.19456531731E+03  0.47000000000E+01 0. -1.
        -11    1    4    4    0    0 -0.99767762921E+02 -0.11081466819E+02 -0.45916833930E+02  0.11038460519E+03  0.00000000000E+00 0.  1.
         12    1    4    4    0    0 -0.28505640566E+00  0.26129112099E+02 -0.22946666733E+02  0.34775871958E+02  0.00000000000E+00 0. -1.
         -5    1    5    5    0  502  0.11453751033E+03 -0.11207444761E+02  0.95055442415E+02  0.14933879343E+03  0.47000000000E+01 0.  1.
         13    1    6    6    0    0 -0.71565473904E+01 -0.34051846758E+02  0.44306098570E+02  0.56336265484E+02  0.00000000000E+00 0. -1.
        -14    1    6    6    0    0  0.12323427849E+03 -0.11268728058E+03  0.30588080488E+03  0.34849415690E+03  0.00000000000E+00 0.  1.
</event>
<event>
12    1  0.8453150E-002  0.2517914E+03  0.7818608E-02  0.1112282E+00
         21   -1    0    0  503  502  0.00000000000E+00  0.00000000000E+00  0.10667829685E+03  0.10667829685E+03  0.00000000000E+00 0. -1.
         21   -1    0    0  501  503 -0.00000000000E+00 -0.00000000000E+00 -0.13729042195E+04  0.13729042195E+04  0.00000000000E+00 0.  1.
          6    2    1    2  501    0  0.75443112271E+02  0.16714644801E+03 -0.11911545389E+04  0.12174760986E+04  0.17253787063E+03 0.  0.
         24    2    3    3    0    0  0.68961454538E+02  0.76136125012E+02 -0.96249187824E+03  0.97123720409E+03  0.79741452131E+02 0.  0.
         -6    2    1    2    0  502 -0.75443112271E+02 -0.16714644801E+03 -0.75071383804E+02  0.26210641783E+03  0.17156474967E+03 0.  0.
        -24    2    5    5    0    0 -0.99823111101E+02 -0.17707446221E+03 -0.47068559289E+02  0.22338693966E+03  0.79788826664E+02 0.  0.
          5    1    3    3  501    0  0.64816577337E+01  0.91010322997E+02 -0.22866266065E+03  0.24623889448E+03  0.47000000000E+01 0. -1.
        -13    1    4    4    0    0 -0.15919220952E+02  0.26980915985E+02 -0.27632443559E+03  0.27809456149E+03  0.00000000000E+00 0.  1.
         14    1    4    4    0    0  0.84880675490E+02  0.49155209026E+02 -0.68616744265E+03  0.69314264260E+03  0.00000000000E+00 0. -1.
         -5    1    5    5    0  502  0.24379998830E+02  0.99280141991E+01 -0.28002824515E+02  0.38719478169E+02  0.47000000000E+01 0.  1.
         11    1    6    6    0    0 -0.38623498546E+02 -0.11525071071E+03 -0.59807325712E+02  0.13546740260E+03  0.00000000000E+00 0. -1.
        -12    1    6    6    0    0 -0.61199612556E+02 -0.61823751501E+02  0.12738766423E+02  0.87919537059E+02  0.00000000000E+00 0.  1.
</event>
<event>
12    1  0.8453150E-002  0.1884817E+03  0.7818608E-02  0.1160445E+00
         21   -1    0    0  501  502  0.00000000000E+00  0.00000000000E+00  0.30030027076E+03  0.30030027076E+03  0.00000000000E+00 0. -1.
         21   -1    0    0  502  503 -0.00000000000E+00 -0.00000000000E+00 -0.12464062645E+03  0.12464062645E+03  0.00000000000E+00 0. -1.
         -6    2    1    2    0  503 -0.61419184172E+02 -0.48875010428E+02  0.34599596117E+02  0.19163109334E+03  0.17136003342E+03 0.  0.
        -24    2    3    3    0    0 -0.10712691435E+03 -0.21334231591E+02  0.27930915280E+02  0.13764727723E+03  0.78963989802E+02 0.  0.
          6    2    1    2  501    0  0.61419184172E+02  0.48875010428E+02  0.14106004819E+03  0.23330980387E+03  0.16844715657E+03 0.  0.
         24    2    5    5    0    0  0.77595334648E+02  0.80809861189E+02  0.72360104349E+02  0.15570004404E+03  0.80344566628E+02 0.  0.
          5    1    5    5  501    0 -0.16176150477E+02 -0.31934850762E+02  0.68699943845E+02  0.77609759835E+02  0.47000000000E+01 0. -1.
        -11    1    6    6    0    0 -0.15611661029E+02  0.24238872621E+02  0.15428194255E+02  0.32699787216E+02  0.00000000000E+00 0.  1.
         12    1    6    6    0    0  0.93206995677E+02  0.56570988568E+02  0.56931910094E+02  0.12300025682E+03  0.00000000000E+00 0. -1.
         -5    1    3    3    0  503  0.45707730180E+02 -0.27540778837E+02  0.66686808369E+01  0.53983816104E+02  0.47000000000E+01 0.  1.
         11    1    4    4    0    0 -0.50601039056E+02  0.19844836536E+02  0.38924502925E+02  0.66853568481E+02  0.00000000000E+00 0. -1.
        -12    1    4    4    0    0 -0.56525875295E+02 -0.41179068127E+02 -0.10993587645E+02  0.70793708753E+02  0.00000000000E+00 0.  1.
</event>
<event>
12    1  0.8453150E-002  0.2043234E+03  0.7818608E-02  0.1146224E+00
         21   -1    0    0  501  502  0.00000000000E+00  0.00000000000E+00  0.59915998094E+03  0.59915998094E+03  0.00000000000E+00 0.  1.
         21   -1    0    0  502  503 -0.00000000000E+00 -0.00000000000E+00 -0.25714923150E+03  0.25714923150E+03  0.00000000000E+00 0.  1.
         -6    2    1    2    0  503  0.80235117027E+02 -0.72446434502E+02 -0.19465637096E+03  0.28220408114E+03  0.17338362316E+03 0.  0.
        -24    2    3    3    0    0 -0.35488036569E+01 -0.86263510451E+02 -0.13724941303E+03  0.17959654842E+03  0.77223905513E+02 0.  0.
          6    2    1    2  501    0 -0.80235117027E+02  0.72446434502E+02  0.53666712040E+03  0.57410513131E+03  0.17291311056E+03 0.  0.
         24    2    5    5    0    0 -0.11406494049E+03  0.21438703446E+02  0.32980656972E+03  0.35832834152E+03  0.78462718886E+02 0.  0.
          5    1    5    5  501    0  0.33829823464E+02  0.51007731056E+02  0.20686055068E+03  0.21577678979E+03  0.47000000000E+01 0. -1.
        -13    1    6    6    0    0  0.68625857446E+01 -0.43139379254E+01  0.71481286810E+02  0.71939415536E+02  0.00000000000E+00 0.  1.
         14    1    6    6    0    0 -0.12092752624E+03  0.25752641371E+02  0.25832528291E+03  0.28638892599E+03  0.00000000000E+00 0. -1.
         -5    1    3    3    0  503  0.83783920684E+02  0.13817075949E+02 -0.57406957925E+02  0.10260753272E+03  0.47000000000E+01 0.  1.
         11    1    4    4    0    0 -0.39155515890E+02 -0.32961441942E+02 -0.69699528807E+02  0.86473321871E+02  0.00000000000E+00 0. -1.
        -12    1    4    4    0    0  0.35606712233E+02 -0.53302068509E+02 -0.67549884225E+02  0.93123226545E+02  0.00000000000E+00 0.  1.
</event>
<event>
12    1  0.8453150E-002  0.2076343E+03  0.7818608E-02  0.1143583E+00
         21   -1    0    0  501  502  0.00000000000E+00  0.00000000000E+00  0.68074672242E+03  0.68074672242E+03  0.00000000000E+00 0.  1.
         21   -1    0    0  502  503 -0.00000000000E+00 -0.00000000000E+00 -0.12408517443E+03  0.12408517443E+03  0.00000000000E+00 0.  1.
         -6    2    1    2    0  503 -0.15834528559E+02  0.11661699189E+03 -0.34861041790E+01  0.20766359802E+03  0.17106069662E+03 0.  0.
        -24    2    3    3    0    0  0.37861047869E+02  0.37746768802E+02  0.38243885570E+02  0.10341769133E+03  0.79839505226E+02 0.  0.
          6    2    1    2  501    0  0.15834528559E+02 -0.11661699189E+03  0.56014765218E+03  0.59716829883E+03  0.17027721457E+03 0.  0.
         24    2    5    5    0    0  0.51330485285E+02 -0.32376214651E+02  0.40294829328E+03  0.41526117986E+03  0.79946747609E+02 0.  0.
          5    1    5    5  501    0 -0.35495956726E+02 -0.84240777235E+02  0.15719935890E+03  0.18190711897E+03  0.47000000000E+01 0. -1.
        -11    1    6    6    0    0  0.26629589856E+02  0.24522536883E+02  0.10950522731E+03  0.11533379678E+03  0.00000000000E+00 0.  1.
         12    1    6    6    0    0  0.24700895429E+02 -0.56898751534E+02  0.29344306597E+03  0.29992738309E+03  0.00000000000E+00 0. -1.
         -5    1    3    3    0  503 -0.53695576428E+02  0.78870223084E+02 -0.41729989749E+02  0.10424590669E+03  0.47000000000E+01 0.  1.
         11    1    4    4    0    0 -0.36692361310E+01  0.39436715906E+02  0.46457458228E+02  0.61049269285E+02  0.00000000000E+00 0. -1.
        -12    1    4    4    0    0  0.41530284000E+02 -0.16899471041E+01 -0.82135726576E+01  0.42368422040E+02  0.00000000000E+00 0.  1.
</event>
<event>
12    1  0.8453150E-002  0.2455433E+03  0.7818608E-02  0.1117934E+00
         21   -1    0    0  501  502  0.00000000000E+00  0.00000000000E+00  0.19809123154E+04  0.19809123154E+04  0.00000000000E+00 0. -1.
         21   -1    0    0  502  503 -0.00000000000E+00 -0.00000000000E+00 -0.30409524809E+02  0.30409524809E+02  0.00000000000E+00 0. -1.
         -6    2    1    2    0  503  0.12624486440E+03 -0.97766006349E+02  0.78900783202E+03  0.82633217934E+03  0.18653566375E+03 0.  0.
        -24    2    3    3    0    0  0.94458149782E+02 -0.14105801880E+03  0.52389796390E+03  0.55579581258E+03  0.74968006368E+02 0.  0.
          6    2    1    2  501    0 -0.12624486440E+03  0.97766006349E+02  0.11614949585E+04  0.11849896608E+04  0.17214528682E+03 0.  0.
         24    2    5    5    0    0 -0.26626500870E+01  0.86796431792E+01  0.32384211513E+03  0.33358298957E+03  0.79507669350E+02 0.  0.
          5    1    5    5  501    0 -0.12358221431E+03  0.89086363170E+02  0.83765284340E+03  0.85140667125E+03  0.47000000000E+01 0. -1.
        -11    1    6    6    0    0 -0.36683561678E+02  0.15304755619E+02  0.11023621554E+03  0.11718337109E+03  0.00000000000E+00 0.  1.
         12    1    6    6    0    0  0.34020911591E+02 -0.66251124393E+01  0.21360589959E+03  0.21639961848E+03  0.00000000000E+00 0. -1.
         -5    1    3    3    0  503  0.31786714616E+02  0.43292012447E+02  0.26510986811E+03  0.27053636676E+03  0.47000000000E+01 0.  1.
         13    1    4    4    0    0  0.38418979284E+02 -0.86589384416E+02  0.18311435483E+03  0.20616645316E+03  0.00000000000E+00 0. -1.
        -14    1    4    4    0    0  0.56039170498E+02 -0.54468634380E+02  0.34078360907E+03  0.34962935942E+03  0.00000000000E+00 0.  1.
</event>
<event>
12    1  0.8453150E-002  0.1794164E+03  0.7818608E-02  0.1168554E+00
         21   -1    0    0  501  502  0.00000000000E+00  0.00000000000E+00  0.42301206808E+03  0.42301206808E+03  0.00000000000E+00 0. -1.
         21   -1    0    0  502  503 -0.00000000000E+00 -0.00000000000E+00 -0.15933862301E+03  0.15933862301E+03  0.00000000000E+00 0. -1.
         -6    2    1    2    0  503  0.29610019937E+02 -0.38379113922E+02 -0.79159176698E+02  0.19540824067E+03  0.17195492316E+03 0.  0.
        -24    2    3    3    0    0  0.21487260553E+02  0.47238329954E+02 -0.50682553250E+02  0.10469256397E+03  0.75489400342E+02 0.  0.
          6    2    1    2  501    0 -0.29610019937E+02  0.38379113922E+02  0.34283262177E+03  0.38694245042E+03  0.17274415684E+03 0.  0.
         24    2    5    5    0    0  0.25470717724E+01  0.82698976666E+02  0.16702179203E+03  0.20274183524E+03  0.79764430826E+02 0.  0.
          5    1    5    5  501    0 -0.32157091709E+02 -0.44319862744E+02  0.17581082974E+03  0.18420061519E+03  0.47000000000E+01 0. -1.
        -13    1    6    6    0    0 -0.35579776417E+02  0.61523004705E+02  0.10981502353E+03  0.13080649827E+03  0.00000000000E+00 0.  1.
         14    1    6    6    0    0  0.38126848190E+02  0.21175971961E+02  0.57206768501E+02  0.71935336961E+02  0.00000000000E+00 0. -1.
         -5    1    3    3    0  503  0.81227593838E+01 -0.85617443876E+02 -0.28476623448E+02  0.90715676698E+02  0.47000000000E+01 0.  1.
         13    1    4    4    0    0  0.11341066767E+02  0.52692061807E+02 -0.12264318127E+01  0.53912682255E+02  0.00000000000E+00 0. -1.
        -14    1    4    4    0    0  0.10146193786E+02 -0.54537318535E+01 -0.49456121438E+02  0.50779881716E+02  0.00000000000E+00 0.  1.
</event>
<event>
12    1  0.8453150E-002  0.1799106E+03  0.7818608E-02  0.1168058E+00
         21   -1    0    0  501  502  0.00000000000E+00  0.00000000000E+00  0.96304504241E+02  0.96304504241E+02  0.00000000000E+00 0. -1.
         21   -1    0    0  502  503 -0.00000000000E+00 -0.00000000000E+00 -0.54799006348E+03  0.54799006348E+03  0.00000000000E+00 0. -1.
         -6    2    1    2    0  503  0.40970003834E+02 -0.35355088294E+02 -0.42704199818E+03  0.46339259576E+03  0.17157886266E+03 0.  0.
        -24    2    3    3    0    0 -0.53610921407E+01 -0.23920276979E+02 -0.39873954799E+03  0.40771096458E+03  0.81449877517E+02 0.  0.
          6    2    1    2  501    0 -0.40970003834E+02  0.35355088294E+02 -0.24643561060E+02  0.18090197196E+03  0.17084991916E+03 0.  0.
         24    2    5    5    0    0  0.74857551397E+01  0.35310566448E+02 -0.70502467405E+02  0.11402079486E+03  0.82019943409E+02 0.  0.
          5    1    5    5  501    0 -0.48455758974E+02  0.44521846101E-01  0.45858906345E+02  0.66881177106E+02  0.47000000000E+01 0. -1.
        -13    1    6    6    0    0  0.39592950700E+02  0.10048857466E+02 -0.58667331657E+02  0.71487321150E+02  0.00000000000E+00 0.  1.
         14    1    6    6    0    0 -0.32107195560E+02  0.25261708982E+02 -0.11835135748E+02  0.42533473707E+02  0.00000000000E+00 0. -1.
         -5    1    3    3    0  503  0.46331095975E+02 -0.11434811315E+02 -0.28302450191E+02  0.55681631180E+02  0.47000000000E+01 0.  1.
         13    1    4    4    0    0 -0.16057548607E+02  0.23971201169E+02 -0.76568618267E+02  0.81824303579E+02  0.00000000000E+00 0. -1.
        -14    1    4    4    0    0  0.10696456466E+02 -0.47891478148E+02 -0.32217092972E+03  0.32588666100E+03  0.00000000000E+00 0.  1.
</event>
<event>
12    1  0.8453150E-002  0.1912198E+03  0.7818608E-02  0.1159386E+00
         21   -1    0    0  503  502  0.00000000000E+00  0.00000000000E+00  0.26464544547E+03  0.26464544547E+03  0.00000000000E+00 0.  1.
         21   -1    0    0  501  503 -0.00000000000E+00 -0.00000000000E+00 -0.14131970923E+03  0.14131970923E+03  0.00000000000E+00 0.  1.
          6    2    1    2  501    0  0.36842515308E+02  0.48435583809E+02  0.10555315978E+02  0.19151090979E+03  0.18127779004E+03 0.  0.
         24    2    3    3    0    0  0.20478593319E+02  0.29834991672E+02  0.78941467969E+02  0.11862390303E+03  0.80810738716E+02 0.  0.
         -6    2    1    2    0  502 -0.36842515308E+02 -0.48435583809E+02  0.11277042026E+03  0.21445424492E+03  0.17195952652E+03 0.  0.
        -24    2    5    5    0    0 -0.46575398260E+02 -0.57600747555E+02  0.14392847121E+03  0.18022496833E+03  0.79237115946E+02 0.  0.
          5    1    3    3  501    0  0.16363921990E+02  0.18600592137E+02 -0.68386151991E+02  0.72887006763E+02  0.47000000000E+01 0. -1.
        -13    1    4    4    0    0 -0.22455406720E+02  0.38353054314E+02  0.34661313001E+02  0.56361411313E+02  0.00000000000E+00 0.  1.
         14    1    4    4    0    0  0.42934000039E+02 -0.85180626419E+01  0.44280154968E+02  0.62262491714E+02  0.00000000000E+00 0. -1.
         -5    1    5    5    0  502  0.97328829517E+01  0.91651637455E+01 -0.31158050943E+02  0.34229276586E+02  0.47000000000E+01 0.  1.
         13    1    6    6    0    0 -0.13151384173E+02  0.19901159838E+02  0.36560179577E+02  0.43653886417E+02  0.00000000000E+00 0. -1.
        -14    1    6    6    0    0 -0.33424014087E+02 -0.77501907393E+02  0.10736829163E+03  0.13657108191E+03  0.00000000000E+00 0.  1.
</event>
<event>
12    1  0.8453150E-002  0.2824425E+03  0.7818608E-02  0.1094494E+00
         21   -1    0    0  503  502  0.00000000000E+00  0.00000000000E+00  0.80611983522E+03  0.80611983522E+03  0.00000000000E+00 0.  1.
         21   -1    0    0  501  503 -0.00000000000E+00 -0.00000000000E+00 -0.16215401731E+03  0.16215401731E+03  0.00000000000E+00 0. -1.
          6    2    1    2  501    0 -0.20706855484E+03 -0.83668481582E+02  0.19274803978E+02  0.28309938669E+03  0.17290443448E+03 0.  0.
         24    2    3    3    0    0 -0.94704051782E+02 -0.87259443344E+02  0.60146053710E+02  0.16338628963E+03  0.80588237265E+02 0.  0.
         -6    2    1    2    0  502  0.20706855484E+03  0.83668481582E+02  0.62469101393E+03  0.68517446583E+03  0.17131078346E+03 0.  0.
        -24    2    5    5    0    0  0.18006375710E+03  0.12285847853E+02  0.51528405384E+03  0.55169520746E+03  0.79221506648E+02 0.  0.
          5    1    3    3  501    0 -0.11236450305E+03  0.35909617622E+01 -0.40871249731E+02  0.11971309706E+03  0.47000000000E+01 0. -1.
        -13    1    4    4    0    0 -0.96051825300E+02 -0.58573088890E+02  0.20377856536E+02  0.11433292143E+03  0.00000000000E+00 0.  1.
         14    1    4    4    0    0  0.13477735183E+01 -0.28686354454E+02  0.39768197174E+02  0.49053368200E+02  0.00000000000E+00 0. -1.
         -5    1    5    5    0  502  0.27004797736E+02  0.71382633729E+02  0.10940696009E+03  0.13347925837E+03  0.47000000000E+01 0.  1.
         11    1    6    6    0    0  0.37093197848E+02 -0.61348561697E+01  0.39411958546E+02  0.54468745747E+02  0.00000000000E+00 0. -1.
        -12    1    6    6    0    0  0.14297055925E+03  0.18420704022E+02  0.47587209529E+03  0.49722646171E+03  0.00000000000E+00 0.  1.
</event>
<event>
12    1  0.8453150E-002  0.2608425E+03  0.7818608E-02  0.1107019E+00
         21   -1    0    0  503  502  0.00000000000E+00  0.00000000000E+00  0.29790349319E+03  0.29790349319E+03  0.00000000000E+00 0. -1.
         21   -1    0    0  501  503 -0.00000000000E+00 -0.00000000000E+00 -0.43051053085E+03  0.43051053085E+03  0.00000000000E+00 0.  1.
          6    2    1    2  501    0 -0.12511312271E+03  0.14623911993E+03 -0.31704512951E+03  0.40895159958E+03  0.17229226035E+03 0.  0.
         24    2    3    3    0    0 -0.50881204478E+02  0.44086271216E+02 -0.23830449299E+03  0.26006318490E+03  0.79443895194E+02 0.  0.
         -6    2    1    2    0  502  0.12511312271E+03 -0.14623911993E+03  0.18443809185E+03  0.31946242446E+03  0.17606719525E+03 0.  0.
        -24    2    5    5    0    0 -0.65508577134E+01 -0.90510794256E+02  0.81377864988E+02  0.14315431238E+03  0.75071183748E+02 0.  0.
          5    1    3    3  501    0 -0.74231918231E+02  0.10215284871E+03 -0.78740636521E+02  0.14888841467E+03  0.47000000000E+01 0. -1.
        -11    1    4    4    0    0 -0.68382975481E+02  0.15517966986E+02 -0.14882669563E+03  0.16451876479E+03  0.00000000000E+00 0.  1.
         12    1    4    4    0    0  0.17501771003E+02  0.28568304230E+02 -0.89477797359E+02  0.95544420114E+02  0.00000000000E+00 0. -1.
         -5    1    5    5    0  502  0.13166398042E+03 -0.55728325671E+02  0.10306022686E+03  0.17630811208E+03  0.47000000000E+01 0.  1.
         13    1    6    6    0    0 -0.31933795297E+01 -0.88266884197E+02  0.94544222675E+02  0.12938257441E+03  0.00000000000E+00 0. -1.
        -14    1    6    6    0    0 -0.33574781836E+01 -0.22439100597E+01 -0.13166357687E+02  0.13771737975E+02  0.00000000000E+00 0.  1.
</event>
<event>
12    1  0.8453150E-002  0.1859534E+03  0.7818608E-02  0.1163720E+00
         21   -1    0    0  503  502  0.00000000000E+00  0.00000000000E+00  0.23387920905E+02  0.23387920905E+02  0.00000000000E+00 0. -1.
         21   -1    0    0  501  503 -0.00000000000E+00 -0.00000000000E+00 -0.15784305270E+04  0.15784305270E+04  0.00000000000E+00 0. -1.
          6    2    1    2  501    0  0.71406459766E+02  0.73051443256E+00 -0.10132330583E+04  0.10289866724E+04  0.16453852265E+03 0.  0.
         24    2    3    3    0    0  0.29203753845E+02 -0.56518067258E+02 -0.47686991976E+03  0.48790814312E+03  0.81254443431E+02 0.  0.
         -6    2    1    2    0  502 -0.71406459766E+02 -0.73051443256E+00 -0.54180954782E+03  0.57283177551E+03  0.17169519731E+03 0.  0.
        -24    2    5    5    0    0  0.22332962393E+02  0.19020475261E+02 -0.18942326960E+03  0.20762586108E+03  0.79792126387E+02 0.  0.
          5    1    3    3  501    0  0.42202705921E+02  0.57248581691E+02 -0.53636313853E+03  0.54107852930E+03  0.47000000000E+01 0. -1.
        -13    1    4    4    0    0  0.15873092580E+02 -0.59804434293E+02 -0.17306983276E+03  0.18379796636E+03  0.00000000000E+00 0.  1.
         14    1    4    4    0    0  0.13330661265E+02  0.32863670346E+01 -0.30380008701E+03  0.30411017675E+03  0.00000000000E+00 0. -1.
         -5    1    5    5    0  502 -0.93739422159E+02 -0.19750989694E+02 -0.35238627822E+03  0.36520591443E+03  0.47000000000E+01 0.  1.
         11    1    6    6    0    0 -0.16585660803E+02  0.37910421641E+02 -0.82911116655E+02  0.92663571474E+02  0.00000000000E+00 0. -1.
        -12    1    6    6    0    0  0.38918623196E+02 -0.18889946380E+02 -0.10651215295E+03  0.11496228960E+03  0.00000000000E+00 0.  1.
</event>
<event>
12    1  0.8453150E-002  0.2565045E+03  0.7818608E-02  0.1109997E+00
         21   -1    0    0  501  502  0.00000000000E+00  0.00000000000E+00  0.14014987079E+03  0.14014987079E+03  0.00000000000E+00 0. -1.
         21   -1    0    0  502  503 -0.00000000000E+00 -0.00000000000E+00 -0.46163698045E+03  0.46163698045E+03  0.00000000000E+00 0. -1.
         -6    2    1    2    0  503  0.76965678345E+02  0.17349940281E+03 -0.17522325953E+03  0.31064084237E+03  0.17253632618E+03 0.  0.
        -24    2    3    3    0    0  0.91348797251E+02  0.19517305883E+03 -0.15857788584E+03  0.27940336584E+03  0.80511920305E+02 0.  0.
          6    2    1    2  501    0 -0.76965678345E+02 -0.17349940281E+03 -0.14626385014E+03  0.29114600886E+03  0.16536966530E+03 0.  0.
         24    2    5    5    0    0 -0.44769097034E+02 -0.22283248345E+02 -0.75603490704E+02  0.12109330640E+03  0.80292501787E+02 0.  0.
          5    1    5    5  501    0 -0.32196581312E+02 -0.15121615446E+03 -0.70660359433E+02  0.17005270246E+03  0.47000000000E+01 0. -1.
        -13    1    6    6    0    0 -0.22059175696E+02 -0.28230035140E+02 -0.87662991192E+02  0.94701331253E+02  0.00000000000E+00 0.  1.
         14    1    6    6    0    0 -0.22709921338E+02  0.59467867949E+01  0.12059500488E+02  0.26391975151E+02  0.00000000000E+00 0. -1.
         -5    1    3    3    0  503 -0.14383118905E+02 -0.21673656026E+02 -0.16645373684E+02  0.31237476531E+02  0.47000000000E+01 0.  1.
         11    1    4    4    0    0  0.34454004433E+02  0.11322867057E+03 -0.12962187583E+03  0.17552675282E+03  0.00000000000E+00 0. -1.
        -12    1    4    4    0    0  0.56894792818E+02  0.81944388260E+02 -0.28956010012E+02  0.10387661302E+03  0.00000000000E+00 0.  1.
</event>
<event>
12    1  0.8453150E-002  0.1734077E+03  0.7818608E-02  0.1175087E+00
         21   -1    0    0  501  502  0.00000000000E+00  0.00000000000E+00  0.55511967128E+03  0.55511967128E+03  0.00000000000E+00 0.  1.
         21   -1    0    0  502  503 -0.00000000000E+00 -0.00000000000E+00 -0.10481972786E+03  0.10481972786E+03  0.00000000000E+00 0.  1.
         -6    2    1    2    0  503 -0.74567045406E+00 -0.13824777024E+02 -0.72350482409E+01  0.17064551779E+03  0.16992900381E+03 0.  0.
        -24    2    3    3    0    0  0.46799080436E+02 -0.36039509294E+02  0.34502872235E+02  0.10342839443E+03  0.77575669009E+02 0.  0.
          6    2    1    2  501    0  0.74567045406E+00  0.13824777024E+02  0.45753499166E+03  0.48929388135E+03  0.17285413867E+03 0.  0.
         24    2    5    5    0    0 -0.63336665052E+02  0.26021002645E+02  0.24340289978E+03  0.26539672546E+03  0.80633892053E+02 0.  0.
          5    1    5    5  501    0  0.64082335506E+02 -0.12196225621E+02  0.21413209188E+03  0.22389715589E+03  0.47000000000E+01 0. -1.
        -11    1    6    6    0    0 -0.48842132519E+02 -0.39628856064E+01  0.21819202186E+03  0.22362695896E+03  0.00000000000E+00 0.  1.
         12    1    6    6    0    0 -0.14494532533E+02  0.29983888251E+02  0.25210877914E+02  0.41769766497E+02  0.00000000000E+00 0. -1.
         -5    1    3    3    0  503 -0.47544750890E+02  0.22214732270E+02 -0.41737920476E+02  0.67217123359E+02  0.47000000000E+01 0.  1.
         11    1    4    4    0    0 -0.14360933811E+02 -0.10460964293E+02  0.32577085713E+02  0.37107070855E+02  0.00000000000E+00 0. -1.
        -12    1    4    4    0    0  0.61160014247E+02 -0.25578545001E+02  0.19257865222E+01  0.66321323576E+02  0.00000000000E+00 0.  1.
</event>
<event>
12    1  0.8453150E-002  0.2113407E+03  0.7818608E-02  0.1140529E+00
         21   -1    0    0  501  502  0.00000000000E+00  0.00000000000E+00  0.14217166354E+03  0.14217166354E+03  0.00000000000E+00 0. -1.
         21   -1    0    0  502  503 -0.00000000000E+00 -0.00000000000E+00 -0.32606315137E+03  0.32606315137E+03  0.00000000000E+00 0. -1.
         -6    2    1    2    0  503  0.12263421842E+03 -0.21717814857E+01 -0.46910260061E+02  0.21638418437E+03  0.17198161119E+03 0.  0.
        -24    2    3    3    0    0  0.11957534374E+03 -0.56351928730E+02 -0.49548745355E+02  0.16185073891E+03  0.79163001569E+02 0.  0.
          6    2    1    2  501    0 -0.12263421842E+03  0.21717814857E+01 -0.13698122776E+03  0.25185063054E+03  0.17210756863E+03 0.  0.
         24    2    5    5    0    0 -0.11682389217E+03 -0.26241716376E+02 -0.38391203980E+02  0.14897609753E+03  0.79897081498E+02 0.  0.
          5    1    5    5  501    0 -0.58103262452E+01  0.28413497861E+02 -0.98590023781E+02  0.10287453300E+03  0.47000000000E+01 0. -1.
        -11    1    6    6    0    0 -0.96211966574E+01  0.20681087540E+02  0.63751026753E+01  0.23683680903E+02  0.00000000000E+00 0.  1.
         12    1    6    6    0    0 -0.10720269552E+03 -0.46922803916E+02 -0.44766306655E+02  0.12529241663E+03  0.00000000000E+00 0. -1.
         -5    1    3    3    0  503  0.30588746813E+01  0.54180147245E+02  0.26384852943E+01  0.54533445466E+02  0.47000000000E+01 0.  1.
         11    1    4    4    0    0  0.32233566809E+02 -0.14196927650E+02  0.21825111718E+02  0.41435384461E+02  0.00000000000E+00 0. -1.
        -12    1    4    4    0    0  0.87341776928E+02 -0.42155001080E+02 -0.71373857074E+02  0.12041535445E+03  0.00000000000E+00 0.  1.
</event>
<event>
12    1  0.8453150E-002  0.2326556E+03  0.7818608E-02  0.1124861E+00
         21   -1    0    0  503  502  0.00000000000E+00  0.00000000000E+00  0.27690085152E+03  0.27690085152E+03  0.00000000000E+00 0.  1.
         21   -1    0    0  501  503 -0.00000000000E+00 -0.00000000000E+00 -0.30009197512E+03  0.30009197512E+03  0.00000000000E+00 0.  1.
          6    2    1    2  501    0 -0.50131658564E+02  0.14846675395E+03 -0.18222533669E+03  0.29517638749E+03  0.17136938519E+03 0.  0.
         24    2    3    3    0    0 -0.24807560299E+02  0.40440152352E+01 -0.59051566141E+02  0.10362194310E+03  0.81355089097E+02 0.  0.
         -6    2    1    2    0  502  0.50131658564E+02 -0.14846675395E+03  0.15903421309E+03  0.28181643916E+03  0.17196820703E+03 0.  0.
        -24    2    5    5    0    0  0.41266930802E+02 -0.94543759848E+01  0.48333479259E+02  0.10382832973E+03  0.81558886915E+02 0.  0.
          5    1    3    3  501    0 -0.25324098266E+02  0.14442273872E+03 -0.12317377055E+03  0.19155444438E+03  0.47000000000E+01 0. -1.
        -11    1    4    4    0    0 -0.50336897704E+02  0.16085579785E+02 -0.52818827784E+02  0.74715311122E+02  0.00000000000E+00 0.  1.
         12    1    4    4    0    0  0.25529337406E+02 -0.12041564550E+02 -0.62327383563E+01  0.28906631983E+02  0.00000000000E+00 0. -1.
         -5    1    5    5    0  502  0.88647277618E+01 -0.13901237797E+03  0.11070073383E+03  0.17798810942E+03  0.47000000000E+01 0.  1.
         11    1    6    6    0    0  0.23241659796E+02  0.33367391023E+02  0.39192752196E+02  0.56476803720E+02  0.00000000000E+00 0. -1.
        -12    1    6    6    0    0  0.18025271006E+02 -0.42821767008E+02  0.91407270629E+01  0.47351526013E+02  0.00000000000E+00 0.  1.
</event>
<event>
12    1  0.8453150E-002  0.1797832E+03  0.7818608E-02  0.1168316E+00
         21   -1    0    0  503  502  0.00000000000E+00  0.00000000000E+00  0.57073540330E+03  0.57073540330E+03  0.00000000000E+00 0.  1.
         21   -1    0    0  501  503 -0.00000000000E+00 -0.00000000000E+00 -0.56887239800E+02  0.56887239800E+02  0.00000000000E+00 0.  1.
          6    2    1    2  501    0  0.51575689591E+02 -0.81362876705E+01  0.22433342850E+03  0.28748473764E+03  0.17203411376E+03 0.  0.
         24    2    3    3    0    0  0.99144199103E+01 -0.39054864002E+02  0.44074592223E+02  0.99849565534E+02  0.80023671082E+02 0.  0.
         -6    2    1    2    0  502 -0.51575689591E+02  0.81362876705E+01  0.28951473500E+03  0.34013790547E+03  0.17073008527E+03 0.  0.
        -24    2    5    5    0    0 -0.87757192001E+02  0.31267520403E+02  0.15227813922E+03  0.19626251401E+03  0.81555871289E+02 0.  0.
          5    1    3    3  501    0  0.41661269680E+02  0.30918576332E+02  0.18025883628E+03  0.18763517210E+03  0.47000000000E+01 0. -1.
        -11    1    4    4    0    0  0.37123664752E+02 -0.37742433518E+02  0.63526895836E+01  0.53319925332E+02  0.00000000000E+00 0.  1.
         12    1    4    4    0    0 -0.27209244842E+02 -0.13124304841E+01  0.37721902639E+02  0.46529640202E+02  0.00000000000E+00 0. -1.
         -5    1    5    5    0  502  0.36181502410E+02 -0.23131232732E+02  0.13723659578E+03  0.14387539145E+03  0.47000000000E+01 0.  1.
         13    1    6    6    0    0  0.46403796951E+01  0.21633683512E+02  0.59085431433E+01  0.22901097530E+02  0.00000000000E+00 0. -1.
        -14    1    6    6    0    0 -0.92397571696E+02  0.96338368908E+01  0.14636959608E+03  0.17336141648E+03  0.00000000000E+00 0.  1.
</event>
<event>
12    1  0.8453150E-002  0.2151643E+03  0.7818608E-02  0.1137853E+00
         21   -1    0    0  501  502  0.00000000000E+00  0.00000000000E+00  0.20146587026E+03  0.20146587026E+03  0.00000000000E+00 0.  1.
         21   -1    0    0  502  503 -0.00000000000E+00 -0.00000000000E+00 -0.37445287908E+03  0.37445287908E+03  0.00000000000E+00 0. -1.
         -6    2    1    2    0  503 -0.20110018687E+02  0.12603032468E+03 -0.26634078488E+03  0.34137531255E+03  0.17120640976E+03 0.  0.
        -24    2    3    3    0    0 -0.31895811136E+02  0.58729412655E+02 -0.24816656336E+03  0.27051834402E+03  0.84421825391E+02 0.  0.
          6    2    1    2  501    0  0.20110018687E+02 -0.12603032468E+03  0.93353776056E+02  0.23454343678E+03  0.17322713598E+03 0.  0.
         24    2    5    5    0    0  0.70346395977E+02 -0.12265589902E+03  0.91914337224E+02  0.18395448209E+03  0.73470545823E+02 0.  0.
          5    1    5    5  501    0 -0.50236377290E+02 -0.33744256561E+01  0.14394388324E+01  0.50588954683E+02  0.47000000000E+01 0. -1.
        -13    1    6    6    0    0 -0.13325197645E+02 -0.51633571093E+01  0.14043102694E+02  0.20035715165E+02  0.00000000000E+00 0.  1.
         14    1    6    6    0    0  0.83671593622E+02 -0.11749254191E+03  0.77871234530E+02  0.16391876693E+03  0.00000000000E+00 0. -1.
         -5    1    3    3    0  503  0.11785792449E+02  0.67300912022E+02 -0.18174221521E+02  0.70856968539E+02  0.47000000000E+01 0.  1.
         13    1    4    4    0    0 -0.43605389814E+02  0.74425537264E+02 -0.21912056758E+03  0.23548760849E+03  0.00000000000E+00 0. -1.
        -14    1    4    4    0    0  0.11709578678E+02 -0.15696124609E+02 -0.29045995776E+02  0.35030735522E+02  0.00000000000E+00 0.  1.
</event>
<event>
12    1  0.8453150E-002  0.2007527E+03  0.7818608E-02  0.1151565E+00
         21   -1    0    0  501  502  0.00000000000E+00  0.00000000000E+00  0.18358464217E+03  0.18358464217E+03  0.00000000000E+00 0.  1.
         21   -1    0    0  502  503 -0.00000000000E+00 -0.00000000000E+00 -0.30421238874E+03  0.30421238874E+03  0.00000000000E+00 0.  1.
         -6    2    1    2    0  503 -0.18265680206E+02  0.53454342913E+02 -0.19675262660E+03  0.27309572421E+03  0.18077244441E+03 0.  0.
        -24    2    3    3    0    0 -0.83487581372E+02  0.43310289581E+02 -0.13193450224E+03  0.18046593712E+03  0.79468762122E+02 0.  0.
          6    2    1    2  501    0  0.18265680206E+02 -0.53454342913E+02  0.76124880032E+02  0.21470130670E+03  0.19264125178E+03 0.  0.
         24    2    5    5    0    0  0.40732354609E+01 -0.51890718497E+02  0.12911909846E+03  0.15961639410E+03  0.78079534874E+02 0.  0.
          5    1    5    5  501    0  0.14192444745E+02 -0.15636244163E+01 -0.52994218425E+02  0.55084912595E+02  0.47000000000E+01 0. -1.
        -13    1    6    6    0    0 -0.28241814547E+02 -0.36953720696E+02  0.32754641545E+02  0.56886238273E+02  0.00000000000E+00 0.  1.
         14    1    6    6    0    0  0.32315050008E+02 -0.14936997801E+02  0.96364456912E+02  0.10273015583E+03  0.00000000000E+00 0. -1.
         -5    1    3    3    0  503  0.65221901167E+02  0.10144053332E+02 -0.64818124363E+02  0.92629787087E+02  0.47000000000E+01 0.  1.
         11    1    4    4    0    0 -0.30450467565E+02  0.49558445351E+00  0.16471028872E+01  0.30499008620E+02  0.00000000000E+00 0. -1.
        -12    1    4    4    0    0 -0.53037113808E+02  0.42814705128E+02 -0.13358160513E+03  0.14996692850E+03  0.00000000000E+00 0.  1.
</event>
<event>
12    1  0.8453150E-002  0.2016491E+03  0.7818608E-02  0.1150362E+00
         21   -1    0    0  501  502  0.00000000000E+00  0.00000000000E+00  0.10160336790E+03  0.10160336790E+03  0.00000000000E+00 0. -1.
         21   -1    0    0  502  503 -0.00000000000E+00 -0.00000000000E+00 -0.90962825161E+03  0.90962825161E+03  0.00000000000E+00 0. -1.
         -6    2    1    2    0  503  0.10196278253E+03 -0.42512067297E+01 -0.79314939358E+03  0.81838153334E+03  0.17391921055E+03 0.  0.
        -24    2    3    3    0    0  0.12119577287E+02 -0.52422913877E+02 -0.27578830220E+03  0.29105155716E+03  0.75873415939E+02 0.  0.
          6    2    1    2  501    0 -0.10196278253E+03  0.42512067297E+01 -0.14875490126E+02  0.19285008617E+03  0.16295825770E+03 0.  0.
         24    2    5    5    0    0 -0.39368469109E+02 -0.50964431371E+02 -0.34362644302E+02  0.10700922212E+03  0.78249170417E+02 0.  0.
          5    1    5    5  501    0 -0.62594313416E+02  0.55215638101E+02  0.19487154175E+02  0.85840864049E+02  0.47000000000E+01 0. -1.
        -13    1    6    6    0    0  0.23770183201E+02 -0.93849627096E+01 -0.58932766385E+01  0.26226510328E+02  0.00000000000E+00 0.  1.
         14    1    6    6    0    0 -0.63138652310E+02 -0.41579468661E+02 -0.28469367663E+02  0.80782711794E+02  0.00000000000E+00 0. -1.
         -5    1    3    3    0  503  0.89843205239E+02  0.48171707147E+02 -0.51736109138E+03  0.52732997618E+03  0.47000000000E+01 0.  1.
         11    1    4    4    0    0 -0.77312057556E+00  0.18136011237E+02 -0.91775119089E+02  0.93553113807E+02  0.00000000000E+00 0. -1.
        -12    1    4    4    0    0  0.12892697862E+02 -0.70558925114E+02 -0.18401318311E+03  0.19749844336E+03  0.00000000000E+00 0.  1.
</event>
<event>
12    1  0.8453150E-002  0.2033445E+03  0.7818608E-02  0.1146994E+00
         21   -1    0    0  501  502  0.00000000000E+00  0.00000000000E+00  0.89789386000E+03  0.89789386000E+03  0.00000000000E+00 0.  1.
         21   -1    0    0  502  503 -0.00000000000E+00 -0.00000000000E+00 -0.10263437425E+03  0.10263437425E+03  0.00000000000E+00 0.  1.
         -6    2    1    2    0  503  0.10341271209E+03 -0.29443534264E+02  0.26113449907E+02  0.20501442517E+03  0.17259169021E+03 0.  0.
        -24    2    3    3    0    0  0.13926333918E+03 -0.38981799931E+02  0.12567221544E+02  0.16524211977E+03  0.78950394074E+02 0.  0.
          6    2    1    2  501    0 -0.10341271209E+03  0.29443534264E+02  0.76914603584E+03  0.79551380908E+03  0.17232378029E+03 0.  0.
         24    2    5    5    0    0 -0.10752963600E+03 -0.76350586462E+01  0.72605689445E+03  0.73832521563E+03  0.79652955521E+02 0.  0.
          5    1    5    5  501    0  0.41169239032E+01  0.37078592911E+02  0.43089141394E+02  0.57188593450E+02  0.47000000000E+01 0. -1.
        -11    1    6    6    0    0 -0.25623332599E+02 -0.27998917416E+02  0.38958780573E+03  0.39143218177E+03  0.00000000000E+00 0.  1.
         12    1    6    6    0    0 -0.81906303398E+02  0.20363858770E+02  0.33646908872E+03  0.34689303386E+03  0.00000000000E+00 0. -1.
         -5    1    3    3    0  503 -0.35850627084E+02  0.95382656665E+01  0.13546228363E+02  0.39772305403E+02  0.47000000000E+01 0.  1.
         11    1    4    4    0    0  0.47029356564E+01  0.63153798248E+01  0.21584596446E+02  0.22975996819E+02  0.00000000000E+00 0. -1.
        -12    1    4    4    0    0  0.13456040352E+03 -0.45297179756E+02 -0.90173749014E+01  0.14226612295E+03  0.00000000000E+00 0.  1.
</event>
<event>
12    1  0.8453150E-002  0.2121889E+03  0.7818608E-02  0.1140077E+00
         21   -1    0    0  501  502  0.00000000000E+00  0.00000000000E+00  0.66579076391E+02  0.66579076391E+02  0.00000000000E+00 0.  1.
         21   -1    0    0  502  503 -0.00000000000E+00 -0.00000000000E+00 -0.69669013980E+03  0.69669013980E+03  0.00000000000E+00 0.  1.
         -6    2    1    2    0  503  0.12097314998E+03  0.29271542468E+02 -0.24475659370E+03  0.32392885204E+03  0.17185105415E+03 0.  0.
        -24    2    3    3    0    0 -0.37633463568E+01  0.33531579247E+02 -0.11233229237E+03  0.14189691250E+03  0.79860254729E+02 0.  0.
          6    2    1    2  501    0 -0.12097314998E+03 -0.29271542468E+02 -0.38535446970E+03  0.43934036414E+03  0.17038357325E+03 0.  0.
         24    2    5    5    0    0 -0.26239363743E+02  0.15757531965E+02 -0.27045922545E+03  0.28369617071E+03  0.79990753343E+02 0.  0.
          5    1    5    5  501    0 -0.94733786232E+02 -0.45029074432E+02 -0.11489524425E+03  0.15564419343E+03  0.47000000000E+01 0. -1.
        -11    1    6    6    0    0 -0.41502385982E+02  0.18963846682E+02 -0.76239166125E+02  0.88850919942E+02  0.00000000000E+00 0.  1.
         12    1    6    6    0    0  0.15263022238E+02 -0.32063147171E+01 -0.19422005933E+03  0.19484525077E+03  0.00000000000E+00 0. -1.
         -5    1    3    3    0  503  0.12473649633E+03 -0.42600367795E+01 -0.13242430133E+03  0.18203193955E+03  0.47000000000E+01 0.  1.
         11    1    4    4    0    0 -0.21683407885E+02  0.29912384124E+02 -0.11727662247E+03  0.12295823307E+03  0.00000000000E+00 0. -1.
        -12    1    4    4    0    0  0.17920061528E+02  0.36191951231E+01  0.49443300991E+01  0.18938679432E+02  0.00000000000E+00 0.  1.
</event>
<event>
12    1  0.8453150E-002  0.3319157E+03  0.7818608E-02  0.1070306E+00
         21   -1    0    0  501  502  0.00000000000E+00  0.00000000000E+00  0.11279178417E+04  0.11279178417E+04  0.00000000000E+00 0.  1.
         21   -1    0    0  502  503 -0.00000000000E+00 -0.00000000000E+00 -0.19959851361E+03  0.19959851361E+03  0.00000000000E+00 0. -1.
         -6    2    1    2    0  503  0.28144255598E+03 -0.31629390609E+02 -0.10288067377E+02  0.33195024517E+03  0.17284325347E+03 0.  0.
        -24    2    3    3    0    0  0.28744741499E+03 -0.55671303911E+02 -0.20828993115E+02  0.30461394985E+03  0.81427888487E+02 0.  0.
          6    2    1    2  501    0 -0.28144255598E+03  0.31629390609E+02  0.93860739542E+03  0.99556611009E+03  0.17308294587E+03 0.  0.
         24    2    5    5    0    0 -0.25881308465E+03  0.68270285671E+02  0.87568150025E+03  0.91916973290E+03  0.80061621999E+02 0.  0.
          5    1    5    5  501    0 -0.22629471337E+02 -0.36640895062E+02  0.62925895175E+02  0.76396377189E+02  0.47000000000E+01 0. -1.
        -13    1    6    6    0    0 -0.18855888889E+03  0.45055909008E+02  0.49995216863E+03  0.53622444968E+03  0.00000000000E+00 0.  1.
         14    1    6    6    0    0 -0.70254195761E+02  0.23214376663E+02  0.37572933161E+03  0.38294528322E+03  0.00000000000E+00 0. -1.
         -5    1    3    3    0  503 -0.60048590035E+01  0.24041913302E+02  0.10540925738E+02  0.27336295329E+02  0.47000000000E+01 0.  1.
         13    1    4    4    0    0  0.17959000614E+03 -0.36584470636E+01  0.13249780987E+02  0.18011527208E+03  0.00000000000E+00 0. -1.
        -14    1    4    4    0    0  0.10785740885E+03 -0.52012856848E+02 -0.34078774102E+02  0.12449867776E+03  0.00000000000E+00 0.  1.
</event>
<event>
12    1  0.8453150E-002  0.1906220E+03  0.7818608E-02  0.1158207E+00
         21   -1    0    0  503  502  0.00000000000E+00  0.00000000000E+00  0.36403727803E+03  0.36403727803E+03  0.00000000000E+00 0.  1.
         21   -1    0    0  501  503 -0.00000000000E+00 -0.00000000000E+00 -0.99713359374E+02  0.99713359374E+02  0.00000000000E+00 0.  1.
          6    2    1    2  501    0  0.71469396141E+02 -0.35608792382E+02  0.11456504663E+03  0.22240026879E+03  0.17309208235E+03 0.  0.
         24    2    3    3    0    0  0.93690333170E+00 -0.46584359856E+02  0.11760172503E+02  0.97155597184E+02  0.84438901199E+02 0.  0.
         -6    2    1    2    0  502 -0.71469396141E+02  0.35608792382E+02  0.14975887203E+03  0.24135036861E+03  0.17159959206E+03 0.  0.
        -24    2    5    5    0    0 -0.29577028497E+01  0.34834720627E+02  0.22167313454E+02  0.96449895441E+02  0.87114790808E+02 0.  0.
          5    1    3    3  501    0  0.70532492809E+02  0.10975567474E+02  0.10280487412E+03  0.12524467161E+03  0.47000000000E+01 0. -1.
        -11    1    4    4    0    0 -0.43777420068E+00 -0.66473554824E+02  0.27315622330E+02  0.71868410031E+02  0.00000000000E+00 0.  1.
         12    1    4    4    0    0  0.13746775324E+01  0.19889194967E+02 -0.15555449827E+02  0.25287187153E+02  0.00000000000E+00 0. -1.
         -5    1    5    5    0  502 -0.68511693291E+02  0.77407175471E+00  0.12759155857E+03  0.14490047317E+03  0.47000000000E+01 0.  1.
         11    1    6    6    0    0  0.13415998746E+02 -0.18149752589E+02 -0.17253968339E+02  0.28409540032E+02  0.00000000000E+00 0. -1.
        -12    1    6    6    0    0 -0.16373701596E+02  0.52984473216E+02  0.39421281793E+02  0.68040355409E+02  0.00000000000E+00 0.  1.
</event>
<event>
12    1  0.8453150E-002  0.1844614E+03  0.7818608E-02  0.1163806E+00
         21   -1    0    0  501  502  0.00000000000E+00  0.00000000000E+00  0.13358562458E+04  0.13358562458E+04  0.00000000000E+00 0.  1.
         21   -1    0    0  502  503 -0.00000000000E+00 -0.00000000000E+00 -0.26655848431E+02  0.26655848431E+02  0.00000000000E+00 0.  1.
         -6    2    1    2    0  503  0.15883041554E+02 -0.63961216531E+02  0.50046924841E+03  0.53301098178E+03  0.17113716682E+03 0.  0.
        -24    2    3    3    0    0  0.61827673538E+02 -0.79721323508E+02  0.41406221914E+03  0.43377613464E+03  0.80845921525E+02 0.  0.
          6    2    1    2  501    0 -0.15883041554E+02  0.63961216531E+02  0.80873114900E+03  0.82950111249E+03  0.17228672621E+03 0.  0.
         24    2    5    5    0    0  0.15219404366E+02  0.94845253263E+02  0.40389182329E+03  0.42226880102E+03  0.77169184619E+02 0.  0.
          5    1    5    5  501    0 -0.31102445920E+02 -0.30884036733E+02  0.40483932571E+03  0.40723231147E+03  0.47000000000E+01 0. -1.
        -11    1    6    6    0    0 -0.47926505112E+01  0.37367408699E+02  0.29605554917E+03  0.29844292741E+03  0.00000000000E+00 0.  1.
         12    1    6    6    0    0  0.20012054878E+02  0.57477844565E+02  0.10783627413E+03  0.12382587361E+03  0.00000000000E+00 0. -1.
         -5    1    3    3    0  503 -0.45944631984E+02  0.15760106977E+02  0.86407029263E+02  0.99234847136E+02  0.47000000000E+01 0.  1.
         11    1    4    4    0    0  0.53282850703E+02 -0.48288316207E+02  0.37961914312E+03  0.38636966429E+03  0.00000000000E+00 0. -1.
        -12    1    4    4    0    0  0.85448228357E+01 -0.31433007301E+02  0.34443076020E+02  0.47406470349E+02  0.00000000000E+00 0.  1.
</event>
<event>
12    1  0.8453150E-002  0.2273697E+03  0.7818608E-02  0.1128654E+00
         21   -1    0    0  503  502  0.00000000000E+00  0.00000000000E+00  0.37357769372E+03  0.37357769372E+03  0.00000000000E+00 0.  1.
         21   -1    0    0  501  503 -0.00000000000E+00 -0.00000000000E+00 -0.13980621071E+03  0.13980621071E+03  0.00000000000E+00 0.  1.
          6    2    1    2  501    0 -0.98372515007E+02 -0.11204858117E+03  0.14682818120E+03  0.26995811228E+03  0.17054861870E+03 0.  0.
         24    2    3    3    0    0 -0.23066792149E+02  0.88667254287E+01  0.44158376783E+02  0.94303217659E+02  0.79576622829E+02 0.  0.
         -6    2    1    2    0  502  0.98372515007E+02  0.11204858117E+03  0.86943301806E+02  0.24342579215E+03  0.17165355313E+03 0.  0.
        -24    2    5    5    0    0  0.72504298409E+01  0.24508464111E+01  0.11011273417E+02  0.81862613159E+02  0.80756819588E+02 0.  0.
          5    1    3    3  501    0 -0.75305722858E+02 -0.12091530660E+03  0.10266980442E+03  0.17565489462E+03  0.47000000000E+01 0. -1.
        -13    1    4    4    0    0  0.60796507346E+01 -0.20238129840E+02 -0.12273928870E+02  0.24437540433E+02  0.00000000000E+00 0.  1.
         14    1    4    4    0    0 -0.29146442883E+02  0.29104855269E+02  0.56432305653E+02  0.69865677226E+02  0.00000000000E+00 0. -1.
         -5    1    5    5    0  502  0.91122085166E+02  0.10959773476E+03  0.75932028389E+02  0.16156317899E+03  0.47000000000E+01 0.  1.
         13    1    6    6    0    0  0.29335489805E+02 -0.48579777965E+01 -0.25096249180E+02  0.38910058253E+02  0.00000000000E+00 0. -1.
        -14    1    6    6    0    0 -0.22085059964E+02  0.73088242076E+01  0.36107522597E+02  0.42952554907E+02  0.00000000000E+00 0.  1.
</event>
<event>
12    1  0.8453150E-002  0.1868394E+03  0.7818608E-02  0.1162262E+00
         21   -1    0    0  501  502  0.00000000000E+00  0.00000000000E+00  0.13304061129E+04  0.13304061129E+04  0.00000000000E+00 0. -1.
         21   -1    0    0  502  503 -0.00000000000E+00 -0.00000000000E+00 -0.33869089746E+02  0.33869089746E+02  0.00000000000E+00 0. -1.
         -6    2    1    2    0  503 -0.61695280340E+02 -0.56667683063E+01  0.31828660521E+03  0.36907361976E+03  0.17626841426E+03 0.  0.
        -24    2    3    3    0    0 -0.85343162912E+02  0.37875878255E+02  0.27446408266E+03  0.30275855433E+03  0.87259222670E+02 0.  0.
          6    2    1    2  501    0  0.61695280340E+02  0.56667683063E+01  0.97825041796E+03  0.99520158291E+03  0.17208686905E+03 0.  0.
         24    2    5    5    0    0  0.11967477845E+02  0.24267573155E+02  0.87405770537E+03  0.87816716216E+03  0.80427338334E+02 0.  0.
          5    1    5    5  501    0  0.49727802495E+02 -0.18600804848E+02  0.10419271260E+03  0.11703442075E+03  0.47000000000E+01 0. -1.
        -13    1    6    6    0    0  0.16002950366E+01 -0.28825731101E+02  0.22199926767E+03  0.22386861898E+03  0.00000000000E+00 0.  1.
         14    1    6    6    0    0  0.10367182808E+02  0.53093304255E+02  0.65205843770E+03  0.65429854318E+03  0.00000000000E+00 0. -1.
         -5    1    3    3    0  503  0.23647882572E+02 -0.43542646561E+02  0.43822522549E+02  0.66315065425E+02  0.47000000000E+01 0.  1.
         13    1    4    4    0    0 -0.75487730206E+02 -0.99107020145E+01  0.13477345632E+03  0.15479180842E+03  0.00000000000E+00 0. -1.
        -14    1    4    4    0    0 -0.98554327059E+01  0.47786580269E+02  0.13969062635E+03  0.14796674591E+03  0.00000000000E+00 0.  1.
</event>
<event>
12    1  0.8453150E-002  0.2173055E+03  0.7818608E-02  0.1136261E+00
         21   -1    0    0  501  502  0.00000000000E+00  0.00000000000E+00  0.22536122147E+03  0.22536122147E+03  0.00000000000E+00 0.  1.
         21   -1    0    0  502  503 -0.00000000000E+00 -0.00000000000E+00 -0.20842968150E+03  0.20842968150E+03  0.00000000000E+00 0.  1.
         -6    2    1    2    0  503  0.71559619409E+02  0.10855203809E+03 -0.39319879246E+01  0.21548616970E+03  0.17179785999E+03 0.  0.
        -24    2    3    3    0    0  0.51644900365E+02  0.12682705734E+03  0.40466482505E+02  0.16329530325E+03  0.79218190151E+02 0.  0.
          6    2    1    2  501    0 -0.71559619409E+02 -0.10855203809E+03  0.20863527896E+02  0.21830473328E+03  0.17411876887E+03 0.  0.
         24    2    5    5    0    0 -0.57789473860E+02  0.78501909489E+01  0.17884387784E+02  0.10095882960E+03  0.80446163126E+02 0.  0.
          5    1    5    5  501    0 -0.13770145549E+02 -0.11640222904E+03  0.29791401125E+01  0.11734590367E+03  0.47000000000E+01 0. -1.
        -13    1    6    6    0    0 -0.19638762228E+02 -0.28513151448E+02  0.31191481096E+02  0.46600314165E+02  0.00000000000E+00 0.  1.
         14    1    6    6    0    0 -0.38150711632E+02  0.36363342396E+02 -0.13307093312E+02  0.54358515439E+02  0.00000000000E+00 0. -1.
         -5    1    3    3    0  503  0.19914719044E+02 -0.18275019254E+02 -0.44398470430E+02  0.52190866441E+02  0.47000000000E+01 0.  1.
         13    1    4    4    0    0  0.27991681960E+00  0.68472053231E+01  0.31761914479E+02  0.32492795902E+02  0.00000000000E+00 0. -1.
        -14    1    4    4    0    0  0.51364983546E+02  0.11997985202E+03  0.87045680265E+01  0.13080250735E+03  0.00000000000E+00 0.  1.
</event>
<event>
12    1  0.8453150E-002  0.1995248E+03  0.7818608E-02  0.1150174E+00
         21   -1    0    0  501  502  0.00000000000E+00  0.00000000000E+00  0.78010808107E+02  0.78010808107E+02  0.00000000000E+00 0. -1.
         21   -1    0    0  502  503 -0.00000000000E+00 -0.00000000000E+00 -0.53665966439E+03  0.53665966439E+03  0.00000000000E+00 0. -1.
         -6    2    1    2    0  503  0.98752601786E+02 -0.17237560917E+02 -0.29785486308E+03  0.35841891892E+03  0.17232931298E+03 0.  0.
        -24    2    3    3    0    0  0.47381772633E+02 -0.71150125637E+02 -0.12664699432E+03  0.17165770493E+03  0.78227448746E+02 0.  0.
          6    2    1    2  501    0 -0.98752601786E+02  0.17237560917E+02 -0.16079399321E+03  0.25625155359E+03  0.17251359540E+03 0.  0.
         24    2    5    5    0    0 -0.67118309252E+02  0.26386523654E+02 -0.18028297920E+02  0.10966176631E+03  0.80619894543E+02 0.  0.
          5    1    5    5  501    0 -0.31634292534E+02 -0.91489627364E+01 -0.14276569529E+03  0.14658978728E+03  0.47000000000E+01 0. -1.
        -13    1    6    6    0    0 -0.18565395177E+02  0.39192139605E+02 -0.35966269747E+02  0.56340662620E+02  0.00000000000E+00 0.  1.
         14    1    6    6    0    0 -0.48552914075E+02 -0.12805615952E+02  0.17937971827E+02  0.53321103686E+02  0.00000000000E+00 0. -1.
         -5    1    3    3    0  503  0.51370829153E+02  0.53912564720E+02 -0.17120786876E+03  0.18676121398E+03  0.47000000000E+01 0.  1.
         13    1    4    4    0    0  0.65679764772E+02 -0.71424262064E+02 -0.10006291400E+03  0.13938379916E+03  0.00000000000E+00 0. -1.
        -14    1    4    4    0    0 -0.18297992139E+02  0.27413642688E+00 -0.26584080323E+02  0.32273905771E+02  0.00000000000E+00 0.  1.
</event>
<event>
12    1  0.8453150E-002  0.3929963E+03  0.7818608E-02  0.1046273E+00
         21   -1    0    0  501  502  0.00000000000E+00  0.00000000000E+00  0.21256055171E+03  0.21256055171E+03  0.00000000000E+00 0.  1.
         21   -1    0    0  502  503 -0.00000000000E+00 -0.00000000000E+00 -0.76274702642E+03  0.76274702642E+03  0.00000000000E+00 0. -1.
         -6    2    1    2    0  503  0.35083469495E+03 -0.41905205063E+02 -0.38266105279E+03  0.54852124341E+03  0.17206116284E+03 0.  0.
        -24    2    3    3    0    0  0.11009840739E+03  0.43089897024E+01 -0.20130458801E+03  0.24355900105E+03  0.81591808031E+02 0.  0.
          6    2    1    2  501    0 -0.35083469495E+03  0.41905205063E+02 -0.16752542192E+03  0.42678633473E+03  0.17099935417E+03 0.  0.
         24    2    5    5    0    0 -0.35712058356E+03  0.17184446716E+02 -0.15816257677E+03  0.39921132506E+03  0.80770446047E+02 0.  0.
          5    1    5    5  501    0  0.62858886096E+01  0.24720758347E+02 -0.93628451546E+01  0.27575009669E+02  0.47000000000E+01 0. -1.
        -13    1    6    6    0    0 -0.12834934179E+03  0.27440375946E+02 -0.22859665837E+02  0.13322571859E+03  0.00000000000E+00 0.  1.
         14    1    6    6    0    0 -0.22877124176E+03 -0.10255929230E+02 -0.13530291093E+03  0.26598560647E+03  0.00000000000E+00 0. -1.
         -5    1    3    3    0  503  0.24073628756E+03 -0.46214194765E+02 -0.18135646477E+03  0.30496224235E+03  0.47000000000E+01 0.  1.
         13    1    4    4    0    0  0.81300732477E+02  0.40140057741E+02 -0.12388733888E+03  0.15352233085E+03  0.00000000000E+00 0. -1.
        -14    1    4    4    0    0  0.28797674912E+02 -0.35831068038E+02 -0.77417249136E+02  0.90036670201E+02  0.00000000000E+00 0.  1.
</event>
<event>
12    1  0.8453150E-002  0.1955490E+03  0.7818608E-02  0.1153693E+00
         21   -1    0    0  501  502  0.00000000000E+00  0.00000000000E+00  0.47013552751E+03  0.47013552751E+03  0.00000000000E+00 0. -1.
         21   -1    0    0  502  503 -0.00000000000E+00 -0.00000000000E+00 -0.86726111226E+02  0.86726111226E+02  0.00000000000E+00 0. -1.
         -6    2    1    2    0  503  0.86876859070E+02 -0.29088456298E+02  0.12025866404E+03  0.22900842569E+03  0.17201449308E+03 0.  0.
        -24    2    3    3    0    0  0.10657490963E+03 -0.68191008288E+02  0.93330343171E+02  0.17739207913E+03  0.82153343246E+02 0.  0.
          6    2    1    2  501    0 -0.86876859070E+02  0.29088456298E+02  0.26315075224E+03  0.32785321304E+03  0.17275903439E+03 0.  0.
         24    2    5    5    0    0 -0.37144338715E+02 -0.18724372754E+02  0.45748666174E+02  0.99719157650E+02  0.78234684841E+02 0.  0.
          5    1    5    5  501    0 -0.49732520355E+02  0.47812829052E+02  0.21740208607E+03  0.22813405539E+03  0.47000000000E+01 0. -1.
        -11    1    6    6    0    0 -0.66077771890E+01  0.24907370215E+02 -0.48926581561E+01  0.26229333088E+02  0.00000000000E+00 0.  1.
         12    1    6    6    0    0 -0.30536561526E+02 -0.43631742969E+02  0.50641324330E+02  0.73489824563E+02  0.00000000000E+00 0. -1.
         -5    1    3    3    0  503 -0.19698050560E+02  0.39102551990E+02  0.26928320873E+02  0.51616346568E+02  0.47000000000E+01 0.  1.
         13    1    4    4    0    0  0.29023452583E+02  0.18506678874E+02  0.24221295914E+02  0.42089537162E+02  0.00000000000E+00 0. -1.
        -14    1    4    4    0    0  0.77551457047E+02 -0.86697687162E+02  0.69109047257E+02  0.13530254196E+03  0.00000000000E+00 0.  1.
</event>
<event>
12    1  0.8453150E-002  0.1830778E+03  0.7818608E-02  0.1164885E+00
         21   -1    0    0  501  502  0.00000000000E+00  0.00000000000E+00  0.26566008534E+03  0.26566008534E+03  0.00000000000E+00 0.  1.
         21   -1    0    0  502  503 -0.00000000000E+00 -0.00000000000E+00 -0.21981337644E+03  0.21981337644E+03  0.00000000000E+00 0.  1.
         -6    2    1    2    0  503  0.16716491477E+02 -0.60335364755E+02 -0.13558471155E+03  0.22772387685E+03  0.17191612128E+03 0.  0.
        -24    2    3    3    0    0  0.42881381337E+02 -0.51300024101E+02 -0.15926445385E+03  0.19099433782E+03  0.81505616267E+02 0.  0.
          6    2    1    2  501    0 -0.16716491477E+02  0.60335364755E+02  0.18143142044E+03  0.25774958492E+03  0.17203979446E+03 0.  0.
         24    2    5    5    0    0  0.53265937955E+02  0.25353535274E+02  0.67822567844E+02  0.11972665128E+03  0.79085450117E+02 0.  0.
          5    1    5    5  501    0 -0.69982429432E+02  0.34981829481E+02  0.11360885260E+03  0.13802293365E+03  0.47000000000E+01 0. -1.
        -11    1    6    6    0    0 -0.12510178691E+02 -0.16080207136E+02  0.19450373685E+02  0.28167262361E+02  0.00000000000E+00 0.  1.
         12    1    6    6    0    0  0.65776116646E+02  0.41433742410E+02  0.48372194159E+02  0.91559388917E+02  0.00000000000E+00 0. -1.
         -5    1    3    3    0  503 -0.26164889860E+02 -0.90353406534E+01  0.23679742299E+02  0.36729539032E+02  0.47000000000E+01 0.  1.
         13    1    4    4    0    0 -0.24229037345E+02 -0.14569454370E+02 -0.34044911250E+02  0.44253488375E+02  0.00000000000E+00 0. -1.
        -14    1    4    4    0    0  0.67110418682E+02 -0.36730569731E+02 -0.12521954260E+03  0.14674084945E+03  0.00000000000E+00 0.  1.
</event>
<event>
12    1  0.8453150E-002  0.2717851E+03  0.7818608E-02  0.1100276E+00
         21   -1    0    0  501  502  0.00000000000E+00  0.00000000000E+00  0.20068977041E+03  0.20068977041E+03  0.00000000000E+00 0. -1.
         21   -1    0    0  502  503 -0.00000000000E+00 -0.00000000000E+00 -0.41628498393E+03  0.41628498393E+03  0.00000000000E+00 0.  1.
         -6    2    1    2    0  503 -0.14500457692E+03  0.15087802987E+03 -0.21291242414E+03  0.34517640095E+03  0.17327590772E+03 0.  0.
        -24    2    3    3    0    0 -0.80876652286E+01  0.32658725055E+02 -0.41309762257E+02  0.95793947075E+02  0.79611438797E+02 0.  0.
          6    2    1    2  501    0  0.14500457692E+03 -0.15087802987E+03 -0.26827893722E+01  0.27179835339E+03  0.17342618119E+03 0.  0.
         24    2    5    5    0    0  0.19496438005E+02 -0.69492218060E+02 -0.44334891826E+02  0.11645057923E+03  0.79911671890E+02 0.  0.
          5    1    5    5  501    0  0.12550813891E+03 -0.81385811810E+02  0.41652102453E+02  0.15534777416E+03  0.47000000000E+01 0. -1.
        -11    1    6    6    0    0  0.29061060349E+02 -0.24710618198E+02 -0.57320363198E+02  0.68853350808E+02  0.00000000000E+00 0.  1.
         12    1    6    6    0    0 -0.95646223439E+01 -0.44781599862E+02  0.12985471373E+02  0.47597228423E+02  0.00000000000E+00 0. -1.
         -5    1    3    3    0  503 -0.13691691169E+03  0.11821930481E+03 -0.17160266188E+03  0.24938245388E+03  0.47000000000E+01 0.  1.
         11    1    4    4    0    0  0.14711053263E-01  0.39352404853E+02  0.12248293103E+02  0.41214471586E+02  0.00000000000E+00 0. -1.
        -12    1    4    4    0    0 -0.81023762819E+01 -0.66936797984E+01 -0.53558055361E+02  0.54579475489E+02  0.00000000000E+00 0.  1.
</event>
<event>
12    1  0.8453150E-002  0.1809636E+03  0.7818608E-02  0.1167205E+00
         21   -1    0    0  503  502  0.00000000000E+00  0.00000000000E+00  0.39113677384E+03  0.39113677384E+03  0.00000000000E+00 0. -1.
         21   -1    0    0  501  503 -0.00000000000E+00 -0.00000000000E+00 -0.16190972497E+03  0.16190972497E+03  0.00000000000E+00 0. -1.
          6    2    1    2  501    0 -0.50819407829E+02  0.15578343351E+02 -0.78544198628E+02  0.19601572482E+03  0.17154496858E+03 0.  0.
         24    2    3    3    0    0 -0.35723181296E+02  0.34976048829E+02  0.16896596198E+02  0.97348595795E+02  0.81803327967E+02 0.  0.
         -6    2    1    2    0  502  0.50819407829E+02 -0.15578343351E+02  0.30777124750E+03  0.35703077398E+03  0.17298131630E+03 0.  0.
        -24    2    5    5    0    0  0.70795899996E+01  0.17800667966E+02  0.29354531770E+03  0.30000624295E+03  0.58888945435E+02 0.  0.
          5    1    3    3  501    0 -0.15096226533E+02 -0.19397705477E+02 -0.95440794826E+02  0.98667129026E+02  0.47000000000E+01 0. -1.
        -13    1    4    4    0    0  0.19025764809E+02  0.89248304863E+01 -0.17757507695E+02  0.27512931601E+02  0.00000000000E+00 0.  1.
         14    1    4    4    0    0 -0.54748946105E+02  0.26051218342E+02  0.34654103893E+02  0.69835664193E+02  0.00000000000E+00 0. -1.
         -5    1    5    5    0  502  0.43739817829E+02 -0.33379011317E+02  0.14225929803E+02  0.57024531028E+02  0.47000000000E+01 0.  1.
         11    1    6    6    0    0  0.28580660418E+02  0.22211050634E+02  0.22870831334E+03  0.23155491252E+03  0.00000000000E+00 0. -1.
        -12    1    6    6    0    0 -0.21501070418E+02 -0.44103826684E+01  0.64837004360E+02  0.68451330439E+02  0.00000000000E+00 0.  1.
</event>
<event>
12    1  0.8453150E-002  0.2223108E+03  0.7818608E-02  0.1134217E+00
         21   -1    0    0  501  502  0.00000000000E+00  0.00000000000E+00  0.32929029125E+03  0.32929029125E+03  0.00000000000E+00 0.  1.
         21   -1    0    0  502  503 -0.00000000000E+00 -0.00000000000E+00 -0.23201496133E+03  0.23201496133E+03  0.00000000000E+00 0.  1.
         -6    2    1    2    0  503 -0.92030412018E+02 -0.82274911451E+02 -0.12455042809E+03  0.25482329887E+03  0.18488738929E+03 0.  0.
        -24    2    3    3    0    0 -0.11218152317E+03 -0.11330914669E+03 -0.12393286454E+03  0.21751830695E+03  0.80815852888E+02 0.  0.
          6    2    1    2  501    0  0.92030412018E+02  0.82274911451E+02  0.22182575801E+03  0.30648195371E+03  0.17171419058E+03 0.  0.
         24    2    5    5    0    0  0.79276063597E+02  0.92086883945E+02  0.83868664791E+02  0.16751002210E+03  0.79126266910E+02 0.  0.
          5    1    5    5  501    0  0.12754348421E+02 -0.98119724940E+01  0.13795709322E+03  0.13897193161E+03  0.47000000000E+01 0. -1.
        -13    1    6    6    0    0  0.54772200635E+02  0.31857989816E+02  0.80437416519E+02  0.10239679416E+03  0.00000000000E+00 0.  1.
         14    1    6    6    0    0  0.24503862962E+02  0.60228894129E+02  0.34312482721E+01  0.65113227940E+02  0.00000000000E+00 0. -1.
         -5    1    3    3    0  503  0.20151111150E+02  0.31034235243E+02 -0.61756354863E+00  0.37304991924E+02  0.47000000000E+01 0.  1.
         11    1    4    4    0    0 -0.14729494188E+02 -0.67331174362E+02 -0.32507217850E+02  0.76204752164E+02  0.00000000000E+00 0. -1.
        -12    1    4    4    0    0 -0.97452028980E+02 -0.45977972332E+02 -0.91425646691E+02  0.14131355478E+03  0.00000000000E+00 0.  1.
</event>
<event>
12    1  0.8453150E-002  0.1858487E+03  0.7818608E-02  0.1162516E+00
         21   -1    0    0  501  502  0.00000000000E+00  0.00000000000E+00  0.20745543079E+02  0.20745543079E+02  0.00000000000E+00 0.  1.
         21   -1    0    0  502  503 -0.00000000000E+00 -0.00000000000E+00 -0.17780600312E+04  0.17780600312E+04  0.00000000000E+00 0.  1.
         -6    2    1    2    0  503 -0.56347879230E+02 -0.35044109602E+02 -0.63970976192E+03  0.66585365670E+03  0.17242198099E+03 0.  0.
        -24    2    3    3    0    0  0.98494626174E+01  0.19411642787E+02 -0.17087257164E+03  0.18922180922E+03  0.78317517563E+02 0.  0.
          6    2    1    2  501    0  0.56347879230E+02  0.35044109602E+02 -0.11176047262E+04  0.11329519176E+04  0.17359882032E+03 0.  0.
         24    2    5    5    0    0 -0.11861960039E+01  0.77283212880E+02 -0.56635764832E+03  0.57708345964E+03  0.79310979885E+02 0.  0.
          5    1    5    5  501    0  0.57534075234E+02 -0.42239103278E+02 -0.55124707790E+03  0.55586845796E+03  0.47000000000E+01 0. -1.
        -13    1    6    6    0    0  0.32792669390E+02  0.47312337125E+02 -0.41847295485E+03  0.42241381411E+03  0.00000000000E+00 0.  1.
         14    1    6    6    0    0 -0.33978865394E+02  0.29970875755E+02 -0.14788469346E+03  0.15466964553E+03  0.00000000000E+00 0. -1.
         -5    1    3    3    0  503 -0.66197341848E+02 -0.54455752389E+02 -0.46883719029E+03  0.47663184748E+03  0.47000000000E+01 0.  1.
         11    1    4    4    0    0  0.36891627442E+01  0.36904276397E+02 -0.31614028050E+02  0.48733790205E+02  0.00000000000E+00 0. -1.
        -12    1    4    4    0    0  0.61602998732E+01 -0.17492633610E+02 -0.13925854359E+03  0.14048801901E+03  0.00000000000E+00 0.  1.
</event>
<event>
12    1  0.8453150E-002  0.1913103E+03  0.7818608E-02  0.1157761E+00
         21   -1    0    0  503  502  0.00000000000E+00  0.00000000000E+00  0.20042907904E+03  0.20042907904E+03  0.00000000000E+00 0.  1.
         21   -1    0    0  501  503 -0.00000000000E+00 -0.00000000000E+00 -0.18600575647E+03  0.18600575647E+03  0.00000000000E+00 0.  1.
          6    2    1    2  501    0  0.69774526667E+02 -0.44933738964E+02 -0.25798026368E+02  0.19094219883E+03  0.17001723343E+03 0.  0.
         24    2    3    3    0    0 -0.25926676047E+02 -0.41205642041E+02 -0.13535982631E+02  0.94272314050E+02  0.79586109992E+02 0.  0.
         -6    2    1    2    0  502 -0.69774526667E+02  0.44933738964E+02  0.40221348941E+02  0.19549263668E+03  0.17237194846E+03 0.  0.
        -24    2    5    5    0    0 -0.71779831635E+02  0.64833015369E+02  0.81912533922E+02  0.14901417549E+03  0.78357495953E+02 0.  0.
          5    1    3    3  501    0  0.95701202714E+02 -0.37280969225E+01 -0.12262043737E+02  0.96669884784E+02  0.47000000000E+01 0. -1.
        -11    1    4    4    0    0  0.45424709469E+01  0.74953027046E+01  0.24066725068E+02  0.25612904178E+02  0.00000000000E+00 0.  1.
         12    1    4    4    0    0 -0.30469146994E+02 -0.48700944746E+02 -0.37602707699E+02  0.68659409872E+02  0.00000000000E+00 0. -1.
         -5    1    5    5    0  502  0.20053049684E+01 -0.19899276406E+02 -0.41691184981E+02  0.46478461190E+02  0.47000000000E+01 0.  1.
         11    1    6    6    0    0 -0.15009547040E+01  0.34941562359E+02 -0.26441673363E+01  0.35073597848E+02  0.00000000000E+00 0. -1.
        -12    1    6    6    0    0 -0.70278876931E+02  0.29891453011E+02  0.84556701259E+02  0.11394057764E+03  0.00000000000E+00 0.  1.
</event>
<event>
12    1  0.8453150E-002  0.1774253E+03  0.7818608E-02  0.1171334E+00
         21   -1    0    0  503  502  0.00000000000E+00  0.00000000000E+00  0.18759806770E+03  0.18759806770E+03  0.00000000000E+00 0. -1.
         21   -1    0    0  501  503 -0.00000000000E+00 -0.00000000000E+00 -0.19466784450E+03  0.19466784450E+03  0.00000000000E+00 0. -1.
          6    2    1    2  501    0 -0.13431608660E+02  0.23384842920E+02  0.72383197044E+02  0.18786295379E+03  0.17124807503E+03 0.  0.
         24    2    3    3    0    0  0.42033008450E+02 -0.21061423982E+01  0.86366953145E+02  0.12506367419E+03  0.80065363111E+02 0.  0.
         -6    2    1    2    0  502  0.13431608660E+02 -0.23384842920E+02 -0.79452973848E+02  0.19440295841E+03  0.17536383947E+03 0.  0.
        -24    2    5    5    0    0  0.33285504106E+02 -0.11589443088E+02  0.21357411477E+02  0.90874544865E+02  0.80992616359E+02 0.  0.
          5    1    3    3  501    0 -0.55464617110E+02  0.25490985318E+02 -0.13983756101E+02  0.62799279600E+02  0.47000000000E+01 0. -1.
        -13    1    4    4    0    0  0.49971662353E+02  0.25031577064E+02  0.33638809875E+02  0.65232786377E+02  0.00000000000E+00 0.  1.
         14    1    4    4    0    0 -0.79386539027E+01 -0.27137719462E+02  0.52728143270E+02  0.59830887810E+02  0.00000000000E+00 0. -1.
         -5    1    5    5    0  502 -0.19853895446E+02 -0.11795399832E+02 -0.10081038533E+03  0.10352841354E+03  0.47000000000E+01 0.  1.
         11    1    6    6    0    0  0.23360573417E+02 -0.37813489160E+02 -0.13206150813E+02  0.46367863571E+02  0.00000000000E+00 0. -1.
        -12    1    6    6    0    0  0.99249306891E+01  0.26224046072E+02  0.34563562290E+02  0.44506681294E+02  0.00000000000E+00 0.  1.
</event>
<event>
12    1  0.8453150E-002  0.2403589E+03  0.7818608E-02  0.1119640E+00
         21   -1    0    0  501  502  0.00000000000E+00  0.00000000000E+00  0.25694939159E+03  0.25694939159E+03  0.00000000000E+00 0. -1.
         21   -1    0    0  502  503 -0.00000000000E+00 -0.00000000000E+00 -0.32292043578E+03  0.32292043578E+03  0.00000000000E+00 0.  1.
         -6    2    1    2    0  503 -0.31212979211E+02 -0.16453120437E+03 -0.19319071962E+03  0.30837487007E+03  0.17241704981E+03 0.  0.
        -24    2    3    3    0    0 -0.25531988991E+01 -0.96511478717E+02 -0.30822976048E+02  0.12995558794E+03  0.81347493112E+02 0.  0.
          6    2    1    2  501    0  0.31212979211E+02  0.16453120437E+03  0.12721967543E+03  0.27149495730E+03  0.17169711337E+03 0.  0.
         24    2    5    5    0    0 -0.22024098956E+02  0.14150875415E+03  0.45726466856E+02  0.17135778763E+03  0.82236203547E+02 0.  0.
          5    1    5    5  501    0  0.53237078166E+02  0.23022450222E+02  0.81493208573E+02  0.10013716967E+03  0.47000000000E+01 0. -1.
        -11    1    6    6    0    0  0.38301105161E+01  0.18430751783E+01 -0.15949879907E+02  0.16506524217E+02  0.00000000000E+00 0.  1.
         12    1    6    6    0    0 -0.25854209472E+02  0.13966567897E+03  0.61676346763E+02  0.15485126341E+03  0.00000000000E+00 0. -1.
         -5    1    3    3    0  503 -0.28659780311E+02 -0.68019725651E+02 -0.16236774357E+03  0.17841928213E+03  0.47000000000E+01 0.  1.
         11    1    4    4    0    0  0.36263851217E+02 -0.69250201951E+02 -0.25497861716E+02  0.82224073892E+02  0.00000000000E+00 0. -1.
        -12    1    4    4    0    0 -0.38817050116E+02 -0.27261276766E+02 -0.53251143317E+01  0.47731514048E+02  0.00000000000E+00 0.  1.
</event>
<event>
12    1  0.8453150E-002  0.1827036E+03  0.7818608E-02  0.1165824E+00
         21   -1    0    0  503  502  0.00000000000E+00  0.00000000000E+00  0.80242693442E+02  0.80242693442E+02  0.00000000000E+00 0.  1.
         21   -1    0    0  501  503 -0.00000000000E+00 -0.00000000000E+00 -0.75680481718E+03  0.75680481718E+03  0.00000000000E+00 0.  1.
          6    2    1    2  501    0  0.59128025866E+02 -0.36230673224E+01 -0.62022385505E+03  0.64585494521E+03  0.17012269048E+03 0.  0.
         24    2    3    3    0    0 -0.14075182961E+02  0.11120169952E+02 -0.15971803735E+03  0.17931044469E+03  0.79502296599E+02 0.  0.
         -6    2    1    2    0  502 -0.59128025866E+02  0.36230673224E+01 -0.56338268690E+02  0.19119256542E+03  0.17283329104E+03 0.  0.
        -24    2    5    5    0    0 -0.65725017350E+02  0.33235841475E+02 -0.93552381290E+02  0.14294925639E+03  0.79107792233E+02 0.  0.
          5    1    3    3  501    0  0.73203208828E+02 -0.14743237275E+02 -0.46050581770E+03  0.46654450052E+03  0.47000000000E+01 0. -1.
        -11    1    4    4    0    0 -0.39530335095E+02 -0.17471675583E+02 -0.84909576329E+02  0.95276140732E+02  0.00000000000E+00 0.  1.
         12    1    4    4    0    0  0.25455152133E+02  0.28591845535E+02 -0.74808461021E+02  0.84034303957E+02  0.00000000000E+00 0. -1.
         -5    1    5    5    0  502  0.65969914834E+01 -0.29612774153E+02  0.37214112600E+02  0.48243309031E+02  0.47000000000E+01 0.  1.
         13    1    6    6    0    0 -0.36618098984E+02  0.52210091414E+02 -0.86547901692E+02  0.10750496782E+03  0.00000000000E+00 0. -1.
        -14    1    6    6    0    0 -0.29106918365E+02 -0.18974249939E+02 -0.70044795980E+01  0.35444288565E+02  0.00000000000E+00 0.  1.
</event>
<event>
12    1  0.8453150E-002  0.2602531E+03  0.7818608E-02  0.1107321E+00
         21   -1    0    0  503  502  0.00000000000E+00  0.00000000000E+00  0.30027633303E+03  0.30027633303E+03  0.00000000000E+00 0.  1.
         21   -1    0    0  501  503 -0.00000000000E+00 -0.00000000000E+00 -0.23040202409E+03  0.23040202409E+03  0.00000000000E+00 0.  1.
          6    2    1    2  501    0  0.99652454893E+02 -0.16692136614E+03 -0.10551458796E+02  0.25828158908E+03  0.16971945008E+03 0.  0.
         24    2    3    3    0    0  0.28521715674E+02 -0.13676145548E+03  0.39747028919E+02  0.16597107971E+03  0.80308088162E+02 0.  0.
         -6    2    1    2    0  502 -0.99652454893E+02  0.16692136614E+03  0.80425767730E+02  0.27239676804E+03  0.17302699466E+03 0.  0.
        -24    2    5    5    0    0 -0.93511171158E+02  0.85672414896E+02 -0.10566989170E+02  0.15016387863E+03  0.79708389647E+02 0.  0.
          5    1    3    3  501    0  0.71130739220E+02 -0.30159910665E+02 -0.50298487715E+02  0.92310509368E+02  0.47000000000E+01 0. -1.
        -13    1    4    4    0    0 -0.36917640527E+01 -0.11639982179E+03  0.86406003194E+01  0.11677845524E+03  0.00000000000E+00 0.  1.
         14    1    4    4    0    0  0.32213479726E+02 -0.20361633690E+02  0.31106428600E+02  0.49192624476E+02  0.00000000000E+00 0. -1.
         -5    1    5    5    0  502 -0.61412837354E+01  0.81248951245E+02  0.90992756901E+02  0.12223288941E+03  0.47000000000E+01 0.  1.
         11    1    6    6    0    0 -0.27607988934E+02  0.66117668973E+02 -0.31551103897E+02  0.78289331077E+02  0.00000000000E+00 0. -1.
        -12    1    6    6    0    0 -0.65903182224E+02  0.19554745924E+02  0.20984114726E+02  0.71874547555E+02  0.00000000000E+00 0.  1.
</event>
<event>
12    1  0.8453150E-002  0.1726936E+03  0.7818608E-02  0.1175148E+00
         21   -1    0    0  501  502  0.00000000000E+00  0.00000000000E+00  0.15362486925E+04  0.15362486925E+04  0.00000000000E+00 0.  1.
         21   -1    0    0  502  503 -0.00000000000E+00 -0.00000000000E+00 -0.28567378710E+02  0.28567378710E+02  0.00000000000E+00 0.  1.
         -6    2    1    2    0  503 -0.72945114976E+01 -0.94944055304E+01  0.31054544288E+03  0.35533301452E+03  0.17227804701E+03 0.  0.
        -24    2    3    3    0    0  0.17942654919E+02  0.57863991283E+02  0.17488841611E+03  0.20171339631E+03  0.80200721975E+02 0.  0.
          6    2    1    2  501    0  0.72945114976E+01  0.94944055304E+01  0.11971358709E+04  0.12094830567E+04  0.17196400019E+03 0.  0.
         24    2    5    5    0    0  0.51022883710E+02  0.46765365373E+02  0.94491813088E+03  0.95076086326E+03  0.79281845273E+02 0.  0.
          5    1    5    5  501    0 -0.43728372212E+02 -0.37270959842E+02  0.25221774003E+03  0.25872219342E+03  0.47000000000E+01 0. -1.
        -11    1    6    6    0    0  0.41440937926E+02  0.68892466929E+02  0.67602310491E+03  0.68078686951E+03  0.00000000000E+00 0.  1.
         12    1    6    6    0    0  0.95819457840E+01 -0.22127101557E+02  0.26889502597E+03  0.26997399375E+03  0.00000000000E+00 0. -1.
         -5    1    3    3    0  503 -0.25237166417E+02 -0.67358396813E+02  0.13565702676E+03  0.15361961821E+03  0.47000000000E+01 0.  1.
         13    1    4    4    0    0  0.20844488886E+01  0.75923090901E+02  0.12356120049E+03  0.14503803269E+03  0.00000000000E+00 0. -1.
        -14    1    4    4    0    0  0.15858206030E+02 -0.18059099618E+02  0.51327215626E+02  0.56675363620E+02  0.00000000000E+00 0.  1.
</event>
<event>
12    1  0.8453150E-002  0.2291444E+03  0.7818608E-02  0.1127271E+00
         21   -1    0    0  503  502  0.00000000000E+00  0.00000000000E+00  0.10345212872E+03  0.10345212872E+03  0.00000000000E+00 0. -1.
         21   -1    0    0  501  503 -0.00000000000E+00 -0.00000000000E+00 -0.51547824608E+03  0.51547824608E+03  0.00000000000E+00 0. -1.
          6    2    1    2  501    0 -0.12246683876E+03  0.88834170728E+02 -0.16688167510E+03  0.28347252216E+03  0.17209747485E+03 0.  0.
         24    2    3    3    0    0 -0.64654362813E+02  0.16695688231E+02 -0.15926299213E+03  0.19059422888E+03  0.80638246400E+02 0.  0.
         -6    2    1    2    0  502  0.12246683876E+03 -0.88834170728E+02 -0.24514444227E+03  0.33545785264E+03  0.17189106096E+03 0.  0.
        -24    2    5    5    0    0  0.12732358238E+03 -0.10278884894E+02 -0.15457545389E+03  0.21537724410E+03  0.78592850999E+02 0.  0.
          5    1    3    3  501    0 -0.57812475952E+02  0.72138482496E+02 -0.76186829636E+01  0.92878293280E+02  0.47000000000E+01 0. -1.
        -13    1    4    4    0    0 -0.17508516576E+02 -0.32259057733E+02 -0.57941984546E+02  0.68589128378E+02  0.00000000000E+00 0.  1.
         14    1    4    4    0    0 -0.47145846237E+02  0.48954745964E+02 -0.10132100759E+03  0.12200510050E+03  0.00000000000E+00 0. -1.
         -5    1    5    5    0  502 -0.48567436149E+01 -0.78555285833E+02 -0.90568988384E+02  0.12008060854E+03  0.47000000000E+01 0.  1.
         11    1    6    6    0    0  0.65303906663E+02 -0.34718849281E+01 -0.22245418923E+02  0.69076138235E+02  0.00000000000E+00 0. -1.
        -12    1    6    6    0    0  0.62019675716E+02 -0.68069999663E+01 -0.13233003496E+03  0.14630110587E+03  0.00000000000E+00 0.  1.
</event>
<event>
12    1  0.8453150E-002  0.2915717E+03  0.7818608E-02  0.1089973E+00
         21   -1    0    0  501  502  0.00000000000E+00  0.00000000000E+00  0.37356296550E+03  0.37356296550E+03  0.00000000000E+00 0. -1.
         21   -1    0    0  502  503 -0.00000000000E+00 -0.00000000000E+00 -0.28437202559E+03  0.28437202559E+03  0.00000000000E+00 0.  1.
         -6    2    1    2    0  503 -0.21234840622E+03  0.92006184546E+02 -0.10599813968E+03  0.30706059133E+03  0.17173705923E+03 0.  0.
        -24    2    3    3    0    0 -0.69199926056E+02  0.96769191932E+02 -0.69834860469E+02  0.15926327614E+03  0.79592569491E+02 0.  0.
          6    2    1    2  501    0  0.21234840622E+03 -0.92006184546E+02  0.19518907959E+03  0.35087439976E+03  0.17736145015E+03 0.  0.
         24    2    5    5    0    0  0.24995782958E+02 -0.56990918809E+02  0.82646101167E+02  0.12948088976E+03  0.77859930538E+02 0.  0.
          5    1    5    5  501    0  0.18735262326E+03 -0.35015265737E+02  0.11254297842E+03  0.22139351000E+03  0.47000000000E+01 0. -1.
        -11    1    6    6    0    0  0.50610855353E+02 -0.24692841300E+02  0.34261306806E+02  0.65916858504E+02  0.00000000000E+00 0.  1.
         12    1    6    6    0    0 -0.25615072394E+02 -0.32298077509E+02  0.48384794361E+02  0.63564031259E+02  0.00000000000E+00 0. -1.
         -5    1    3    3    0  503 -0.14314848016E+03 -0.47630073861E+01 -0.36163279207E+02  0.14779731518E+03  0.47000000000E+01 0.  1.
         11    1    4    4    0    0 -0.25891922153E+01 -0.50348728421E+01  0.11569948108E+02  0.12880899040E+02  0.00000000000E+00 0. -1.
        -12    1    4    4    0    0 -0.66610733841E+02  0.10180406477E+03 -0.81404808577E+02  0.14638237710E+03  0.00000000000E+00 0.  1.
</event>
<event>
12    1  0.8453150E-002  0.1841650E+03  0.7818608E-02  0.1164025E+00
         21   -1    0    0  501  502  0.00000000000E+00  0.00000000000E+00  0.89938096432E+03  0.89938096432E+03  0.00000000000E+00 0. -1.
         21   -1    0    0  502  503 -0.00000000000E+00 -0.00000000000E+00 -0.99129574244E+02  0.99129574244E+02  0.00000000000E+00 0. -1.
         -6    2    1    2    0  503 -0.63704045241E+02 -0.42289221391E+01  0.69487152742E+01  0.18429605560E+03  0.17274450006E+03 0.  0.
        -24    2    3    3    0    0 -0.59532636216E+02  0.46392123107E+02 -0.37866633671E+02  0.11639615592E+03  0.80111293248E+02 0.  0.
          6    2    1    2  501    0  0.63704045241E+02  0.42289221391E+01  0.79330267480E+03  0.81421448297E+03  0.17187204911E+03 0.  0.
         24    2    5    5    0    0  0.70603952471E+02  0.45335265116E+02  0.72420822669E+03  0.73338458186E+03  0.79593875044E+02 0.  0.
          5    1    5    5  501    0 -0.68999072298E+01 -0.41106342977E+02  0.69094448116E+02  0.80829901108E+02  0.47000000000E+01 0. -1.
        -11    1    6    6    0    0 -0.13193088431E+02 -0.88188213894E+01  0.10276226318E+03  0.10398034395E+03  0.00000000000E+00 0.  1.
         12    1    6    6    0    0  0.83797040901E+02  0.54154086505E+02  0.62144596351E+03  0.62940423792E+03  0.00000000000E+00 0. -1.
         -5    1    3    3    0  503 -0.41714090248E+01 -0.50621045246E+02  0.44815348946E+02  0.67899899677E+02  0.47000000000E+01 0.  1.
         11    1    4    4    0    0 -0.15417092606E+02  0.57554011540E+02 -0.40870486403E+01  0.59723152591E+02  0.00000000000E+00 0. -1.
        -12    1    4    4    0    0 -0.44115543610E+02 -0.11161888433E+02 -0.33779585031E+02  0.56673003328E+02  0.00000000000E+00 0.  1.
</event>
<event>
12    1  0.8453150E-002  0.1876066E+03  0.7818608E-02  0.1160796E+00
         21   -1    0    0  503  502  0.00000000000E+00  0.00000000000E+00  0.59355438721E+03  0.59355438721E+03  0.00000000000E+00 0. -1.
         21   -1    0    0  501  503 -0.00000000000E+00 -0.00000000000E+00 -0.77851414774E+02  0.77851414774E+02  0.00000000000E+00 0. -1.
          6    2    1    2  501    0 -0.19445956743E+02  0.75529012395E+02  0.92647538131E+02  0.20861843822E+03  0.16986850649E+03 0.  0.
         24    2    3    3    0    0 -0.88076311017E+01 -0.26124138717E+02  0.32782297964E+02  0.90075306477E+02  0.79239111478E+02 0.  0.
         -6    2    1    2    0  502  0.19445956743E+02 -0.75529012395E+02  0.42305543431E+03  0.46278736377E+03  0.17062668788E+03 0.  0.
        -24    2    5    5    0    0  0.78692794984E+02 -0.55066599385E+02  0.28081500071E+03  0.30727746331E+03  0.79608344342E+02 0.  0.
          5    1    3    3  501    0 -0.10638325641E+02  0.10165315111E+03  0.59865240167E+02  0.11854313174E+03  0.47000000000E+01 0. -1.
        -11    1    4    4    0    0  0.14312832000E+02  0.53467275978E+01  0.46296175701E+02  0.48752236261E+02  0.00000000000E+00 0.  1.
         12    1    4    4    0    0 -0.23120463101E+02 -0.31470866314E+02 -0.13513877737E+02  0.41323070216E+02  0.00000000000E+00 0. -1.
         -5    1    5    5    0  502 -0.59246838241E+02 -0.20462413010E+02  0.14224043360E+03  0.15550990045E+03  0.47000000000E+01 0.  1.
         11    1    6    6    0    0  0.45624643660E+02 -0.52882117927E+02  0.91639988767E+02  0.11522158672E+03  0.00000000000E+00 0. -1.
        -12    1    6    6    0    0  0.33068151324E+02 -0.21844814577E+01  0.18917501194E+03  0.19205587659E+03  0.00000000000E+00 0.  1.
</event>
<event>
12    1  0.8453150E-002  0.1750697E+03  0.7818608E-02  0.1173261E+00
         21   -1    0    0  503  502  0.00000000000E+00  0.00000000000E+00  0.14223955020E+03  0.14223955020E+03  0.00000000000E+00 0.  1.
         21   -1    0    0  501  503 -0.00000000000E+00 -0.00000000000E+00 -0.23449678723E+03  0.23449678723E+03  0.00000000000E+00 0.  1.
          6    2    1    2  501    0  0.35588247392E+01 -0.64626524745E+01 -0.10401254220E+03  0.20363691083E+03  0.17491412580E+03 0.  0.
         24    2    3    3    0    0  0.69322455739E+02 -0.12478637821E+02 -0.45573409760E+02  0.11532910006E+03  0.79136251945E+02 0.  0.
         -6    2    1    2    0  502 -0.35588247392E+01  0.64626524745E+01  0.11755305173E+02  0.17309942659E+03  0.17254214899E+03 0.  0.
        -24    2    5    5    0    0 -0.13407973124E+02  0.52090371694E+02 -0.38445606260E+02  0.10438904896E+03  0.80782599219E+02 0.  0.
          5    1    3    3  501    0 -0.65763631000E+02  0.60159853468E+01 -0.58439132444E+02  0.88307810769E+02  0.47000000000E+01 0. -1.
        -13    1    4    4    0    0  0.51173939510E+01 -0.14662648273E+02 -0.48594660081E+02  0.51015899126E+02  0.00000000000E+00 0.  1.
         14    1    4    4    0    0  0.64205061788E+02  0.21840104520E+01  0.30212503213E+01  0.64313200934E+02  0.00000000000E+00 0. -1.
         -5    1    5    5    0  502  0.98491483851E+01 -0.45627719220E+02  0.50200911433E+02  0.68710377628E+02  0.47000000000E+01 0.  1.
         11    1    6    6    0    0  0.18708800976E+02 -0.13759123967E+02 -0.14182602364E+02  0.27211742614E+02  0.00000000000E+00 0. -1.
        -12    1    6    6    0    0 -0.32116774100E+02  0.65849495662E+02 -0.24263003897E+02  0.77177306351E+02  0.00000000000E+00 0.  1.
</event>
<event>
12    1  0.8453150E-002  0.2002529E+03  0.7818608E-02  0.1149566E+00
         21   -1    0    0  501  502  0.00000000000E+00  0.00000000000E+00  0.32231810315E+02  0.32231810315E+02  0.00000000000E+00 0. -1.
         21   -1    0    0  502  503 -0.00000000000E+00 -0.00000000000E+00 -0.12880550826E+04  0.12880550826E+04  0.00000000000E+00 0. -1.
         -6    2    1    2    0  503 -0.90103438366E+02  0.51070728410E+02 -0.75170219035E+03  0.77791863062E+03  0.17138950957E+03 0.  0.
        -24    2    3    3    0    0 -0.58429153255E+02  0.89326382980E+02 -0.38512858014E+03  0.40796585372E+03  0.81969176574E+02 0.  0.
          6    2    1    2  501    0  0.90103438366E+02 -0.51070728410E+02 -0.50412108197E+03  0.54236826232E+03  0.17116780592E+03 0.  0.
         24    2    5    5    0    0  0.24650533701E+02  0.54364799165E+01 -0.10461778993E+03  0.13358700337E+03  0.79141653847E+02 0.  0.
          5    1    5    5  501    0  0.65452904665E+02 -0.56507208327E+02 -0.39950329204E+03  0.40878125896E+03  0.47000000000E+01 0. -1.
        -11    1    6    6    0    0  0.36594204656E+02  0.34379072778E+02 -0.76492557485E+02  0.91499550874E+02  0.00000000000E+00 0.  1.
         12    1    6    6    0    0 -0.11943670955E+02 -0.28942592862E+02 -0.28125232442E+02  0.42087452493E+02  0.00000000000E+00 0. -1.
         -5    1    3    3    0  503 -0.31674285111E+02 -0.38255654570E+02 -0.36657361021E+03  0.36995277691E+03  0.47000000000E+01 0.  1.
         11    1    4    4    0    0 -0.60188072004E+02  0.33740064403E+02 -0.28695536201E+03  0.29513450450E+03  0.00000000000E+00 0. -1.
        -12    1    4    4    0    0  0.17589187492E+01  0.55586318577E+02 -0.98173218131E+02  0.11283134922E+03  0.00000000000E+00 0.  1.
</event>
<event>
12    1  0.8453150E-002  0.1751372E+03  0.7818608E-02  0.1173224E+00
         21   -1    0    0  501  502  0.00000000000E+00  0.00000000000E+00  0.10664450164E+04  0.10664450164E+04  0.00000000000E+00 0.  1.
         21   -1    0    0  502  503 -0.00000000000E+00 -0.00000000000E+00 -0.40768306419E+02  0.40768306419E+02  0.00000000000E+00 0.  1.
         -6    2    1    2    0  503  0.11715542929E+02 -0.10336411036E+02  0.20479285561E+03  0.26785442720E+03  0.17193540974E+03 0.  0.
        -24    2    3    3    0    0 -0.39145047565E+02 -0.49886607290E+02  0.79515535382E+02  0.12690225569E+03  0.75897653435E+02 0.  0.
          6    2    1    2  501    0 -0.11715542929E+02  0.10336411036E+02  0.82088385433E+03  0.83935889558E+03  0.17443898059E+03 0.  0.
         24    2    5    5    0    0  0.50263755598E+02  0.35703377269E+02  0.36887120402E+03  0.38238795289E+03  0.79708249790E+02 0.  0.
          5    1    5    5  501    0 -0.61979298528E+02 -0.25366966233E+02  0.45201265031E+03  0.45697094269E+03  0.47000000000E+01 0. -1.
        -13    1    6    6    0    0 -0.18160563726E+02  0.25737857815E+02  0.12440710625E+03  0.12833304908E+03  0.00000000000E+00 0.  1.
         14    1    6    6    0    0  0.68424319324E+02  0.99655194546E+01  0.24446409777E+03  0.25405490382E+03  0.00000000000E+00 0. -1.
         -5    1    3    3    0  503  0.50860590494E+02  0.39550196255E+02  0.12527732022E+03  0.14095217150E+03  0.47000000000E+01 0.  1.
         11    1    4    4    0    0 -0.51662988680E+02 -0.49823879301E+01  0.47439528428E+02  0.70316409509E+02  0.00000000000E+00 0. -1.
        -12    1    4    4    0    0  0.12517941115E+02 -0.44904219360E+02  0.32076006954E+02  0.56585846183E+02  0.00000000000E+00 0.  1.
</event>
<event>
12    1  0.8453150E-002  0.2041429E+03  0.7818608E-02  0.1146400E+00
         21   -1    0    0  501  502  0.00000000000E+00  0.00000000000E+00  0.38314107681E+02  0.38314107681E+02  0.00000000000E+00 0.  1.
         21   -1    0    0  502  503 -0.00000000000E+00 -0.00000000000E+00 -0.17609768681E+04  0.17609768681E+04  0.00000000000E+00 0. -1.
         -6    2    1    2    0  503  0.99337750316E+02 -0.45612817332E+02 -0.14180877614E+04  0.14326300496E+04  0.17177730403E+03 0.  0.
        -24    2    3    3    0    0  0.67678927843E+02  0.37104118690E+02 -0.62766965862E+03  0.63725137263E+03  0.78504513669E+02 0.  0.
          6    2    1    2  501    0 -0.99337750316E+02  0.45612817332E+02 -0.30457499897E+03  0.36666092616E+03  0.17241167892E+03 0.  0.
         24    2    5    5    0    0  0.98257695754E+01  0.20526382964E+01 -0.16734427100E+03  0.18591655979E+03  0.80374766542E+02 0.  0.
          5    1    5    5  501    0 -0.10916351989E+03  0.43560179036E+02 -0.13723072798E+03  0.18074436637E+03  0.47000000000E+01 0. -1.
        -11    1    6    6    0    0  0.17096793907E+02  0.19151215515E+02 -0.10114873050E+02  0.27593116432E+02  0.00000000000E+00 0.  1.
         12    1    6    6    0    0 -0.72710243320E+01 -0.17098577219E+02 -0.15722939795E+03  0.15832344336E+03  0.00000000000E+00 0. -1.
         -5    1    3    3    0  503  0.31658822473E+02 -0.82716936022E+02 -0.79041810280E+03  0.79537867697E+03  0.47000000000E+01 0.  1.
         13    1    4    4    0    0  0.51734965765E+02 -0.16254970796E+02 -0.29183924071E+03  0.29683475736E+03  0.00000000000E+00 0. -1.
        -14    1    4    4    0    0  0.15943962078E+02  0.53359089486E+02 -0.33583041791E+03  0.34041661527E+03  0.00000000000E+00 0.  1.
</event>
<event>
12    1  0.8453150E-002  0.1947313E+03  0.7818608E-02  0.1154347E+00
         21   -1    0    0  501  502  0.00000000000E+00  0.00000000000E+00  0.86801979878E+02  0.86801979878E+02  0.00000000000E+00 0.  1.
         21   -1    0    0  502  503 -0.00000000000E+00 -0.00000000000E+00 -0.47453547929E+03  0.47453547929E+03  0.00000000000E+00 0. -1.
         -6    2    1    2    0  503  0.68039749632E+02 -0.58239867385E+02 -0.27367973371E+03  0.33566389009E+03  0.17247713119E+03 0.  0.
        -24    2    3    3    0    0  0.42429789161E+02  0.87332198339E+01 -0.52661373417E+02  0.10325805954E+03  0.77539992733E+02 0.  0.
          6    2    1    2  501    0 -0.68039749632E+02  0.58239867385E+02 -0.11405376570E+03  0.22567356908E+03  0.17291329800E+03 0.  0.
         24    2    5    5    0    0  0.15566137546E+02  0.72379707372E+02 -0.56606867413E+02  0.12314496054E+03  0.80493584780E+02 0.  0.
          5    1    5    5  501    0 -0.83605887178E+02 -0.14139839987E+02 -0.57446898290E+02  0.10252860854E+03  0.47000000000E+01 0. -1.
        -11    1    6    6    0    0 -0.10081552037E+02  0.79351433270E+02 -0.53844068142E+02  0.96423396163E+02  0.00000000000E+00 0.  1.
         12    1    6    6    0    0  0.25647689583E+02 -0.69717258983E+01 -0.27627992714E+01  0.26721564377E+02  0.00000000000E+00 0. -1.
         -5    1    3    3    0  503  0.25609960471E+02 -0.66973087219E+02 -0.22101836030E+03  0.23240583055E+03  0.47000000000E+01 0.  1.
         13    1    4    4    0    0 -0.20242639600E+02  0.15619566129E+02 -0.18401248051E+02  0.31501448123E+02  0.00000000000E+00 0. -1.
        -14    1    4    4    0    0  0.62672428760E+02 -0.68863462953E+01 -0.34260125366E+02  0.71756611418E+02  0.00000000000E+00 0.  1.
</event>
<event>
12    1  0.8453150E-002  0.2863259E+03  0.7818608E-02  0.1092299E+00
         21   -1    0    0  503  502  0.00000000000E+00  0.00000000000E+00  0.14808439432E+03  0.14808439432E+03  0.00000000000E+00 0.  1.
         21   -1    0    0  501  503 -0.00000000000E+00 -0.00000000000E+00 -0.77894870238E+03  0.77894870238E+03  0.00000000000E+00 0.  1.
          6    2    1    2  501    0  0.20172781770E+03 -0.10713921409E+03 -0.56490459372E+03  0.63332432339E+03  0.17265449594E+03 0.  0.
         24    2    3    3    0    0  0.12094713052E+03 -0.41297815913E+01 -0.37943578569E+03  0.40626214831E+03  0.80200712009E+02 0.  0.
         -6    2    1    2    0  502 -0.20172781770E+03  0.10713921409E+03 -0.65959714348E+02  0.29370877330E+03  0.17245647558E+03 0.  0.
        -24    2    5    5    0    0 -0.93712344203E+02  0.74294446167E+02 -0.10048886080E+03  0.17555432671E+03  0.80122670299E+02 0.  0.
          5    1    3    3  501    0  0.80780687173E+02 -0.10300943250E+03 -0.18546880802E+03  0.22706217508E+03  0.47000000000E+01 0. -1.
        -13    1    4    4    0    0  0.22095665362E+02 -0.23503324821E+02 -0.17959555176E+03  0.18246968767E+03  0.00000000000E+00 0.  1.
         14    1    4    4    0    0  0.98851465162E+02  0.19373543229E+02 -0.19984023393E+03  0.22379246064E+03  0.00000000000E+00 0. -1.
         -5    1    5    5    0  502 -0.10801547349E+03  0.32844767923E+02  0.34529146452E+02  0.11815444659E+03  0.47000000000E+01 0.  1.
         11    1    6    6    0    0 -0.62949578762E+02  0.17518482940E+00 -0.53118126612E+02  0.82366349505E+02  0.00000000000E+00 0. -1.
        -12    1    6    6    0    0 -0.30762765441E+02  0.74119261337E+02 -0.47370734189E+02  0.93187977209E+02  0.00000000000E+00 0.  1.
</event>
<event>
12    1  0.8453150E-002  0.1971535E+03  0.7818608E-02  0.1153038E+00
         21   -1    0    0  503  502  0.00000000000E+00  0.00000000000E+00  0.88718516041E+02  0.88718516041E+02  0.00000000000E+00 0. -1.
         21   -1    0    0  501  503 -0.00000000000E+00 -0.00000000000E+00 -0.45078759968E+03  0.45078759968E+03  0.00000000000E+00 0. -1.
          6    2    1    2  501    0 -0.46017483524E+02  0.77228558375E+02 -0.24181612318E+03  0.31200088059E+03  0.17546410756E+03 0.  0.
         24    2    3    3    0    0  0.24378285320E+02  0.15729506714E+01 -0.52692989134E+02  0.96434220186E+02  0.76982028747E+02 0.  0.
         -6    2    1    2    0  502  0.46017483524E+02 -0.77228558375E+02 -0.12025296046E+03  0.22750523513E+03  0.17092688054E+03 0.  0.
        -24    2    5    5    0    0  0.22595782220E+02 -0.53257439268E+02  0.48452523520E+01  0.97910314347E+02  0.78841797124E+02 0.  0.
          5    1    3    3  501    0 -0.70395768845E+02  0.75655607704E+02 -0.18912313404E+03  0.21556666041E+03  0.47000000000E+01 0. -1.
        -13    1    4    4    0    0 -0.29073945903E+01  0.17034907130E+01  0.19222867277E+02  0.19515979357E+02  0.00000000000E+00 0.  1.
         14    1    4    4    0    0  0.27285679911E+02 -0.13054004163E+00 -0.71915856411E+02  0.76918240829E+02  0.00000000000E+00 0. -1.
         -5    1    5    5    0  502  0.23421701305E+02 -0.23971119108E+02 -0.12509821281E+03  0.12959492078E+03  0.47000000000E+01 0.  1.
         11    1    6    6    0    0 -0.74126578553E+01 -0.46192295596E+02  0.32119767273E+02  0.56748172822E+02  0.00000000000E+00 0. -1.
        -12    1    6    6    0    0  0.30008440075E+02 -0.70651436714E+01 -0.27274514921E+02  0.41162141526E+02  0.00000000000E+00 0.  1.
</event>
<event>
12    1  0.8453150E-002  0.1864678E+03  0.7818608E-02  0.1161877E+00
         21   -1    0    0  503  502  0.00000000000E+00  0.00000000000E+00  0.52455217536E+02  0.52455217536E+02  0.00000000000E+00 0. -1.
         21   -1    0    0  501  503 -0.00000000000E+00 -0.00000000000E+00 -0.67442627237E+03  0.67442627237E+03  0.00000000000E+00 0. -1.
          6    2    1    2  501    0 -0.20984311191E+02 -0.69003827352E+02 -0.36359506927E+03  0.40824626846E+03  0.17106072550E+03 0.  0.
         24    2    3    3    0    0 -0.59053814343E+02 -0.87911007600E+01 -0.28299873497E+03  0.30057678060E+03  0.81813694457E+02 0.  0.
         -6    2    1    2    0  502  0.20984311191E+02  0.69003827352E+02 -0.25837598556E+03  0.31863522144E+03  0.17195460135E+03 0.  0.
        -24    2    5    5    0    0  0.35116935027E+01  0.85070002551E+02 -0.88937741323E+02  0.14747791671E+03  0.81182367290E+02 0.  0.
          5    1    3    3  501    0  0.38069503152E+02 -0.60212726592E+02 -0.80596334308E+02  0.10766948787E+03  0.47000000000E+01 0. -1.
        -13    1    4    4    0    0 -0.33148682728E+01  0.32005442875E+02 -0.93481412689E+02  0.98864104930E+02  0.00000000000E+00 0.  1.
         14    1    4    4    0    0 -0.55738946070E+02 -0.40796543635E+02 -0.18951732228E+03  0.20171267567E+03  0.00000000000E+00 0. -1.
         -5    1    5    5    0  502  0.17472617688E+02 -0.16066175199E+02 -0.16943824424E+03  0.17115730474E+03  0.47000000000E+01 0.  1.
         11    1    6    6    0    0  0.87706406284E+01  0.86999371407E+02 -0.10135202939E+03  0.13385831549E+03  0.00000000000E+00 0. -1.
        -12    1    6    6    0    0 -0.52589471257E+01 -0.19293688557E+01  0.12414288072E+02  0.13619601220E+02  0.00000000000E+00 0.  1.
</event>
<event>
12    1  0.8453150E-002  0.2459911E+03  0.7818608E-02  0.1116023E+00
         21   -1    0    0  501  502  0.00000000000E+00  0.00000000000E+00  0.19299764810E+03  0.19299764810E+03  0.00000000000E+00 0. -1.
         21   -1    0    0  502  503 -0.00000000000E+00 -0.00000000000E+00 -0.32335315301E+03  0.32335315301E+03  0.00000000000E+00 0. -1.
         -6    2    1    2    0  503  0.13392998805E+03  0.11314701543E+03 -0.11281131398E+03  0.26973488925E+03  0.17114622145E+03 0.  0.
        -24    2    3    3    0    0  0.23127576266E+02  0.77834696563E+02 -0.10144169995E+03  0.15279262809E+03  0.80386839341E+02 0.  0.
          6    2    1    2  501    0 -0.13392998805E+03 -0.11314701543E+03 -0.17544190928E+02  0.24661591186E+03  0.17254599546E+03 0.  0.
         24    2    5    5    0    0 -0.11349954161E+03 -0.54934662651E+02  0.48425645471E+02  0.15617150644E+03  0.78387072764E+02 0.  0.
          5    1    5    5  501    0 -0.20430446434E+02 -0.58212352779E+02 -0.65969836399E+02  0.90444405422E+02  0.47000000000E+01 0. -1.
        -11    1    6    6    0    0 -0.54440721480E+02 -0.16387586985E+02 -0.17648377698E+02  0.59529911791E+02  0.00000000000E+00 0.  1.
         12    1    6    6    0    0 -0.59058820131E+02 -0.38547075666E+02  0.66074023169E+02  0.96641594645E+02  0.00000000000E+00 0. -1.
         -5    1    3    3    0  503  0.11080241178E+03  0.35312318867E+02 -0.11369614037E+02  0.11694226115E+03  0.47000000000E+01 0.  1.
         13    1    4    4    0    0 -0.16489136673E+02  0.51675956620E+02 -0.18657321965E+02  0.57361936715E+02  0.00000000000E+00 0. -1.
        -14    1    4    4    0    0  0.39616712939E+02  0.26158739943E+02 -0.82784377981E+02  0.95430691379E+02  0.00000000000E+00 0.  1.
</event>
<event>
12    1  0.8453150E-002  0.3482132E+03  0.7818608E-02  0.1063524E+00
         21   -1    0    0  503  502  0.00000000000E+00  0.00000000000E+00  0.59285795255E+03  0.59285795255E+03  0.00000000000E+00 0. -1.
         21   -1    0    0  501  503 -0.00000000000E+00 -0.00000000000E+00 -0.41662758904E+03  0.41662758904E+03  0.00000000000E+00 0.  1.
          6    2    1    2  501    0 -0.25149972986E+03  0.16637048960E+03 -0.27275180710E+03  0.44231890161E+03  0.17412986108E+03 0.  0.
         24    2    3    3    0    0 -0.18601889293E+03  0.88576690059E+02 -0.25627313774E+03  0.33920124165E+03  0.83262852836E+02 0.  0.
         -6    2    1    2    0  502  0.25149972986E+03 -0.16637048960E+03  0.44898217061E+03  0.56716663998E+03  0.17076812949E+03 0.  0.
        -24    2    5    5    0    0  0.72335902464E+02 -0.94428284570E+02  0.26037875848E+03  0.29722461847E+03  0.79976197967E+02 0.  0.
          5    1    3    3  501    0 -0.65480836935E+02  0.77793799536E+02 -0.16478669359E+02  0.10311765996E+03  0.47000000000E+01 0. -1.
        -13    1    4    4    0    0 -0.45113330256E+02 -0.92923422214E+01 -0.85598428849E+02  0.97204172813E+02  0.00000000000E+00 0.  1.
         14    1    4    4    0    0 -0.14090556267E+03  0.97869032280E+02 -0.17067470889E+03  0.24199706884E+03  0.00000000000E+00 0. -1.
         -5    1    5    5    0  502  0.17916382740E+03 -0.71942205025E+02  0.18860341213E+03  0.26994202151E+03  0.47000000000E+01 0.  1.
         13    1    6    6    0    0  0.37560147437E+02  0.11230371765E+01  0.10509530923E+03  0.11161115496E+03  0.00000000000E+00 0. -1.
        -14    1    6    6    0    0  0.34775755027E+02 -0.95551321746E+02  0.15528344925E+03  0.18561346351E+03  0.00000000000E+00 0.  1.
</event>
<event>
12    1  0.8453150E-002  0.6459292E+03  0.7818608E-02  0.9814505E-01
         21   -1    0    0  503  502  0.00000000000E+00  0.00000000000E+00  0.69858131421E+03  0.69858131421E+03  0.00000000000E+00 0. -1.
         21   -1    0    0  501  503 -0.00000000000E+00 -0.00000000000E+00 -0.62867105392E+03  0.62867105392E+03  0.00000000000E+00 0.  1.
          6    2    1    2  501    0 -0.61919291114E+03  0.66072456527E+02  0.18359243996E+03  0.67151370948E+03  0.17163638102E+03 0.  0.
         24    2    3    3    0    0 -0.46389731079E+03 -0.60822022759E+01  0.10245424456E+03  0.48196552292E+03  0.80970271766E+02 0.  0.
         -6    2    1    2    0  502  0.61919291114E+03 -0.66072456527E+02 -0.11368217967E+03  0.65573865865E+03  0.17118446118E+03 0.  0.
        -24    2    5    5    0    0  0.62113614762E+03 -0.49458144459E+02 -0.11544337056E+03  0.63827431420E+03  0.76227989824E+02 0.  0.
          5    1    3    3  501    0 -0.15529560035E+03  0.72154658803E+02  0.81138195402E+02  0.18954818656E+03  0.47000000000E+01 0. -1.
        -11    1    4    4    0    0 -0.12406537252E+02 -0.59178615079E+01  0.17992678547E+02  0.22642432129E+02  0.00000000000E+00 0.  1.
         12    1    4    4    0    0 -0.45149077354E+03 -0.16434076798E+00  0.84461566008E+02  0.45932309079E+03  0.00000000000E+00 0. -1.
         -5    1    5    5    0  502 -0.19432364761E+01 -0.16614312068E+02  0.17611908927E+01  0.17464344444E+02  0.47000000000E+01 0.  1.
         11    1    6    6    0    0  0.23752372556E+03 -0.19976566749E+02 -0.82030740357E+02  0.25208257731E+03  0.00000000000E+00 0. -1.
        -12    1    6    6    0    0  0.38361242206E+03 -0.29481577710E+02 -0.33412630205E+02  0.38619173689E+03  0.00000000000E+00 0.  1.
</event>
<event>
12    1  0.8453150E-002  0.2320693E+03  0.7818608E-02  0.1125413E+00
         21   -1    0    0  501  502  0.00000000000E+00  0.00000000000E+00  0.23464554654E+03  0.23464554654E+03  0.00000000000E+00 0. -1.
         21   -1    0    0  502  503 -0.00000000000E+00 -0.00000000000E+00 -0.26335184331E+03  0.26335184331E+03  0.00000000000E+00 0. -1.
         -6    2    1    2    0  503  0.77383857086E+02 -0.13289821221E+03 -0.10519996380E+03  0.25364636916E+03  0.17210244641E+03 0.  0.
        -24    2    3    3    0    0  0.67804468529E+02 -0.16579972571E+03 -0.97567900916E+02  0.21822585731E+03  0.77563100178E+02 0.  0.
          6    2    1    2  501    0 -0.77383857086E+02  0.13289821221E+03  0.76493667026E+02  0.24435102069E+03  0.17379857327E+03 0.  0.
         24    2    5    5    0    0 -0.97220499369E+02  0.15229124719E+03  0.83315335510E+02  0.21539920997E+03  0.82528328823E+02 0.  0.
          5    1    5    5  501    0  0.19836642283E+02 -0.19393034979E+02 -0.68216684840E+01  0.28951810715E+02  0.47000000000E+01 0. -1.
        -11    1    6    6    0    0  0.82116202005E+01  0.67049661660E+00  0.17508119762E+02  0.19349794046E+02  0.00000000000E+00 0.  1.
         12    1    6    6    0    0 -0.10543211957E+03  0.15162075057E+03  0.65807215747E+02  0.19604941593E+03  0.00000000000E+00 0. -1.
         -5    1    3    3    0  503  0.95793885578E+01  0.32901513505E+02 -0.76320628874E+01  0.35420511854E+02  0.47000000000E+01 0.  1.
         13    1    4    4    0    0 -0.85535485954E+01 -0.56343861176E+02 -0.81210956845E+01  0.57565146408E+02  0.00000000000E+00 0. -1.
        -14    1    4    4    0    0  0.76358017124E+02 -0.10945586454E+03 -0.89446805231E+02  0.16066071090E+03  0.00000000000E+00 0.  1.
</event>
<event>
12    1  0.8453150E-002  0.4258257E+03  0.7818608E-02  0.1035214E+00
         21   -1    0    0  501  502  0.00000000000E+00  0.00000000000E+00  0.19067743843E+04  0.19067743843E+04  0.00000000000E+00 0. -1.
         21   -1    0    0  502  503 -0.00000000000E+00 -0.00000000000E+00 -0.15409049008E+03  0.15409049008E+03  0.00000000000E+00 0.  1.
         -6    2    1    2    0  503  0.18596109538E+03  0.34207039682E+03  0.23856791019E+03  0.48810056055E+03  0.17243498503E+03 0.  0.
        -24    2    3    3    0    0  0.26029607396E+02  0.17006282165E+03  0.90512836324E+02  0.21041894131E+03  0.80527346632E+02 0.  0.
          6    2    1    2  501    0 -0.18596109538E+03 -0.34207039682E+03  0.15141159840E+04  0.15727643138E+04  0.17160037405E+03 0.  0.
         24    2    5    5    0    0 -0.17185571075E+03 -0.18731131216E+03  0.85897251942E+03  0.89942607387E+03  0.80706630862E+02 0.  0.
          5    1    5    5  501    0 -0.14105384631E+02 -0.15475908466E+03  0.65514346460E+03  0.67333823994E+03  0.47000000000E+01 0. -1.
        -11    1    6    6    0    0 -0.19835045901E+02  0.41007540365E+00  0.29921133075E+02  0.35900855313E+02  0.00000000000E+00 0.  1.
         12    1    6    6    0    0 -0.15202066485E+03 -0.18772138757E+03  0.82905138634E+03  0.86352521856E+03  0.00000000000E+00 0. -1.
         -5    1    3    3    0  503  0.15993148798E+03  0.17200757517E+03  0.14805507386E+03  0.27768161924E+03  0.47000000000E+01 0.  1.
         13    1    4    4    0    0  0.28161945083E+02  0.14120869004E+03  0.35561135746E+02  0.14831582407E+03  0.00000000000E+00 0. -1.
        -14    1    4    4    0    0 -0.21323376862E+01  0.28854131606E+02  0.54951700578E+02  0.62103117242E+02  0.00000000000E+00 0.  1.
</event>
<event>
12    1  0.8453150E-002  0.1736949E+03  0.7818608E-02  0.1174120E+00
         21   -1    0    0  503  502  0.00000000000E+00  0.00000000000E+00  0.18231723429E+04  0.18231723429E+04  0.00000000000E+00 0.  1.
         21   -1    0    0  501  503 -0.00000000000E+00 -0.00000000000E+00 -0.17803247805E+02  0.17803247805E+02  0.00000000000E+00 0.  1.
          6    2    1    2  501    0  0.16751070513E+02  0.19438137933E+02  0.65499050724E+03  0.67755786729E+03  0.17150410896E+03 0.  0.
         24    2    3    3    0    0 -0.11296037482E+01  0.19020045610E+02  0.14773824501E+03  0.16996862307E+03  0.81851729675E+02 0.  0.
         -6    2    1    2    0  502 -0.16751070513E+02 -0.19438137933E+02  0.11503785879E+04  0.11634177234E+04  0.17178901064E+03 0.  0.
        -24    2    5    5    0    0 -0.49792712587E+02  0.20716504759E+02  0.40840825237E+03  0.41961249744E+03  0.79805135218E+02 0.  0.
          5    1    3    3  501    0  0.17880674262E+02  0.41809232317E+00  0.50725226223E+03  0.50758924422E+03  0.47000000000E+01 0. -1.
        -13    1    4    4    0    0  0.11129007813E+02  0.28315864996E+02  0.15117393567E+03  0.15420506428E+03  0.00000000000E+00 0.  1.
         14    1    4    4    0    0 -0.12258611561E+02 -0.92958193857E+01 -0.34356906559E+01  0.15763558791E+02  0.00000000000E+00 0. -1.
         -5    1    5    5    0  502  0.33041642073E+02 -0.40154642692E+02  0.74197033549E+03  0.74380522597E+03  0.47000000000E+01 0.  1.
         13    1    6    6    0    0  0.21288055792E+01  0.22121446635E+02  0.28303211027E+03  0.28390326813E+03  0.00000000000E+00 0. -1.
        -14    1    6    6    0    0 -0.51921518166E+02 -0.14049418766E+01  0.12537614211E+03  0.13570922931E+03  0.00000000000E+00 0.  1.
</event>
<event>
12    1  0.8453150E-002  0.2673743E+03  0.7818608E-02  0.1102819E+00
         21   -1    0    0  501  502  0.00000000000E+00  0.00000000000E+00  0.38200692407E+03  0.38200692407E+03  0.00000000000E+00 0.  1.
         21   -1    0    0  502  503 -0.00000000000E+00 -0.00000000000E+00 -0.23315217217E+03  0.23315217217E+03  0.00000000000E+00 0. -1.
         -6    2    1    2    0  503 -0.47948343511E+02 -0.19919204594E+03 -0.62386476668E+02  0.27455619815E+03  0.17179207973E+03 0.  0.
        -24    2    3    3    0    0 -0.45007964271E+02 -0.21306863738E+03 -0.22682936830E+02  0.23213371949E+03  0.77120600483E+02 0.  0.
          6    2    1    2  501    0  0.47948343511E+02  0.19919204594E+03  0.21124122857E+03  0.34060289810E+03  0.17149624700E+03 0.  0.
         24    2    5    5    0    0  0.79114298310E+02  0.69955902596E+02  0.95824925487E+02  0.16448841686E+03  0.81982451971E+02 0.  0.
          5    1    5    5  501    0 -0.31165954798E+02  0.12923614334E+03  0.11541630308E+03  0.17611448124E+03  0.47000000000E+01 0. -1.
        -11    1    6    6    0    0  0.66323902238E+02  0.74540378009E+02  0.40773405238E+02  0.10778496433E+03  0.00000000000E+00 0.  1.
         12    1    6    6    0    0  0.12790396071E+02 -0.45844754136E+01  0.55051520249E+02  0.56703452525E+02  0.00000000000E+00 0. -1.
         -5    1    3    3    0  503 -0.29403792397E+01  0.13876591436E+02 -0.39703539838E+02  0.42422478660E+02  0.47000000000E+01 0.  1.
         13    1    4    4    0    0 -0.45247449910E+02 -0.13352450566E+03  0.19120726301E+02  0.14227342517E+03  0.00000000000E+00 0. -1.
        -14    1    4    4    0    0  0.23948563863E+00 -0.79544131713E+02 -0.41803663131E+02  0.89860294316E+02  0.00000000000E+00 0.  1.
</event>
<event>
12    1  0.8453150E-002  0.1984831E+03  0.7818608E-02  0.1151226E+00
         21   -1    0    0  503  502  0.00000000000E+00  0.00000000000E+00  0.27458116240E+03  0.27458116240E+03  0.00000000000E+00 0.  1.
         21   -1    0    0  501  503 -0.00000000000E+00 -0.00000000000E+00 -0.14686734999E+03  0.14686734999E+03  0.00000000000E+00 0.  1.
          6    2    1    2  501    0  0.50490944464E+02 -0.85013923470E+02  0.28914078005E+02  0.20057804653E+03  0.17210120914E+03 0.  0.
         24    2    3    3    0    0  0.54638522118E+02 -0.12354299449E+02 -0.32435185367E+02  0.10527618149E+03  0.83024311656E+02 0.  0.
         -6    2    1    2    0  502 -0.50490944464E+02  0.85013923470E+02  0.98799734407E+02  0.22087046587E+03  0.17101366178E+03 0.  0.
        -24    2    5    5    0    0 -0.36439637178E+01  0.88717563041E+02  0.91079063788E+01  0.11950444313E+03  0.79462403088E+02 0.  0.
          5    1    3    3  501    0 -0.41475776536E+01 -0.72659624021E+02  0.61349263372E+02  0.95301865037E+02  0.47000000000E+01 0. -1.
        -13    1    4    4    0    0  0.39835045740E+02 -0.38982862576E+02  0.61930955457E+01  0.56078952167E+02  0.00000000000E+00 0.  1.
         14    1    4    4    0    0  0.14803476378E+02  0.26628563127E+02 -0.38628280913E+02  0.49197229326E+02  0.00000000000E+00 0. -1.
         -5    1    5    5    0  502 -0.46846980746E+02 -0.37036395713E+01  0.89691828028E+02  0.10136602274E+03  0.47000000000E+01 0.  1.
         11    1    6    6    0    0  0.12608313234E+02  0.28176643125E+02  0.39262320321E+02  0.49944194631E+02  0.00000000000E+00 0. -1.
        -12    1    6    6    0    0 -0.16252276952E+02  0.60540919916E+02 -0.30154413942E+02  0.69560248494E+02  0.00000000000E+00 0.  1.
</event>
<event>
12    1  0.8453150E-002  0.2352424E+03  0.7818608E-02  0.1123175E+00
         21   -1    0    0  503  502  0.00000000000E+00  0.00000000000E+00  0.22369598955E+02  0.22369598955E+02  0.00000000000E+00 0.  1.
         21   -1    0    0  501  503 -0.00000000000E+00 -0.00000000000E+00 -0.34066257930E+04  0.34066257930E+04  0.00000000000E+00 0.  1.
          6    2    1    2  501    0 -0.36878537041E+02 -0.15463173410E+03 -0.78732701860E+03  0.82143329090E+03  0.17204016244E+03 0.  0.
         24    2    3    3    0    0 -0.68550318234E+02 -0.11400577476E+03 -0.37422908295E+03  0.40510942089E+03  0.79810861177E+02 0.  0.
         -6    2    1    2    0  502  0.36878537041E+02  0.15463173410E+03 -0.25969291755E+04  0.26075621011E+04  0.17340117911E+03 0.  0.
        -24    2    5    5    0    0  0.25717391174E+02  0.13215404320E+03 -0.11772107046E+04  0.11876140583E+04  0.80473803374E+02 0.  0.
          5    1    3    3  501    0  0.31671781193E+02 -0.40625959331E+02 -0.41309793565E+03  0.41632387000E+03  0.47000000000E+01 0. -1.
        -11    1    4    4    0    0 -0.65511197395E+02 -0.93680367464E+02 -0.36517988184E+03  0.38265398774E+03  0.00000000000E+00 0.  1.
         12    1    4    4    0    0 -0.30391208391E+01 -0.20325407300E+02 -0.90492011091E+01  0.22455433154E+02  0.00000000000E+00 0. -1.
         -5    1    5    5    0  502  0.11161145867E+02  0.22477690895E+02 -0.14197184709E+04  0.14199480428E+04  0.47000000000E+01 0.  1.
         11    1    6    6    0    0  0.13348232027E+02  0.18350329418E+02 -0.53848885090E+02  0.58434684165E+02  0.00000000000E+00 0. -1.
        -12    1    6    6    0    0  0.12369159146E+02  0.11380371378E+03 -0.11233618195E+04  0.11291793741E+04  0.00000000000E+00 0.  1.
</event>
<event>
12    1  0.8453150E-002  0.2168470E+03  0.7818608E-02  0.1136546E+00
         21   -1    0    0  503  502  0.00000000000E+00  0.00000000000E+00  0.49144045358E+03  0.49144045358E+03  0.00000000000E+00 0. -1.
         21   -1    0    0  501  503 -0.00000000000E+00 -0.00000000000E+00 -0.96098189122E+02  0.96098189122E+02  0.00000000000E+00 0.  1.
          6    2    1    2  501    0 -0.30134322911E+02 -0.12842272471E+03  0.22822040393E+03  0.31376437283E+03  0.17018535557E+03 0.  0.
         24    2    3    3    0    0 -0.25568187296E+01 -0.89837418359E+02  0.48420623578E+02  0.12775524505E+03  0.76808507287E+02 0.  0.
         -6    2    1    2    0  502  0.30134322911E+02  0.12842272471E+03  0.16712186053E+03  0.27377426987E+03  0.17211089720E+03 0.  0.
        -24    2    5    5    0    0  0.30477910311E+02 -0.31608948041E+01  0.67157060272E+02  0.10845815370E+03  0.79461978868E+02 0.  0.
          5    1    3    3  501    0 -0.27577504181E+02 -0.38585306350E+02  0.17979978035E+03  0.18600912778E+03  0.47000000000E+01 0. -1.
        -11    1    4    4    0    0  0.10698420831E+02 -0.16186999138E+02 -0.18907339659E+02  0.27091744912E+02  0.00000000000E+00 0.  1.
         12    1    4    4    0    0 -0.13255239561E+02 -0.73650419221E+02  0.67327963237E+02  0.10066350014E+03  0.00000000000E+00 0. -1.
         -5    1    5    5    0  502 -0.34358740004E+00  0.13158361951E+03  0.99964800255E+02  0.16531611617E+03  0.47000000000E+01 0.  1.
         11    1    6    6    0    0  0.29437922360E+01  0.59307739374E+01  0.77417422472E+02  0.77700046940E+02  0.00000000000E+00 0. -1.
        -12    1    6    6    0    0  0.27534118075E+02 -0.90916687416E+01 -0.10260362200E+02  0.30758106755E+02  0.00000000000E+00 0.  1.
</event>
<event>
12    1  0.8453150E-002  0.2565406E+03  0.7818608E-02  0.1110787E+00
         21   -1    0    0  503  502  0.00000000000E+00  0.00000000000E+00  0.13829186595E+03  0.13829186595E+03  0.00000000000E+00 0.  1.
         21   -1    0    0  501  503 -0.00000000000E+00 -0.00000000000E+00 -0.45848129561E+03  0.45848129561E+03  0.00000000000E+00 0. -1.
          6    2    1    2  501    0 -0.16772119401E+03  0.44585168673E+02 -0.17563631426E+03  0.31090384924E+03  0.18893081378E+03 0.  0.
         24    2    3    3    0    0 -0.19762407687E+03  0.60692243469E+02 -0.15972161962E+03  0.27310189470E+03  0.79591613488E+02 0.  0.
         -6    2    1    2    0  502  0.16772119401E+03 -0.44585168673E+02 -0.14455311540E+03  0.28586931232E+03  0.17523533995E+03 0.  0.
        -24    2    5    5    0    0  0.12977133719E+03 -0.51318067234E+02 -0.17417851252E+03  0.23703000735E+03  0.79818081796E+02 0.  0.
          5    1    3    3  501    0  0.29902882855E+02 -0.16107074797E+02 -0.15914694639E+02  0.37801954539E+02  0.47000000000E+01 0. -1.
        -13    1    4    4    0    0 -0.19058061024E+02 -0.79444600302E+01  0.43226710950E+01  0.21095251138E+02  0.00000000000E+00 0.  1.
         14    1    4    4    0    0 -0.17856601585E+03  0.68636703500E+02 -0.16404429071E+03  0.25200664356E+03  0.00000000000E+00 0. -1.
         -5    1    5    5    0  502  0.37949856826E+02  0.67328985616E+01  0.29625397113E+02  0.48839304973E+02  0.47000000000E+01 0.  1.
         13    1    6    6    0    0  0.71365113774E+02  0.14438416548E+02 -0.79607180112E+02  0.10788304066E+03  0.00000000000E+00 0. -1.
        -14    1    6    6    0    0  0.58406223416E+02 -0.65756483782E+02 -0.94571332404E+02  0.12914696669E+03  0.00000000000E+00 0.  1.
</event>
<event>
12    1  0.8453150E-002  0.1941159E+03  0.7818608E-02  0.1155006E+00
         21   -1    0    0  501  502  0.00000000000E+00  0.00000000000E+00  0.16440787884E+03  0.16440787884E+03  0.00000000000E+00 0. -1.
         21   -1    0    0  502  503 -0.00000000000E+00 -0.00000000000E+00 -0.23932770674E+03  0.23932770674E+03  0.00000000000E+00 0. -1.
         -6    2    1    2    0  503 -0.80282624904E+02 -0.37775004063E+02 -0.81283403403E+02  0.21044703895E+03  0.17265200185E+03 0.  0.
        -24    2    3    3    0    0 -0.65060978171E+02 -0.72227516724E+02 -0.10421674346E+03  0.16609952218E+03  0.85312230052E+02 0.  0.
          6    2    1    2  501    0  0.80282624904E+02  0.37775004063E+02  0.63635755014E+01  0.19328854664E+03  0.17160336935E+03 0.  0.
         24    2    5    5    0    0  0.47708138834E+02 -0.23364773171E+02  0.53650275302E+02  0.10928085960E+03  0.79006171270E+02 0.  0.
          5    1    5    5  501    0  0.32574486069E+02  0.61139777234E+02 -0.47286699801E+02  0.84007687035E+02  0.47000000000E+01 0. -1.
        -13    1    6    6    0    0  0.15685097696E+02 -0.40263482876E+02 -0.15801509438E+01  0.43239648704E+02  0.00000000000E+00 0.  1.
         14    1    6    6    0    0  0.32023041139E+02  0.16898709705E+02  0.55230426246E+02  0.66041210897E+02  0.00000000000E+00 0. -1.
         -5    1    3    3    0  503 -0.15221646733E+02  0.34452512661E+02  0.22933340059E+02  0.44347516776E+02  0.47000000000E+01 0.  1.
         13    1    4    4    0    0 -0.15300329146E+02  0.21027227306E+01 -0.67774714690E+02  0.69512110212E+02  0.00000000000E+00 0. -1.
        -14    1    4    4    0    0 -0.49760649024E+02 -0.74330239455E+02 -0.36442028772E+02  0.96587411963E+02  0.00000000000E+00 0.  1.
</event>
<event>
12    1  0.8453150E-002  0.1821362E+03  0.7818608E-02  0.1165874E+00
         21   -1    0    0  501  502  0.00000000000E+00  0.00000000000E+00  0.31794901573E+03  0.31794901573E+03  0.00000000000E+00 0. -1.
         21   -1    0    0  502  503 -0.00000000000E+00 -0.00000000000E+00 -0.14254727009E+03  0.14254727009E+03  0.00000000000E+00 0. -1.
         -6    2    1    2    0  503  0.61211758993E+02  0.85864379053E+01 -0.32055529996E+02  0.18443084978E+03  0.17078224437E+03 0.  0.
        -24    2    3    3    0    0  0.26422353132E+02  0.34292425302E+02 -0.78740851586E+02  0.12061306386E+03  0.80456685781E+02 0.  0.
          6    2    1    2  501    0 -0.61211758993E+02 -0.85864379053E+01  0.20745727563E+03  0.27606543604E+03  0.17132716483E+03 0.  0.
         24    2    5    5    0    0 -0.22918442795E+02 -0.68998353147E+02  0.10481483099E+03  0.15087143055E+03  0.80560610740E+02 0.  0.
          5    1    5    5  501    0 -0.38293316198E+02  0.60411915242E+02  0.10264244464E+03  0.12519400549E+03  0.47000000000E+01 0. -1.
        -13    1    6    6    0    0 -0.44942800261E+02 -0.57272813112E+02  0.10262416714E+03  0.12582428263E+03  0.00000000000E+00 0.  1.
         14    1    6    6    0    0  0.22024357466E+02 -0.11725540035E+02  0.21906638494E+01  0.25047147922E+02  0.00000000000E+00 0. -1.
         -5    1    3    3    0  503  0.34789405861E+02 -0.25705987396E+02  0.46685321590E+02  0.63817785923E+02  0.47000000000E+01 0.  1.
         13    1    4    4    0    0 -0.14078878598E+02 -0.19392170063E+02 -0.23805456105E+02  0.33778259616E+02  0.00000000000E+00 0. -1.
        -14    1    4    4    0    0  0.40501231730E+02  0.53684595365E+02 -0.54935395481E+02  0.86834804242E+02  0.00000000000E+00 0.  1.
</event>
<event>
12    1  0.8453150E-002  0.2777383E+03  0.7818608E-02  0.1097117E+00
         21   -1    0    0  501  502  0.00000000000E+00  0.00000000000E+00  0.35732372994E+03  0.35732372994E+03  0.00000000000E+00 0. -1.
         21   -1    0    0  502  503 -0.00000000000E+00 -0.00000000000E+00 -0.21483900855E+03  0.21483900855E+03  0.00000000000E+00 0.  1.
         -6    2    1    2    0  503  0.10834361655E+03 -0.18603077872E+03  0.69868700373E+02  0.28639170970E+03  0.17547873436E+03 0.  0.
        -24    2    3    3    0    0  0.64158242286E+02 -0.21631961704E+02  0.79993669924E+01  0.10520334708E+03  0.80121985395E+02 0.  0.
          6    2    1    2  501    0 -0.10834361655E+03  0.18603077872E+03  0.72616021027E+02  0.28577102879E+03  0.17333841037E+03 0.  0.
         24    2    5    5    0    0 -0.98035898040E+02  0.20021392993E+03  0.96220721582E+02  0.25599381054E+03  0.81103321329E+02 0.  0.
          5    1    5    5  501    0 -0.10307718507E+02 -0.14183151205E+02 -0.23604700555E+02  0.29777218258E+02  0.47000000000E+01 0. -1.
        -11    1    6    6    0    0 -0.64477496226E+02  0.77178551752E+02  0.79221671460E+01  0.10087931950E+03  0.00000000000E+00 0.  1.
         12    1    6    6    0    0 -0.33558401813E+02  0.12303537817E+03  0.88298554436E+02  0.15511449104E+03  0.00000000000E+00 0. -1.
         -5    1    3    3    0  503  0.44185374260E+02 -0.16439881702E+03  0.61869333380E+02  0.18118836262E+03  0.47000000000E+01 0.  1.
         11    1    4    4    0    0  0.19205036621E+02  0.18424396762E+01  0.40575359123E+02  0.44928696660E+02  0.00000000000E+00 0. -1.
        -12    1    4    4    0    0  0.44953205665E+02 -0.23474401380E+02 -0.32575992130E+02  0.60274650418E+02  0.00000000000E+00 0.  1.
</event>
<event>
12    1  0.8453150E-002  0.2040580E+03  0.7818608E-02  0.1146397E+00
         21   -1    0    0  501  502  0.00000000000E+00  0.00000000000E+00  0.37782222722E+02  0.37782222722E+02  0.00000000000E+00 0.  1.
         21   -1    0    0  502  503 -0.00000000000E+00 -0.00000000000E+00 -0.11843678214E+04  0.11843678214E+04  0.00000000000E+00 0.  1.
         -6    2    1    2    0  503  0.10803052605E+03  0.19694822057E+02 -0.41103111323E+03  0.45881522002E+03  0.17177412350E+03 0.  0.
        -24    2    3    3    0    0  0.14226636755E+03 -0.21036195296E+01 -0.34285959634E+03  0.37933748343E+03  0.78103002335E+02 0.  0.
          6    2    1    2  501    0 -0.10803052605E+03 -0.19694822057E+02 -0.73555448542E+03  0.76333482408E+03  0.17199177902E+03 0.  0.
         24    2    5    5    0    0 -0.31012544286E+02 -0.52725994914E+02 -0.55723537762E+03  0.56624950727E+03  0.79908885406E+02 0.  0.
          5    1    5    5  501    0 -0.77017981761E+02  0.33031172857E+02 -0.17831910780E+03  0.19708531681E+03  0.47000000000E+01 0. -1.
        -13    1    6    6    0    0 -0.56753038244E+02 -0.45662418064E+02 -0.36789329472E+03  0.37503525178E+03  0.00000000000E+00 0.  1.
         14    1    6    6    0    0  0.25740493958E+02 -0.70635768507E+01 -0.18934208290E+03  0.19121425549E+03  0.00000000000E+00 0. -1.
         -5    1    3    3    0  503 -0.34235841508E+02  0.21798441587E+02 -0.68171516885E+02  0.79477736591E+02  0.47000000000E+01 0.  1.
         13    1    4    4    0    0  0.89071876617E+01  0.23354978676E+02 -0.36461087317E+02  0.44206378604E+02  0.00000000000E+00 0. -1.
        -14    1    4    4    0    0  0.13335917989E+03 -0.25458598205E+02 -0.30639850903E+03  0.33513110482E+03  0.00000000000E+00 0.  1.
</event>
<event>
12    1  0.8453150E-002  0.2018032E+03  0.7818608E-02  0.1148570E+00
         21   -1    0    0  501  502  0.00000000000E+00  0.00000000000E+00  0.58417994221E+03  0.58417994221E+03  0.00000000000E+00 0. -1.
         21   -1    0    0  502  503 -0.00000000000E+00 -0.00000000000E+00 -0.92398441454E+02  0.92398441454E+02  0.00000000000E+00 0. -1.
         -6    2    1    2    0  503 -0.85635797616E+02  0.59622894141E+02  0.75442637760E+02  0.21390941164E+03  0.17081354003E+03 0.  0.
        -24    2    3    3    0    0 -0.40882439450E+02  0.50624045295E+02 -0.22425955935E+02  0.10581596143E+03  0.80373667178E+02 0.  0.
          6    2    1    2  501    0  0.85635797616E+02 -0.59622894141E+02  0.41633886300E+03  0.46266897202E+03  0.17273143747E+03 0.  0.
         24    2    5    5    0    0  0.22204750797E+01  0.23832829573E+02  0.17775890093E+03  0.19646329561E+03  0.80166485436E+02 0.  0.
          5    1    5    5  501    0  0.83415322536E+02 -0.83455723714E+02  0.23857996207E+03  0.26620567642E+03  0.47000000000E+01 0. -1.
        -13    1    6    6    0    0  0.41617131375E+01  0.15523855866E+02 -0.22706662590E+01  0.16231632156E+02  0.00000000000E+00 0.  1.
         14    1    6    6    0    0 -0.19412380578E+01  0.83089737068E+01  0.18002956718E+03  0.18023166345E+03  0.00000000000E+00 0. -1.
         -5    1    3    3    0  503 -0.44753358166E+02  0.89988488454E+01  0.97868593694E+02  0.10809345022E+03  0.47000000000E+01 0.  1.
         11    1    4    4    0    0 -0.43559775187E+02 -0.73009275665E+01 -0.15789161629E+01  0.44195594056E+02  0.00000000000E+00 0. -1.
        -12    1    4    4    0    0  0.26773357373E+01  0.57924972862E+02 -0.20847039772E+02  0.61620367371E+02  0.00000000000E+00 0.  1.
</event>
<event>
12    1  0.8453150E-002  0.2488538E+03  0.7818608E-02  0.1114338E+00
         21   -1    0    0  501  502  0.00000000000E+00  0.00000000000E+00  0.39988666735E+02  0.39988666735E+02  0.00000000000E+00 0.  1.
         21   -1    0    0  502  503 -0.00000000000E+00 -0.00000000000E+00 -0.24718130790E+04  0.24718130790E+04  0.00000000000E+00 0.  1.
         -6    2    1    2    0  503 -0.12786879141E+03  0.12560767526E+03 -0.19854439679E+04  0.20007404061E+04  0.16984318295E+03 0.  0.
        -24    2    3    3    0    0 -0.34224382719E+02  0.39633109465E+02 -0.44428268206E+03  0.45433777406E+03  0.79332336512E+02 0.  0.
          6    2    1    2  501    0  0.12786879141E+03 -0.12560767526E+03 -0.44638044431E+03  0.51106133964E+03  0.17262814345E+03 0.  0.
         24    2    5    5    0    0  0.79425484655E+02 -0.49699910173E+02 -0.37732003946E+03  0.39748241427E+03  0.82724656483E+02 0.  0.
          5    1    5    5  501    0  0.48443306755E+02 -0.75907765088E+02 -0.69060404848E+02  0.11357892537E+03  0.47000000000E+01 0. -1.
        -13    1    6    6    0    0  0.88329104832E+02 -0.57599612811E+02 -0.27588036810E+03  0.29534678543E+03  0.00000000000E+00 0.  1.
         14    1    6    6    0    0 -0.89036201771E+01  0.78997026385E+01 -0.10143967136E+03  0.10213562884E+03  0.00000000000E+00 0. -1.
         -5    1    3    3    0  503 -0.93644408691E+02  0.85974565796E+02 -0.15411612859E+04  0.15464026320E+04  0.47000000000E+01 0.  1.
         11    1    4    4    0    0  0.19988667434E+00  0.51866526968E+02 -0.33788313386E+03  0.34184088217E+03  0.00000000000E+00 0. -1.
        -12    1    4    4    0    0 -0.34424269393E+02 -0.12233417503E+02 -0.10639954820E+03  0.11249689189E+03  0.00000000000E+00 0.  1.
</event>
<event>
12    1  0.8453150E-002  0.2023136E+03  0.7818608E-02  0.1147989E+00
         21   -1    0    0  503  502  0.00000000000E+00  0.00000000000E+00  0.47504086710E+03  0.47504086710E+03  0.00000000000E+00 0.  1.
         21   -1    0    0  501  503 -0.00000000000E+00 -0.00000000000E+00 -0.91333619982E+02  0.91333619982E+02  0.00000000000E+00 0.  1.
          6    2    1    2  501    0  0.96982917689E+02 -0.42850404807E+02  0.12162508154E+03  0.23528860836E+03  0.17124901532E+03 0.  0.
         24    2    3    3    0    0  0.49827100536E+01  0.27934365790E+02  0.53484624225E+02  0.10060477906E+03  0.80346501783E+02 0.  0.
         -6    2    1    2    0  502 -0.96982917689E+02  0.42850404807E+02  0.26208216557E+03  0.33108587872E+03  0.17230482889E+03 0.  0.
        -24    2    5    5    0    0 -0.90728262034E+02  0.92110874543E+02  0.18343330597E+03  0.23795453216E+03  0.79111003615E+02 0.  0.
          5    1    3    3  501    0  0.92000207635E+02 -0.70784770597E+02  0.68140457320E+02  0.13468382931E+03  0.47000000000E+01 0. -1.
        -11    1    4    4    0    0  0.21890773038E+02  0.44922962530E+02  0.57631361263E+02  0.76280091162E+02  0.00000000000E+00 0.  1.
         12    1    4    4    0    0 -0.16908062984E+02 -0.16988596740E+02 -0.41467370380E+01  0.24324687894E+02  0.00000000000E+00 0. -1.
         -5    1    5    5    0  502 -0.62546556549E+01 -0.49260469736E+02  0.78648859601E+02  0.93131346562E+02  0.47000000000E+01 0.  1.
         11    1    6    6    0    0  0.76455498486E+01 -0.59900863685E+01  0.27215140988E+02  0.28896357317E+02  0.00000000000E+00 0. -1.
        -12    1    6    6    0    0 -0.98373811882E+02  0.98100960912E+02  0.15621816498E+03  0.20905817484E+03  0.00000000000E+00 0.  1.
</event>
<event>
12    1  0.8453150E-002  0.1773916E+03  0.7818608E-02  0.1170727E+00
         21   -1    0    0  503  502  0.00000000000E+00  0.00000000000E+00  0.36426650643E+03  0.36426650643E+03  0.00000000000E+00 0. -1.
         21   -1    0    0  501  503 -0.00000000000E+00 -0.00000000000E+00 -0.96138289384E+02  0.96138289384E+02  0.00000000000E+00 0. -1.
          6    2    1    2  501    0  0.11386164173E+02  0.41725981190E+02  0.57515537189E+02  0.18504051150E+03  0.17047360980E+03 0.  0.
         24    2    3    3    0    0  0.64277802912E+02 -0.25234983737E+01  0.54185310537E+02  0.11583991685E+03  0.79654469225E+02 0.  0.
         -6    2    1    2    0  502 -0.11386164173E+02 -0.41725981190E+02  0.21061267986E+03  0.27536428431E+03  0.17203803625E+03 0.  0.
        -24    2    5    5    0    0 -0.37215013208E+01  0.10758025373E+02  0.29636476036E+02  0.86717009348E+02  0.80696557030E+02 0.  0.
          5    1    3    3  501    0 -0.52891638739E+02  0.44249479564E+02  0.33302266523E+01  0.69200594649E+02  0.47000000000E+01 0. -1.
        -11    1    4    4    0    0 -0.12682963476E+02  0.16592314974E+01  0.33764626418E+02  0.36106240580E+02  0.00000000000E+00 0.  1.
         12    1    4    4    0    0  0.76960766388E+02 -0.41827298711E+01  0.20420684119E+02  0.79733676274E+02  0.00000000000E+00 0. -1.
         -5    1    5    5    0  502 -0.76646628518E+01 -0.52484006563E+02  0.18097620382E+03  0.18864727496E+03  0.47000000000E+01 0.  1.
         13    1    6    6    0    0 -0.29033348266E+02 -0.19140377142E+02  0.32288232342E+02  0.47453338096E+02  0.00000000000E+00 0. -1.
        -14    1    6    6    0    0  0.25311846945E+02  0.29898402515E+02 -0.26517563056E+01  0.39263671252E+02  0.00000000000E+00 0.  1.
</event>
<event>
12    1  0.8453150E-002  0.2409699E+03  0.7818608E-02  0.1119257E+00
         21   -1    0    0  501  502  0.00000000000E+00  0.00000000000E+00  0.28408075464E+03  0.28408075464E+03  0.00000000000E+00 0.  1.
         21   -1    0    0  502  503 -0.00000000000E+00 -0.00000000000E+00 -0.25029189090E+03  0.25029189090E+03  0.00000000000E+00 0.  1.
         -6    2    1    2    0  503 -0.14563570264E+03  0.85082628673E+02 -0.98184823869E+02  0.26020523283E+03  0.17209791390E+03 0.  0.
        -24    2    3    3    0    0 -0.87833733826E+02 -0.54493199675E+01 -0.89396392491E+02  0.15233295720E+03  0.86424273057E+02 0.  0.
          6    2    1    2  501    0  0.14563570264E+03 -0.85082628673E+02  0.13197368761E+03  0.27416741271E+03  0.17117799036E+03 0.  0.
         24    2    5    5    0    0  0.16160971032E+02 -0.67038900120E+02  0.79280459619E+02  0.13314277465E+03  0.81769285485E+02 0.  0.
          5    1    5    5  501    0  0.12947473161E+03 -0.18043728553E+02  0.52693227990E+02  0.14102463806E+03  0.47000000000E+01 0. -1.
        -11    1    6    6    0    0  0.19494803691E+02 -0.85405847481E+02  0.70817491747E+02  0.11264689650E+03  0.00000000000E+00 0.  1.
         12    1    6    6    0    0 -0.33338326589E+01  0.18366947360E+02  0.84629678722E+01  0.20495878140E+02  0.00000000000E+00 0. -1.
         -5    1    3    3    0  503 -0.57801968813E+02  0.90531948641E+02 -0.87884313776E+01  0.10787227563E+03  0.47000000000E+01 0.  1.
         13    1    4    4    0    0 -0.89145226604E+02  0.13220754678E+02 -0.38308172782E+02  0.97924337539E+02  0.00000000000E+00 0. -1.
        -14    1    4    4    0    0  0.13114927782E+01 -0.18670074645E+02 -0.51088219709E+02  0.54408619663E+02  0.00000000000E+00 0.  1.
</event>
<event>
12    1  0.8453150E-002  0.1831864E+03  0.7818608E-02  0.1164823E+00
         21   -1    0    0  501  502  0.00000000000E+00  0.00000000000E+00  0.76811777577E+03  0.76811777577E+03  0.00000000000E+00 0. -1.
         21   -1    0    0  502  503 -0.00000000000E+00 -0.00000000000E+00 -0.52382618747E+02  0.52382618747E+02  0.00000000000E+00 0. -1.
         -6    2    1    2    0  503 -0.51017163737E+02 -0.35529319940E+02  0.52543501290E+03  0.55635763770E+03  0.17200809478E+03 0.  0.
        -24    2    3    3    0    0 -0.11695187077E+02 -0.82667021023E+02  0.25510652928E+03  0.27910728194E+03  0.76491305280E+02 0.  0.
          6    2    1    2  501    0  0.51017163737E+02  0.35529319940E+02  0.19030014412E+03  0.26414275682E+03  0.17231415367E+03 0.  0.
         24    2    5    5    0    0 -0.13960403885E+02 -0.29208684259E+02  0.89122025254E+02  0.12749651567E+03  0.85232540797E+02 0.  0.
          5    1    5    5  501    0  0.64977567622E+02  0.64738004199E+02  0.10117811886E+03  0.13664624114E+03  0.47000000000E+01 0. -1.
        -13    1    6    6    0    0 -0.49481781807E+02 -0.23079474386E+02  0.46870442224E+02  0.71957954549E+02  0.00000000000E+00 0.  1.
         14    1    6    6    0    0  0.35521377922E+02 -0.61292098724E+01  0.42251583030E+02  0.55538561124E+02  0.00000000000E+00 0. -1.
         -5    1    3    3    0  503 -0.39321976660E+02  0.47137701083E+02  0.27032848362E+03  0.27725035576E+03  0.47000000000E+01 0.  1.
         13    1    4    4    0    0  0.26334601733E+02 -0.51503231933E+02  0.18227110637E+03  0.19122983649E+03  0.00000000000E+00 0. -1.
        -14    1    4    4    0    0 -0.38029788810E+02 -0.31163789090E+02  0.72835422918E+02  0.87877445451E+02  0.00000000000E+00 0.  1.
</event>
<event>
12    1  0.8453150E-002  0.1880556E+03  0.7818608E-02  0.1161181E+00
         21   -1    0    0  503  502  0.00000000000E+00  0.00000000000E+00  0.78065544065E+03  0.78065544065E+03  0.00000000000E+00 0.  1.
         21   -1    0    0  501  503 -0.00000000000E+00 -0.00000000000E+00 -0.80677383680E+02  0.80677383680E+02  0.00000000000E+00 0.  1.
          6    2    1    2  501    0 -0.53769266702E+02  0.52298403234E+02  0.58732213201E+02  0.19308051703E+03  0.16794152603E+03 0.  0.
         24    2    3    3    0    0 -0.88249115363E+02  0.38460921078E+02  0.82399974598E+02  0.14877940186E+03  0.77964131435E+02 0.  0.
         -6    2    1    2    0  502  0.53769266702E+02 -0.52298403234E+02  0.64124584377E+03  0.66825230730E+03  0.17244899837E+03 0.  0.
        -24    2    5    5    0    0  0.44640948384E+02 -0.99657612203E+02  0.52738448400E+03  0.54450773119E+03  0.80186167223E+02 0.  0.
          5    1    3    3  501    0  0.34479848661E+02  0.13837482156E+02 -0.23667761397E+02  0.44301115174E+02  0.47000000000E+01 0. -1.
        -11    1    4    4    0    0 -0.45927615118E+02 -0.69612250691E+01  0.72217321197E+02  0.85867024904E+02  0.00000000000E+00 0.  1.
         12    1    4    4    0    0 -0.42321500244E+02  0.45422146147E+02  0.10182653401E+02  0.62912376952E+02  0.00000000000E+00 0. -1.
         -5    1    5    5    0  502  0.91283183179E+01  0.47359208969E+02  0.11386135977E+03  0.12374457612E+03  0.47000000000E+01 0.  1.
         11    1    6    6    0    0 -0.17463507580E+02 -0.44982840816E+02  0.26594495275E+03  0.27028715833E+03  0.00000000000E+00 0. -1.
        -12    1    6    6    0    0  0.62104455964E+02 -0.54674771387E+02  0.26143953125E+03  0.27422057285E+03  0.00000000000E+00 0.  1.
</event>
<event>
12    1  0.8453150E-002  0.1831439E+03  0.7818608E-02  0.1164975E+00
         21   -1    0    0  503  502  0.00000000000E+00  0.00000000000E+00  0.54150354865E+03  0.54150354865E+03  0.00000000000E+00 0.  1.
         21   -1    0    0  501  503 -0.00000000000E+00 -0.00000000000E+00 -0.15923283965E+03  0.15923283965E+03  0.00000000000E+00 0.  1.
          6    2    1    2  501    0 -0.61532315682E+02  0.13784466518E+02 -0.83249887163E+02  0.20048533545E+03  0.17113616983E+03 0.  0.
         24    2    3    3    0    0 -0.39120467016E+02  0.49871229848E+01  0.26386892773E+02  0.88137670901E+02  0.74274481395E+02 0.  0.
         -6    2    1    2    0  502  0.61532315682E+02 -0.13784466518E+02  0.46552059617E+03  0.50025105286E+03  0.17194607596E+03 0.  0.
        -24    2    5    5    0    0 -0.30875161335E+02  0.13580201361E+01  0.28527862490E+03  0.29708192401E+03  0.76932801462E+02 0.  0.
          5    1    3    3  501    0 -0.22411848666E+02  0.87973435332E+01 -0.10963677994E+03  0.11234766454E+03  0.47000000000E+01 0. -1.
        -13    1    4    4    0    0  0.14023942878E+02  0.40824883734E+01 -0.14876819500E+02  0.20848439836E+02  0.00000000000E+00 0.  1.
         14    1    4    4    0    0 -0.53144409894E+02  0.90463461136E+00  0.41263712273E+02  0.67289231065E+02  0.00000000000E+00 0. -1.
         -5    1    5    5    0  502  0.92407477017E+02 -0.15142486654E+02  0.18024197126E+03  0.20316912884E+03  0.47000000000E+01 0.  1.
         11    1    6    6    0    0 -0.21599738940E+02  0.29405818173E+02  0.62636852424E+02  0.72488800144E+02  0.00000000000E+00 0. -1.
        -12    1    6    6    0    0 -0.92754223957E+01 -0.28047798037E+02  0.22264177248E+03  0.22459312387E+03  0.00000000000E+00 0.  1.
</event>
<event>
12    1  0.8453150E-002  0.2014907E+03  0.7818608E-02  0.1151931E+00
         21   -1    0    0  501  502  0.00000000000E+00  0.00000000000E+00  0.11998332095E+03  0.11998332095E+03  0.00000000000E+00 0. -1.
         21   -1    0    0  502  503 -0.00000000000E+00 -0.00000000000E+00 -0.33787985436E+03  0.33787985436E+03  0.00000000000E+00 0. -1.
         -6    2    1    2    0  503  0.25513202829E+02  0.64041117096E+02 -0.50218867796E+02  0.20765461904E+03  0.18933123865E+03 0.  0.
        -24    2    3    3    0    0 -0.28959774945E+02  0.59596588041E+02  0.32317383632E+02  0.10855173338E+03  0.79678376388E+02 0.  0.
          6    2    1    2  501    0 -0.25513202829E+02 -0.64041117096E+02 -0.16767766561E+03  0.25020855627E+03  0.17244226248E+03 0.  0.
         24    2    5    5    0    0  0.22786789034E+02 -0.59844487392E+02 -0.32976190475E+02  0.10697071798E+03  0.79086692563E+02 0.  0.
          5    1    5    5  501    0 -0.48299991863E+02 -0.41966297034E+01 -0.13470147514E+03  0.14323783829E+03  0.47000000000E+01 0. -1.
        -13    1    6    6    0    0 -0.92561994905E+01 -0.63317734934E+02 -0.48171355423E+01  0.64171781813E+02  0.00000000000E+00 0.  1.
         14    1    6    6    0    0  0.32042988524E+02  0.34732475422E+01 -0.28159054933E+02  0.42798936164E+02  0.00000000000E+00 0. -1.
         -5    1    3    3    0  503  0.54472977774E+02  0.44445290544E+01 -0.82536251428E+02  0.99102885658E+02  0.47000000000E+01 0.  1.
         13    1    4    4    0    0 -0.12387467008E+02  0.76630957747E+02  0.14790953263E+02  0.79022309018E+02  0.00000000000E+00 0. -1.
        -14    1    4    4    0    0 -0.16572307937E+02 -0.17034369706E+02  0.17526430369E+02  0.29529424361E+02  0.00000000000E+00 0.  1.
</event>
<event>
12    1  0.8453150E-002  0.1950988E+03  0.7818608E-02  0.1154446E+00
         21   -1    0    0  503  502  0.00000000000E+00  0.00000000000E+00  0.77621439500E+02  0.77621439500E+02  0.00000000000E+00 0.  1.
         21   -1    0    0  501  503 -0.00000000000E+00 -0.00000000000E+00 -0.61778606848E+03  0.61778606848E+03  0.00000000000E+00 0.  1.
          6    2    1    2  501    0 -0.77421132027E+02 -0.47505300919E+02 -0.43026182773E+03  0.47148303456E+03  0.17005947834E+03 0.  0.
         24    2    3    3    0    0 -0.91277947401E+02 -0.63191344646E+02 -0.19210069296E+03  0.23235779663E+03  0.69012025750E+02 0.  0.
         -6    2    1    2    0  502  0.77421132027E+02  0.47505300919E+02 -0.10990280125E+03  0.22392447342E+03  0.17266371586E+03 0.  0.
        -24    2    5    5    0    0  0.22973405513E+02 -0.58985784719E+00  0.11158730764E+02  0.82659885669E+02  0.78613065920E+02 0.  0.
          5    1    3    3  501    0  0.13856815375E+02  0.15686043727E+02 -0.23816113477E+03  0.23912523793E+03  0.47000000000E+01 0. -1.
        -13    1    4    4    0    0 -0.16582120979E+02  0.94064284710E+01 -0.76784175704E+01  0.20552511504E+02  0.00000000000E+00 0.  1.
         14    1    4    4    0    0 -0.74695826422E+02 -0.72597773117E+02 -0.18442227539E+03  0.21180528512E+03  0.00000000000E+00 0. -1.
         -5    1    5    5    0  502  0.54447726513E+02  0.48095158766E+02 -0.12106153201E+03  0.14126458775E+03  0.47000000000E+01 0.  1.
         11    1    6    6    0    0 -0.25112175547E+02  0.72965456863E+00 -0.13590148954E+02  0.28563016386E+02  0.00000000000E+00 0. -1.
        -12    1    6    6    0    0  0.48085581060E+02 -0.13195124158E+01  0.24748879718E+02  0.54096869283E+02  0.00000000000E+00 0.  1.
</event>
<event>
12    1  0.8453150E-002  0.2690574E+03  0.7818608E-02  0.1103530E+00
         21   -1    0    0  503  502  0.00000000000E+00  0.00000000000E+00  0.29177723665E+03  0.29177723665E+03  0.00000000000E+00 0. -1.
         21   -1    0    0  501  503 -0.00000000000E+00 -0.00000000000E+00 -0.24475618049E+03  0.24475618049E+03  0.00000000000E+00 0.  1.
          6    2    1    2  501    0  0.14028417805E+03  0.13020431796E+03 -0.22142538226E+02  0.26996699760E+03  0.18910069478E+03 0.  0.
         24    2    3    3    0    0  0.10128509716E+03  0.75229817709E+02  0.63933009024E+02  0.16054024666E+03  0.75944353142E+02 0.  0.
         -6    2    1    2    0  502 -0.14028417805E+03 -0.13020431796E+03  0.69163594380E+02  0.26656641954E+03  0.17216630975E+03 0.  0.
        -24    2    5    5    0    0 -0.26371124882E+02 -0.10658435075E+03  0.62991654468E+02  0.14997195408E+03  0.80423742936E+02 0.  0.
          5    1    3    3  501    0  0.38999080889E+02  0.54974500248E+02 -0.86075547250E+02  0.10942675094E+03  0.47000000000E+01 0. -1.
        -11    1    4    4    0    0  0.81367357773E+02  0.32266510450E+02  0.89694996308E+01  0.87989922896E+02  0.00000000000E+00 0.  1.
         12    1    4    4    0    0  0.19917739389E+02  0.42963307259E+02  0.54963509393E+02  0.72550323760E+02  0.00000000000E+00 0. -1.
         -5    1    5    5    0  502 -0.11391305317E+03 -0.23619967211E+02  0.61719399125E+01  0.11659446546E+03  0.47000000000E+01 0.  1.
         11    1    6    6    0    0 -0.39872057156E+02 -0.19217127742E+02  0.37375991805E+02  0.57931370637E+02  0.00000000000E+00 0. -1.
        -12    1    6    6    0    0  0.13500932274E+02 -0.87367223004E+02  0.25615662663E+02  0.92040583447E+02  0.00000000000E+00 0.  1.
</event>
<event>
12    1  0.8453150E-002  0.2196368E+03  0.7818608E-02  0.1134343E+00
         21   -1    0    0  503  502  0.00000000000E+00  0.00000000000E+00  0.21857710047E+03  0.21857710047E+03  0.00000000000E+00 0. -1.
         21   -1    0    0  501  503 -0.00000000000E+00 -0.00000000000E+00 -0.33187271339E+03  0.33187271339E+03  0.00000000000E+00 0. -1.
          6    2    1    2  501    0  0.13648387519E+03  0.10271499316E+02 -0.21657825969E+03  0.30774089091E+03  0.17048449044E+03 0.  0.
         24    2    3    3    0    0  0.15733705994E+03 -0.18525348132E+02 -0.20372651971E+03  0.26964402808E+03  0.78136214991E+02 0.  0.
         -6    2    1    2    0  502 -0.13648387519E+03 -0.10271499316E+02  0.10328264677E+03  0.24270892295E+03  0.17177591295E+03 0.  0.
        -24    2    5    5    0    0 -0.91571137385E+02  0.38780544244E+02  0.11783915590E+03  0.17446495653E+03  0.81625673530E+02 0.  0.
          5    1    3    3  501    0 -0.20853184745E+02  0.28796847447E+02 -0.12851739979E+02  0.38096862829E+02  0.47000000000E+01 0. -1.
        -11    1    4    4    0    0  0.19081764962E+02 -0.32282107998E+02 -0.38096828204E+02  0.53456679378E+02  0.00000000000E+00 0.  1.
         12    1    4    4    0    0  0.13825529498E+03  0.13756759866E+02 -0.16562969150E+03  0.21618734870E+03  0.00000000000E+00 0. -1.
         -5    1    5    5    0  502 -0.44912737807E+02 -0.49052043559E+02 -0.14556509131E+02  0.68243966420E+02  0.47000000000E+01 0.  1.
         11    1    6    6    0    0 -0.10182524557E+03  0.47557979550E+02  0.91707328508E+02  0.14505301154E+03  0.00000000000E+00 0. -1.
        -12    1    6    6    0    0  0.10254108184E+02 -0.87774353064E+01  0.26131827395E+02  0.29411944992E+02  0.00000000000E+00 0.  1.
</event>
<event>
12    1  0.8453150E-002  0.2716082E+03  0.7818608E-02  0.1100787E+00
         21   -1    0    0  503  502  0.00000000000E+00  0.00000000000E+00  0.21121442717E+04  0.21121442717E+04  0.00000000000E+00 0. -1.
         21   -1    0    0  501  503 -0.00000000000E+00 -0.00000000000E+00 -0.16260051309E+03  0.16260051309E+03  0.00000000000E+00 0.  1.
          6    2    1    2  501    0  0.20988805005E+03 -0.12184222720E+02 -0.35705506723E+02  0.27100187191E+03  0.16722943082E+03 0.  0.
         24    2    3    3    0    0  0.17994395852E+03  0.41916911717E+02 -0.49366655992E+02  0.20750149109E+03  0.80516746000E+02 0.  0.
         -6    2    1    2    0  502 -0.20988805005E+03  0.12184222720E+02  0.19852492653E+04  0.20037429129E+04  0.17195803724E+03 0.  0.
        -24    2    5    5    0    0 -0.17383841684E+03 -0.25584946087E+02  0.18179742970E+04  0.18284457617E+04  0.85492540218E+02 0.  0.
          5    1    3    3  501    0  0.29944091532E+02 -0.54101134437E+02  0.13661149270E+02  0.63500380821E+02  0.47000000000E+01 0. -1.
        -11    1    4    4    0    0  0.10203082644E+03 -0.17280828719E+02 -0.30089815894E+02  0.10776972490E+03  0.00000000000E+00 0.  1.
         12    1    4    4    0    0  0.77913132080E+02  0.59197740436E+02 -0.19276840098E+02  0.99731766190E+02  0.00000000000E+00 0. -1.
         -5    1    5    5    0  502 -0.36049633212E+02  0.37769168807E+02  0.16727496833E+03  0.17529715114E+03  0.47000000000E+01 0.  1.
         13    1    6    6    0    0 -0.99341942152E+02 -0.48858206123E+02  0.82256133989E+03  0.82997777299E+03  0.00000000000E+00 0. -1.
        -14    1    6    6    0    0 -0.74496474688E+02  0.23273260036E+02  0.99541295711E+03  0.99846798874E+03  0.00000000000E+00 0.  1.
</event>
<event>
12    1  0.8453150E-002  0.1948010E+03  0.7818608E-02  0.1154497E+00
         21   -1    0    0  503  502  0.00000000000E+00  0.00000000000E+00  0.31226589313E+03  0.31226589313E+03  0.00000000000E+00 0. -1.
         21   -1    0    0  501  503 -0.00000000000E+00 -0.00000000000E+00 -0.12072144003E+03  0.12072144003E+03  0.00000000000E+00 0. -1.
          6    2    1    2  501    0  0.43540024039E+02 -0.77112946695E+02  0.92162519075E+02  0.21550261045E+03  0.17350880366E+03 0.  0.
         24    2    3    3    0    0 -0.25881378889E+02 -0.18207372153E+02  0.48569284425E+01  0.89274427973E+02  0.83336543978E+02 0.  0.
         -6    2    1    2    0  502 -0.43540024039E+02  0.77112946695E+02  0.99381934031E+02  0.21748472271E+03  0.17199039379E+03 0.  0.
        -24    2    5    5    0    0 -0.18585392386E+02  0.35582491460E+02  0.13470123182E+03  0.15734276440E+03  0.70716286276E+02 0.  0.
          5    1    3    3  501    0  0.69421402927E+02 -0.58905574542E+02  0.87305590632E+02  0.12622818248E+03  0.47000000000E+01 0. -1.
        -11    1    4    4    0    0  0.27876231243E+02  0.66718854045E+01 -0.53706825724E+01  0.29162348233E+02  0.00000000000E+00 0.  1.
         12    1    4    4    0    0 -0.53757610132E+02 -0.24879257558E+02  0.10227611015E+02  0.60112079741E+02  0.00000000000E+00 0. -1.
         -5    1    5    5    0  502 -0.24954631653E+02  0.41530455235E+02 -0.35319297791E+02  0.60141958310E+02  0.47000000000E+01 0.  1.
         13    1    6    6    0    0 -0.10675517420E+02  0.82595440104E+01 -0.52852644830E+01  0.14495542767E+02  0.00000000000E+00 0. -1.
        -14    1    6    6    0    0 -0.79098749657E+01  0.27322947450E+02  0.13998649630E+03  0.14284722163E+03  0.00000000000E+00 0.  1.
</event>
<event>
12    1  0.8453150E-002  0.1818210E+03  0.7818608E-02  0.1167597E+00
         21   -1    0    0  501  502  0.00000000000E+00  0.00000000000E+00  0.12316004336E+03  0.12316004336E+03  0.00000000000E+00 0.  1.
         21   -1    0    0  502  503 -0.00000000000E+00 -0.00000000000E+00 -0.40279062690E+03  0.40279062690E+03  0.00000000000E+00 0.  1.
         -6    2    1    2    0  503 -0.25158994782E+02  0.14059160492E+02 -0.29844694531E+03  0.34947027446E+03  0.17952230657E+03 0.  0.
        -24    2    3    3    0    0 -0.64043541131E+02  0.88853708325E+01 -0.88283884311E+02  0.13562598940E+03  0.80123902784E+02 0.  0.
          6    2    1    2  501    0  0.25158994782E+02 -0.14059160492E+02  0.18816361762E+02  0.17648039580E+03  0.17309141983E+03 0.  0.
         24    2    5    5    0    0  0.99324806423E+01 -0.75839150301E+02 -0.94477537403E+01  0.10669813373E+03  0.73790248687E+02 0.  0.
          5    1    5    5  501    0  0.15226514140E+02  0.61779989808E+02  0.28264115503E+02  0.69782262064E+02  0.47000000000E+01 0. -1.
        -11    1    6    6    0    0 -0.42225788513E+01 -0.34200951774E+02  0.31440858299E+02  0.46648288768E+02  0.00000000000E+00 0.  1.
         12    1    6    6    0    0  0.14155059494E+02 -0.41638198526E+02 -0.40888612039E+02  0.60049844965E+02  0.00000000000E+00 0. -1.
         -5    1    3    3    0  503  0.38884546349E+02  0.51737896598E+01 -0.21016306099E+03  0.21384428505E+03  0.47000000000E+01 0.  1.
         11    1    4    4    0    0  0.88281395613E+01  0.83831158134E+01  0.82264050713E+01  0.14693073853E+02  0.00000000000E+00 0. -1.
        -12    1    4    4    0    0 -0.72871680693E+02  0.50225501908E+00 -0.96510289383E+02  0.12093291555E+03  0.00000000000E+00 0.  1.
</event>
<event>
12    1  0.8453150E-002  0.2509976E+03  0.7818608E-02  0.1114659E+00
         21   -1    0    0  501  502  0.00000000000E+00  0.00000000000E+00  0.13635366572E+03  0.13635366572E+03  0.00000000000E+00 0.  1.
         21   -1    0    0  502  503 -0.00000000000E+00 -0.00000000000E+00 -0.22475618116E+04  0.22475618116E+04  0.00000000000E+00 0. -1.
         -6    2    1    2    0  503 -0.39483576083E+02 -0.16065967060E+03 -0.21297414375E+04  0.21444809187E+04  0.18875735095E+03 0.  0.
        -24    2    3    3    0    0 -0.87399480299E+02 -0.10568500267E+03 -0.17904272586E+04  0.17973867673E+04  0.78494800422E+02 0.  0.
          6    2    1    2  501    0  0.39483576083E+02  0.16065967060E+03  0.18533291608E+02  0.23943455863E+03  0.17208992543E+03 0.  0.
         24    2    5    5    0    0 -0.38350940971E+02  0.98049241686E+02  0.35953224694E+02  0.13792681547E+03  0.81527440724E+02 0.  0.
          5    1    5    5  501    0  0.77834517054E+02  0.62610428909E+02 -0.17419933086E+02  0.10150774316E+03  0.47000000000E+01 0. -1.
        -13    1    6    6    0    0  0.76439508590E+01  0.58500101369E+02  0.48029981694E+02  0.76076086824E+02  0.00000000000E+00 0.  1.
         14    1    6    6    0    0 -0.45994891830E+02  0.39549140317E+02 -0.12076757000E+02  0.61850728645E+02  0.00000000000E+00 0. -1.
         -5    1    3    3    0  503  0.47915904216E+02 -0.54974667927E+02 -0.33931417890E+03  0.34709415148E+03  0.47000000000E+01 0.  1.
         13    1    4    4    0    0 -0.93371903464E+02 -0.10854630636E+03 -0.14847430729E+04  0.14916308543E+04  0.00000000000E+00 0. -1.
        -14    1    4    4    0    0  0.59724231658E+01  0.28613036879E+01 -0.30568418572E+03  0.30575591294E+03  0.00000000000E+00 0.  1.
</event>
<event>
12    1  0.8453150E-002  0.1897982E+03  0.7818608E-02  0.1160704E+00
         21   -1    0    0  503  502  0.00000000000E+00  0.00000000000E+00  0.76182434116E+03  0.76182434116E+03  0.00000000000E+00 0.  1.
         21   -1    0    0  501  503 -0.00000000000E+00 -0.00000000000E+00 -0.47760277309E+02  0.47760277309E+02  0.00000000000E+00 0. -1.
          6    2    1    2  501    0  0.35425138770E+02  0.45323978395E+02  0.25335061135E+03  0.31130736188E+03  0.17151250046E+03 0.  0.
         24    2    3    3    0    0 -0.25542587903E+02 -0.23554880959E+02  0.12547917020E+03  0.15371752583E+03  0.81711684484E+02 0.  0.
         -6    2    1    2    0  502 -0.35425138770E+02 -0.45323978395E+02  0.46071345250E+03  0.49827725659E+03  0.18087049413E+03 0.  0.
        -24    2    5    5    0    0 -0.57629134285E+02 -0.32879121785E+02  0.46071266382E+03  0.47239324853E+03  0.80604397446E+02 0.  0.
          5    1    3    3  501    0  0.60967726673E+02  0.68878859354E+02  0.12787144115E+03  0.15758983604E+03  0.47000000000E+01 0. -1.
        -11    1    4    4    0    0 -0.30515820205E+02 -0.40470039194E+02  0.12627581245E+03  0.13606843927E+03  0.00000000000E+00 0.  1.
         12    1    4    4    0    0  0.49732323021E+01  0.16915158235E+02 -0.79664225377E+00  0.17649086564E+02  0.00000000000E+00 0. -1.
         -5    1    5    5    0  502  0.22203995514E+02 -0.12444856611E+02  0.78868634976E-03  0.25884008065E+02  0.47000000000E+01 0.  1.
         11    1    6    6    0    0 -0.60349552077E+02 -0.25165054594E+02  0.17911002611E+03  0.19067183815E+03  0.00000000000E+00 0. -1.
        -12    1    6    6    0    0  0.27204177924E+01 -0.77140671908E+01  0.28160263770E+03  0.28172141038E+03  0.00000000000E+00 0.  1.
</event>
<event>
12    1  0.8453150E-002  0.3987378E+03  0.7818608E-02  0.1044286E+00
         21   -1    0    0  501  502  0.00000000000E+00  0.00000000000E+00  0.45790127168E+03  0.45790127168E+03  0.00000000000E+00 0.  1.
         21   -1    0    0  502  503 -0.00000000000E+00 -0.00000000000E+00 -0.56544332001E+03  0.56544332001E+03  0.00000000000E+00 0.  1.
         -6    2    1    2    0  503 -0.20219856749E+03 -0.29647666641E+03 -0.37217005927E+03  0.54543781453E+03  0.17380788844E+03 0.  0.
        -24    2    3    3    0    0 -0.18433506161E+03 -0.29931693710E+03 -0.38224963952E+03  0.52420435230E+03  0.71451887891E+02 0.  0.
          6    2    1    2  501    0  0.20219856749E+03  0.29647666641E+03  0.26462801094E+03  0.47790677716E+03  0.17200066588E+03 0.  0.
         24    2    5    5    0    0  0.18634326773E+03  0.19476041859E+03  0.24488449552E+03  0.37298069841E+03  0.80565198214E+02 0.  0.
          5    1    5    5  501    0  0.15855299759E+02  0.10171624782E+03  0.19743515423E+02  0.10492607875E+03  0.47000000000E+01 0. -1.
        -13    1    6    6    0    0  0.79882253639E+02  0.30924874109E+02  0.67032112859E+02  0.10876960255E+03  0.00000000000E+00 0.  1.
         14    1    6    6    0    0  0.10646101409E+03  0.16383554448E+03  0.17785238266E+03  0.26421109586E+03  0.00000000000E+00 0. -1.
         -5    1    3    3    0  503 -0.17863505879E+02  0.28402706925E+01  0.10079580256E+02  0.21233462225E+02  0.47000000000E+01 0.  1.
         13    1    4    4    0    0 -0.61804958705E+02 -0.16837736384E+03 -0.19408735059E+03  0.26427389056E+03  0.00000000000E+00 0. -1.
        -14    1    4    4    0    0 -0.12253010290E+03 -0.13093957326E+03 -0.18816228894E+03  0.25993046174E+03  0.00000000000E+00 0.  1.
</event>
<event>
12    1  0.8453150E-002  0.2554365E+03  0.7818608E-02  0.1110194E+00
         21   -1    0    0  503  502  0.00000000000E+00  0.00000000000E+00  0.25301834818E+03  0.25301834818E+03  0.00000000000E+00 0.  1.
         21   -1    0    0  501  503 -0.00000000000E+00 -0.00000000000E+00 -0.70084839850E+03  0.70084839850E+03  0.00000000000E+00 0.  1.
          6    2    1    2  501    0  0.17394071142E+03 -0.67381981287E+02 -0.60357026139E+03  0.65469654016E+03  0.17185690782E+03 0.  0.
         24    2    3    3    0    0  0.12070385543E+03  0.59994511559E+01 -0.24497306907E+03  0.28478704608E+03  0.80538456151E+02 0.  0.
         -6    2    1    2    0  502 -0.17394071142E+03  0.67381981287E+02  0.15574021108E+03  0.29917020652E+03  0.17450529113E+03 0.  0.
        -24    2    5    5    0    0 -0.16507756213E+02  0.22019955594E+02  0.84996351771E+02  0.12064952876E+03  0.81083565012E+02 0.  0.
          5    1    3    3  501    0  0.53236855992E+02 -0.73381432443E+02 -0.35859719232E+03  0.36990949407E+03  0.47000000000E+01 0. -1.
        -11    1    4    4    0    0  0.10486013009E+03  0.27282773269E+02 -0.23018472401E+03  0.25441109207E+03  0.00000000000E+00 0.  1.
         12    1    4    4    0    0  0.15843725338E+02 -0.21283322113E+02 -0.14788345055E+02  0.30375954013E+02  0.00000000000E+00 0. -1.
         -5    1    5    5    0  502 -0.15743295521E+03  0.45362025693E+02  0.70743859307E+02  0.17852067777E+03  0.47000000000E+01 0.  1.
         13    1    6    6    0    0 -0.12727948889E+02  0.52729729546E+02  0.48120044161E+02  0.72511817733E+02  0.00000000000E+00 0. -1.
        -14    1    6    6    0    0 -0.37798073242E+01 -0.30709773952E+02  0.36876307610E+02  0.48137711023E+02  0.00000000000E+00 0.  1.
</event>
<event>
12    1  0.8453150E-002  0.1998203E+03  0.7818608E-02  0.1150140E+00
         21   -1    0    0  501  502  0.00000000000E+00  0.00000000000E+00  0.33354144104E+03  0.33354144104E+03  0.00000000000E+00 0. -1.
         21   -1    0    0  502  503 -0.00000000000E+00 -0.00000000000E+00 -0.21508359075E+03  0.21508359075E+03  0.00000000000E+00 0. -1.
         -6    2    1    2    0  503 -0.67785735820E+02 -0.76421531623E+02 -0.12401215286E+03  0.23517475232E+03  0.17173524273E+03 0.  0.
        -24    2    3    3    0    0 -0.72733887181E+02 -0.18469740991E+02 -0.10506190388E+02  0.10754800059E+03  0.76320657220E+02 0.  0.
          6    2    1    2  501    0  0.67785735820E+02  0.76421531623E+02  0.24247000315E+03  0.31345027947E+03  0.17036495766E+03 0.  0.
         24    2    5    5    0    0  0.80755609514E+02  0.19691858132E+02  0.22506443753E+03  0.25252805699E+03  0.78785663546E+02 0.  0.
          5    1    5    5  501    0 -0.12969873695E+02  0.56729673491E+02  0.17405565620E+02  0.60922222486E+02  0.47000000000E+01 0. -1.
        -13    1    6    6    0    0 -0.74753609187E+01 -0.17234826710E+02  0.40866201500E+02  0.44977402078E+02  0.00000000000E+00 0.  1.
         14    1    6    6    0    0  0.88230970433E+02  0.36926684842E+02  0.18419823603E+03  0.20755065491E+03  0.00000000000E+00 0. -1.
         -5    1    3    3    0  503  0.49481513609E+01 -0.57951790631E+02 -0.11350596247E+03  0.12762675172E+03  0.47000000000E+01 0.  1.
         13    1    4    4    0    0 -0.89051802484E+02 -0.16520978450E+02 -0.79972513763E+01  0.90923716841E+02  0.00000000000E+00 0. -1.
        -14    1    4    4    0    0  0.16317915304E+02 -0.19487625413E+01 -0.25089390116E+01  0.16624283752E+02  0.00000000000E+00 0.  1.
</event>
<event>
12    1  0.8453150E-002  0.1767727E+03  0.7818608E-02  0.1171192E+00
         21   -1    0    0  503  502  0.00000000000E+00  0.00000000000E+00  0.15291541679E+03  0.15291541679E+03  0.00000000000E+00 0.  1.
         21   -1    0    0  501  503 -0.00000000000E+00 -0.00000000000E+00 -0.20629552244E+03  0.20629552244E+03  0.00000000000E+00 0.  1.
          6    2    1    2  501    0 -0.20578726486E+02  0.33773385282E+02 -0.48299155512E+02  0.18236522755E+03  0.17134801504E+03 0.  0.
         24    2    3    3    0    0 -0.21249257226E+02  0.76555116842E+02  0.26979647019E+01  0.11563051067E+03  0.83969751318E+02 0.  0.
         -6    2    1    2    0  502  0.20578726486E+02 -0.33773385282E+02 -0.50809501288E+01  0.17684571168E+03  0.17229179943E+03 0.  0.
        -24    2    5    5    0    0 -0.55294376064E+02 -0.19838286944E+02 -0.84732220139E+01  0.99486082906E+02  0.79841465089E+02 0.  0.
          5    1    3    3  501    0  0.67053074011E+00 -0.42781731560E+02 -0.50997120214E+02  0.66734716878E+02  0.47000000000E+01 0. -1.
        -11    1    4    4    0    0 -0.34480140808E+00  0.71187447079E+01 -0.33733690735E+02  0.34478359950E+02  0.00000000000E+00 0.  1.
         12    1    4    4    0    0 -0.20904455818E+02  0.69436372134E+02  0.36431655437E+02  0.81152150717E+02  0.00000000000E+00 0. -1.
         -5    1    5    5    0  502  0.75873102549E+02 -0.13935098339E+02  0.33922718851E+01  0.77359628778E+02  0.47000000000E+01 0.  1.
         13    1    6    6    0    0 -0.24362942065E+02 -0.47095632328E+02 -0.20011006321E+02  0.56674437839E+02  0.00000000000E+00 0. -1.
        -14    1    6    6    0    0 -0.30931433999E+02  0.27257345384E+02  0.11537784308E+02  0.42811645067E+02  0.00000000000E+00 0.  1.
</event>
<event>
12    1  0.8453150E-002  0.1808745E+03  0.7818608E-02  0.1167561E+00
         21   -1    0    0  503  502  0.00000000000E+00  0.00000000000E+00  0.77384856890E+03  0.77384856890E+03  0.00000000000E+00 0.  1.
         21   -1    0    0  501  503 -0.00000000000E+00 -0.00000000000E+00 -0.41871136898E+02  0.41871136898E+02  0.00000000000E+00 0.  1.
          6    2    1    2  501    0  0.34290197183E+02 -0.34727545404E+02  0.34229540098E+03  0.38714563585E+03  0.17416596049E+03 0.  0.
         24    2    3    3    0    0  0.64085808375E+02 -0.22314045756E+02  0.10360817514E+03  0.14623993812E+03  0.77759617235E+02 0.  0.
         -6    2    1    2    0  502 -0.34290197183E+02  0.34727545404E+02  0.38968203102E+03  0.42857406995E+03  0.17158621186E+03 0.  0.
        -24    2    5    5    0    0 -0.42105148838E+02  0.84955703954E+02  0.31046390821E+03  0.33433213469E+03  0.79998892417E+02 0.  0.
          5    1    3    3  501    0 -0.29795611192E+02 -0.12413499648E+02  0.23868722584E+03  0.24090569773E+03  0.47000000000E+01 0. -1.
        -11    1    4    4    0    0  0.33424857991E+02 -0.16662766100E+02  0.10843909029E+03  0.11469047567E+03  0.00000000000E+00 0.  1.
         12    1    4    4    0    0  0.30660950384E+02 -0.56512796559E+01 -0.48309151451E+01  0.31549462457E+02  0.00000000000E+00 0. -1.
         -5    1    5    5    0  502  0.78149516552E+01 -0.50228158550E+02  0.79218122809E+02  0.94241935263E+02  0.47000000000E+01 0.  1.
         13    1    6    6    0    0  0.21279654418E+02  0.70205964874E+01  0.40535078074E+02  0.46316358035E+02  0.00000000000E+00 0. -1.
        -14    1    6    6    0    0 -0.63384803256E+02  0.77935107467E+02  0.26992883014E+03  0.28801577665E+03  0.00000000000E+00 0.  1.
</event>
<event>
12    1  0.8453150E-002  0.2612801E+03  0.7818608E-02  0.1107347E+00
         21   -1    0    0  503  502  0.00000000000E+00  0.00000000000E+00  0.19839086593E+03  0.19839086593E+03  0.00000000000E+00 0. -1.
         21   -1    0    0  501  503 -0.00000000000E+00 -0.00000000000E+00 -0.37691871787E+03  0.37691871787E+03  0.00000000000E+00 0.  1.
          6    2    1    2  501    0 -0.29620117810E+02 -0.18596437170E+03  0.48588805024E+01  0.26132524468E+03  0.18112751272E+03 0.  0.
         24    2    3    3    0    0 -0.71168938179E+01 -0.54630557878E+02 -0.60535379201E+02  0.11282115401E+03  0.77646201613E+02 0.  0.
         -6    2    1    2    0  502  0.29620117810E+02  0.18596437170E+03 -0.18338673244E+03  0.31398433912E+03  0.17174216913E+03 0.  0.
        -24    2    5    5    0    0  0.19978388673E+02  0.86439533709E+02 -0.17615227787E+03  0.21362207703E+03  0.82059964625E+02 0.  0.
          5    1    3    3  501    0 -0.22503223992E+02 -0.13133381382E+03  0.65394259704E+02  0.14850409067E+03  0.47000000000E+01 0. -1.
        -13    1    4    4    0    0  0.21288563923E+02 -0.46387588781E+02 -0.65281517005E+02  0.82865480203E+02  0.00000000000E+00 0.  1.
         14    1    4    4    0    0 -0.28405457741E+02 -0.82429690964E+01  0.47461378040E+01  0.29955673804E+02  0.00000000000E+00 0. -1.
         -5    1    5    5    0  502  0.96417291362E+01  0.99524837992E+02 -0.72344545631E+01  0.10036226209E+03  0.47000000000E+01 0.  1.
         13    1    6    6    0    0 -0.19585816530E+02 -0.51779728641E+01 -0.21275565976E+02  0.29377973377E+02  0.00000000000E+00 0. -1.
        -14    1    6    6    0    0  0.39564205204E+02  0.91617506573E+02 -0.15487671190E+03  0.18424410366E+03  0.00000000000E+00 0.  1.
</event>
<event>
12    1  0.8453150E-002  0.2028351E+03  0.7818608E-02  0.1147500E+00
         21   -1    0    0  503  502  0.00000000000E+00  0.00000000000E+00  0.54831095576E+03  0.54831095576E+03  0.00000000000E+00 0. -1.
         21   -1    0    0  501  503 -0.00000000000E+00 -0.00000000000E+00 -0.92773360112E+02  0.92773360112E+02  0.00000000000E+00 0.  1.
          6    2    1    2  501    0 -0.10316448184E+03 -0.29230752597E+02  0.86972602551E+02  0.22069503530E+03  0.17217641476E+03 0.  0.
         24    2    3    3    0    0 -0.12550779059E+03 -0.57401742396E+02  0.48333690026E+02  0.16770556773E+03  0.82108746950E+02 0.  0.
         -6    2    1    2    0  502  0.10316448184E+03  0.29230752597E+02  0.36856499310E+03  0.42038928058E+03  0.17143408610E+03 0.  0.
        -24    2    5    5    0    0  0.11146759292E+03 -0.28740872114E+02  0.29363027031E+03  0.32516872815E+03  0.79151147330E+02 0.  0.
          5    1    3    3  501    0  0.22343308753E+02  0.28170989799E+02  0.38638912525E+02  0.52989467570E+02  0.47000000000E+01 0. -1.
        -11    1    4    4    0    0 -0.36513977860E+02  0.18101087060E+02 -0.15514979319E+01  0.40783907093E+02  0.00000000000E+00 0.  1.
         12    1    4    4    0    0 -0.88993812730E+02 -0.75502829456E+02  0.49885187958E+02  0.12692166063E+03  0.00000000000E+00 0. -1.
         -5    1    5    5    0  502 -0.83031110810E+01  0.57971624711E+02  0.74934722787E+02  0.95220552427E+02  0.47000000000E+01 0.  1.
         13    1    6    6    0    0  0.54031728704E+02 -0.19735745471E+02  0.23746336675E+03  0.24433128720E+03  0.00000000000E+00 0. -1.
        -14    1    6    6    0    0  0.57435864214E+02 -0.90051266431E+01  0.56166903557E+02  0.80837440948E+02  0.00000000000E+00 0.  1.
</event>
<event>
12    1  0.8453150E-002  0.2890441E+03  0.7818608E-02  0.1090977E+00
         21   -1    0    0  501  502  0.00000000000E+00  0.00000000000E+00  0.71028692734E+03  0.71028692734E+03  0.00000000000E+00 0. -1.
         21   -1    0    0  502  503 -0.00000000000E+00 -0.00000000000E+00 -0.16468408439E+03  0.16468408439E+03  0.00000000000E+00 0.  1.
         -6    2    1    2    0  503  0.59032137787E+02  0.22281287255E+03  0.37624584139E+02  0.29051535971E+03  0.17278077275E+03 0.  0.
        -24    2    3    3    0    0  0.75541469629E+02  0.64425972705E+02  0.53414262394E+01  0.12796302856E+03  0.80553002740E+02 0.  0.
          6    2    1    2  501    0 -0.59032137787E+02 -0.22281287255E+03  0.50797825881E+03  0.58445565202E+03  0.17440220266E+03 0.  0.
         24    2    5    5    0    0 -0.52610112380E+02 -0.23846900357E+03  0.40267553781E+03  0.47769840449E+03  0.80080505227E+02 0.  0.
          5    1    5    5  501    0 -0.64220254077E+01  0.15656131025E+02  0.10530272101E+03  0.10675724753E+03  0.47000000000E+01 0. -1.
        -13    1    6    6    0    0 -0.58962101553E+01 -0.95574994106E+01 -0.10166014189E+01  0.11275839996E+02  0.00000000000E+00 0.  1.
         14    1    6    6    0    0 -0.46713902224E+02 -0.22891150416E+03  0.40369213922E+03  0.46642256449E+03  0.00000000000E+00 0. -1.
         -5    1    3    3    0  503 -0.16509331842E+02  0.15838689984E+03  0.32283157899E+02  0.16255233115E+03  0.47000000000E+01 0.  1.
         11    1    4    4    0    0 -0.10397884529E+02  0.25932150250E+02  0.17571881964E+02  0.33005506435E+02  0.00000000000E+00 0. -1.
        -12    1    4    4    0    0  0.85939354158E+02  0.38493822455E+02 -0.12230455725E+02  0.94957522122E+02  0.00000000000E+00 0.  1.
</event>
<event>
12    1  0.8453150E-002  0.1739236E+03  0.7818608E-02  0.1174647E+00
         21   -1    0    0  503  502  0.00000000000E+00  0.00000000000E+00  0.17159895478E+03  0.17159895478E+03  0.00000000000E+00 0.  1.
         21   -1    0    0  501  503 -0.00000000000E+00 -0.00000000000E+00 -0.17967665324E+03  0.17967665324E+03  0.00000000000E+00 0.  1.
          6    2    1    2  501    0  0.15560366785E+02 -0.65763650627E+01 -0.37845645122E+02  0.17482290165E+03  0.16983927842E+03 0.  0.
         24    2    3    3    0    0 -0.35742306641E+02  0.38203934808E+02 -0.28338381787E+02  0.10590470657E+03  0.87611014563E+02 0.  0.
         -6    2    1    2    0  502 -0.15560366785E+02  0.65763650627E+01  0.29767946668E+02  0.17645270636E+03  0.17310128059E+03 0.  0.
        -24    2    5    5    0    0 -0.51452843058E+02  0.19123731463E+02  0.70568012129E+02  0.12048448683E+03  0.80768527697E+02 0.  0.
          5    1    3    3  501    0  0.51302673426E+02 -0.44780299871E+02 -0.95072633345E+01  0.68918195081E+02  0.47000000000E+01 0. -1.
        -11    1    4    4    0    0  0.50270944029E+01  0.48622369537E+01  0.27954321646E+02  0.28815917911E+02  0.00000000000E+00 0.  1.
         12    1    4    4    0    0 -0.40769401044E+02  0.33341697854E+02 -0.56292703433E+02  0.77088788660E+02  0.00000000000E+00 0. -1.
         -5    1    5    5    0  502  0.35892476273E+02 -0.12547366400E+02 -0.40800065461E+02  0.55968219538E+02  0.47000000000E+01 0.  1.
         11    1    6    6    0    0 -0.29914522793E+02  0.47075248531E+02  0.20912155457E+02  0.59567406726E+02  0.00000000000E+00 0. -1.
        -12    1    6    6    0    0 -0.21538320265E+02 -0.27951517068E+02  0.49655856672E+02  0.60917080101E+02  0.00000000000E+00 0.  1.
</event>
<event>
12    1  0.8453150E-002  0.1766032E+03  0.7818608E-02  0.1171283E+00
         21   -1    0    0  503  502  0.00000000000E+00  0.00000000000E+00  0.13687895623E+03  0.13687895623E+03  0.00000000000E+00 0.  1.
         21   -1    0    0  501  503 -0.00000000000E+00 -0.00000000000E+00 -0.12285871257E+04  0.12285871257E+04  0.00000000000E+00 0.  1.
          6    2    1    2  501    0 -0.24393018012E+02 -0.26519377600E+02 -0.11620999612E+04  0.11753511113E+04  0.17226612627E+03 0.  0.
         24    2    3    3    0    0 -0.35357103307E+02  0.41845603110E+02 -0.79458070055E+03  0.80133710259E+03  0.88212714740E+02 0.  0.
         -6    2    1    2    0  502  0.24393018012E+02  0.26519377600E+02  0.70391791743E+02  0.19011497063E+03  0.17288840620E+03 0.  0.
        -24    2    5    5    0    0  0.32580069397E+02 -0.41116586494E+02  0.61291041193E+01  0.96341656356E+02  0.80573657143E+02 0.  0.
          5    1    3    3  501    0  0.10964085295E+02 -0.68364980709E+02 -0.36751926069E+03  0.37401400874E+03  0.47000000000E+01 0. -1.
        -11    1    4    4    0    0 -0.37727329862E+02 -0.18932299330E+02 -0.37559542871E+03  0.37795993100E+03  0.00000000000E+00 0.  1.
         12    1    4    4    0    0  0.23702265547E+01  0.60777902440E+02 -0.41898527185E+03  0.42337717159E+03  0.00000000000E+00 0. -1.
         -5    1    5    5    0  502 -0.81870513852E+01  0.67635964094E+02  0.64262687623E+02  0.93773314274E+02  0.47000000000E+01 0.  1.
         13    1    6    6    0    0  0.43593620582E+01 -0.11184051817E+02 -0.35705275678E+02  0.37669002693E+02  0.00000000000E+00 0. -1.
        -14    1    6    6    0    0  0.28220707339E+02 -0.29932534677E+02  0.41834379798E+02  0.58672653664E+02  0.00000000000E+00 0.  1.
</event>
<event>
12    1  0.8453150E-002  0.1741043E+03  0.7818608E-02  0.1173936E+00
         21   -1    0    0  503  502  0.00000000000E+00  0.00000000000E+00  0.41755431340E+03  0.41755431340E+03  0.00000000000E+00 0. -1.
         21   -1    0    0  501  503 -0.00000000000E+00 -0.00000000000E+00 -0.72519182655E+02  0.72519182655E+02  0.00000000000E+00 0. -1.
          6    2    1    2  501    0  0.10383742671E+02 -0.20998490012E+02  0.19058847762E+03  0.25733743932E+03  0.17131792427E+03 0.  0.
         24    2    3    3    0    0  0.54096319628E+02 -0.58829152901E+02  0.10464958221E+03  0.15365748858E+03  0.79194745487E+02 0.  0.
         -6    2    1    2    0  502 -0.10383742671E+02  0.20998490012E+02  0.15444665312E+03  0.23273605674E+03  0.17252114291E+03 0.  0.
        -24    2    5    5    0    0  0.29770736646E+02  0.35606000875E+02  0.16374478529E+03  0.18875530135E+03  0.81621841560E+02 0.  0.
          5    1    3    3  501    0 -0.43712576957E+02  0.37830662889E+02  0.85938895419E+02  0.10367995074E+03  0.47000000000E+01 0. -1.
        -13    1    4    4    0    0 -0.13302601070E+02 -0.32289657416E+02  0.14006155644E+02  0.37626500863E+02  0.00000000000E+00 0.  1.
         14    1    4    4    0    0  0.67398920699E+02 -0.26539495485E+02  0.90643426561E+02  0.11603098772E+03  0.00000000000E+00 0. -1.
         -5    1    5    5    0  502 -0.40154479317E+02 -0.14607510863E+02 -0.92981321678E+01  0.43980755390E+02  0.47000000000E+01 0.  1.
         13    1    6    6    0    0 -0.11525053436E+02 -0.20883553090E+02  0.38565329343E+02  0.45345719464E+02  0.00000000000E+00 0. -1.
        -14    1    6    6    0    0  0.41295790083E+02  0.56489553965E+02  0.12517945595E+03  0.14340958189E+03  0.00000000000E+00 0.  1.
</event>
<event>
12    1  0.8453150E-002  0.1794353E+03  0.7818608E-02  0.1168377E+00
         21   -1    0    0  503  502  0.00000000000E+00  0.00000000000E+00  0.38724239138E+03  0.38724239138E+03  0.00000000000E+00 0.  1.
         21   -1    0    0  501  503 -0.00000000000E+00 -0.00000000000E+00 -0.84218941657E+02  0.84218941657E+02  0.00000000000E+00 0.  1.
          6    2    1    2  501    0 -0.31401441890E+02  0.39958622837E+02  0.17880180981E+03  0.25331232002E+03  0.17208806522E+03 0.  0.
         24    2    3    3    0    0 -0.54686738244E+02  0.20539927920E+02  0.31978860330E+02  0.10331778934E+03  0.78989810151E+02 0.  0.
         -6    2    1    2    0  502  0.31401441890E+02 -0.39958622837E+02  0.12422163991E+03  0.21814901301E+03  0.17197451545E+03 0.  0.
        -24    2    5    5    0    0  0.21261699291E+02 -0.92886970091E+02  0.76297108591E+02  0.14587816810E+03  0.79869531603E+02 0.  0.
          5    1    3    3  501    0  0.23285296354E+02  0.19418694917E+02  0.14682294948E+03  0.14999453068E+03  0.47000000000E+01 0. -1.
        -13    1    4    4    0    0 -0.48756678129E+02 -0.10853341881E+02  0.46481729870E+02  0.68231663499E+02  0.00000000000E+00 0.  1.
         14    1    4    4    0    0 -0.59300601159E+01  0.31393269801E+02 -0.14502869540E+02  0.35086125843E+02  0.00000000000E+00 0. -1.
         -5    1    5    5    0  502  0.10139742600E+02  0.52928347254E+02  0.47924531317E+02  0.72270844917E+02  0.47000000000E+01 0.  1.
         13    1    6    6    0    0 -0.12123563985E+02 -0.16854727163E+02  0.56947996535E+02  0.60614659454E+02  0.00000000000E+00 0. -1.
        -14    1    6    6    0    0  0.33385263276E+02 -0.76032242929E+02  0.19349112057E+02  0.85263508643E+02  0.00000000000E+00 0.  1.
</event>
<event>
12    1  0.8453150E-002  0.2808812E+03  0.7818608E-02  0.1095916E+00
         21   -1    0    0  501  502  0.00000000000E+00  0.00000000000E+00  0.12413493878E+04  0.12413493878E+04  0.00000000000E+00 0. -1.
         21   -1    0    0  502  503 -0.00000000000E+00 -0.00000000000E+00 -0.10638745523E+03  0.10638745523E+03  0.00000000000E+00 0.  1.
         -6    2    1    2    0  503  0.20291835599E+03  0.71895273601E+02  0.13107774986E+03  0.30529850136E+03  0.17228177169E+03 0.  0.
        -24    2    3    3    0    0  0.21293938343E+03  0.94128900986E+02  0.10285935541E+03  0.26770697355E+03  0.82967136124E+02 0.  0.
          6    2    1    2  501    0 -0.20291835599E+03 -0.71895273601E+02  0.10038841827E+04  0.10424383417E+04  0.18041467327E+03 0.  0.
         24    2    5    5    0    0 -0.20848228995E+02 -0.28890409706E+02  0.41624277813E+03  0.42571842158E+03  0.81907384908E+02 0.  0.
          5    1    5    5  501    0 -0.18207012700E+03 -0.43004863894E+02  0.58764140461E+03  0.61671992012E+03  0.47000000000E+01 0. -1.
        -13    1    6    6    0    0  0.13045625508E+02  0.23030242008E+02  0.99268890255E+02  0.10273700874E+03  0.00000000000E+00 0.  1.
         14    1    6    6    0    0 -0.33893854503E+02 -0.51920651714E+02  0.31697388788E+03  0.32298141285E+03  0.00000000000E+00 0. -1.
         -5    1    3    3    0  503 -0.10021027434E+02 -0.22233627386E+02  0.28218394448E+02  0.37591527806E+02  0.47000000000E+01 0.  1.
         11    1    4    4    0    0  0.39001077204E+02  0.46313533862E+02  0.53215835642E+02  0.80609879078E+02  0.00000000000E+00 0. -1.
        -12    1    4    4    0    0  0.17393830622E+03  0.47815367125E+02  0.49643519767E+02  0.18709709447E+03  0.00000000000E+00 0.  1.
</event>
<event>
12    1  0.8453150E-002  0.1877940E+03  0.7818608E-02  0.1160772E+00
         21   -1    0    0  503  502  0.00000000000E+00  0.00000000000E+00  0.70136693539E+02  0.70136693539E+02  0.00000000000E+00 0. -1.
         21   -1    0    0  501  503 -0.00000000000E+00 -0.00000000000E+00 -0.62986763668E+03  0.62986763668E+03  0.00000000000E+00 0. -1.
          6    2    1    2  501    0  0.46745960731E+01 -0.70457325620E+02 -0.43844718873E+03  0.47645046582E+03  0.17257758396E+03 0.  0.
         24    2    3    3    0    0 -0.43981228639E+02  0.10787904751E+02 -0.23309185068E+03  0.25026231050E+03  0.79048629609E+02 0.  0.
         -6    2    1    2    0  502 -0.46745960731E+01  0.70457325620E+02 -0.12128375440E+03  0.22355386440E+03  0.17401291511E+03 0.  0.
        -24    2    5    5    0    0  0.12165973251E+02 -0.15564844984E+02 -0.10654760024E+03  0.13454452304E+03  0.79746863618E+02 0.  0.
          5    1    3    3  501    0  0.48655824713E+02 -0.81245230372E+02 -0.20535533805E+03  0.22618815531E+03  0.47000000000E+01 0. -1.
        -11    1    4    4    0    0 -0.51649407002E+00  0.67567678759E+01  0.48604384916E+01  0.83393369391E+01  0.00000000000E+00 0.  1.
         12    1    4    4    0    0 -0.43464734569E+02  0.40311368753E+01 -0.23795228917E+03  0.24192297356E+03  0.00000000000E+00 0. -1.
         -5    1    5    5    0  502 -0.16840569324E+02  0.86022170604E+02 -0.14736154161E+02  0.89009341364E+02  0.47000000000E+01 0.  1.
         13    1    6    6    0    0 -0.12680757270E+02  0.28492773121E+02 -0.47113735850E+02  0.56500830355E+02  0.00000000000E+00 0. -1.
        -14    1    6    6    0    0  0.24846730521E+02 -0.44057618105E+02 -0.59433864392E+02  0.78043692681E+02  0.00000000000E+00 0.  1.
</event>
<event>
12    1  0.8453150E-002  0.2238750E+03  0.7818608E-02  0.1131680E+00
         21   -1    0    0  501  502  0.00000000000E+00  0.00000000000E+00  0.72711002116E+03  0.72711002116E+03  0.00000000000E+00 0.  1.
         21   -1    0    0  502  503 -0.00000000000E+00 -0.00000000000E+00 -0.71761150420E+02  0.71761150420E+02  0.00000000000E+00 0.  1.
         -6    2    1    2    0  503  0.81803086436E+02 -0.11475550693E+03  0.23182135063E+03  0.31981420187E+03  0.16934997428E+03 0.  0.
        -24    2    3    3    0    0  0.25232311935E+02  0.10171148486E+02  0.74652709176E+02  0.11117337744E+03  0.77758414577E+02 0.  0.
          6    2    1    2  501    0 -0.81803086436E+02  0.11475550693E+03  0.42352752011E+03  0.47905696971E+03  0.17395243206E+03 0.  0.
         24    2    5    5    0    0 -0.71569696865E+02  0.14827976929E+03  0.39836108432E+03  0.43565146407E+03  0.63178581485E+02 0.  0.
          5    1    5    5  501    0 -0.10233389571E+02 -0.33524262367E+02  0.25166435790E+02  0.43405505639E+02  0.47000000000E+01 0. -1.
        -13    1    6    6    0    0 -0.22333654229E+02  0.65264180951E+02  0.95670955451E+02  0.11794548378E+03  0.00000000000E+00 0.  1.
         14    1    6    6    0    0 -0.49236042636E+02  0.83015588343E+02  0.30269012886E+03  0.31770598029E+03  0.00000000000E+00 0. -1.
         -5    1    3    3    0  503  0.56570774501E+02 -0.12492665541E+03  0.15716864145E+03  0.20864082443E+03  0.47000000000E+01 0.  1.
         11    1    4    4    0    0 -0.28684049658E+01 -0.18863693970E+02  0.67492215329E+02  0.70137478050E+02  0.00000000000E+00 0. -1.
        -12    1    4    4    0    0  0.28100716901E+02  0.29034842456E+02  0.71604938470E+01  0.41035899392E+02  0.00000000000E+00 0.  1.
</event>
<event>
12    1  0.8453150E-002  0.3708195E+03  0.7818608E-02  0.1054491E+00
         21   -1    0    0  501  502  0.00000000000E+00  0.00000000000E+00  0.66544189347E+03  0.66544189347E+03  0.00000000000E+00 0.  1.
         21   -1    0    0  502  503 -0.00000000000E+00 -0.00000000000E+00 -0.20973811423E+03  0.20973811423E+03  0.00000000000E+00 0. -1.
         -6    2    1    2    0  503  0.23821024375E+02  0.32743219995E+03  0.28665771803E+03  0.46870009398E+03  0.17241764418E+03 0.  0.
        -24    2    3    3    0    0  0.41875092267E+02  0.33713561467E+03  0.27495337655E+03  0.44463378486E+03  0.81767336600E+02 0.  0.
          6    2    1    2  501    0 -0.23821024375E+02 -0.32743219995E+03  0.16904606121E+03  0.40647991372E+03  0.16991192626E+03 0.  0.
         24    2    5    5    0    0 -0.26055116104E+02 -0.19590661085E+03  0.30803576960E+02  0.21559501069E+03  0.80461661880E+02 0.  0.
          5    1    5    5  501    0  0.22340917293E+01 -0.13152558910E+03  0.13824248425E+03  0.19088490303E+03  0.47000000000E+01 0. -1.
        -13    1    6    6    0    0  0.14330174991E+02 -0.42034726218E+01 -0.62880800562E+01  0.16203797338E+02  0.00000000000E+00 0.  1.
         14    1    6    6    0    0 -0.40385291096E+02 -0.19170313823E+03  0.37091657017E+02  0.19939121335E+03  0.00000000000E+00 0. -1.
         -5    1    3    3    0  503 -0.18054067892E+02 -0.97034147252E+01  0.11704341483E+02  0.24066309114E+02  0.47000000000E+01 0.  1.
         11    1    4    4    0    0 -0.17462398352E+02  0.38136791799E+02  0.52849026576E+02  0.67471252063E+02  0.00000000000E+00 0. -1.
        -12    1    4    4    0    0  0.59337490619E+02  0.29899882287E+03  0.22210434997E+03  0.37716253280E+03  0.00000000000E+00 0.  1.
</event>
<event>
12    1  0.8453150E-002  0.1980327E+03  0.7818608E-02  0.1151438E+00
         21   -1    0    0  503  502  0.00000000000E+00  0.00000000000E+00  0.46792712096E+02  0.46792712096E+02  0.00000000000E+00 0.  1.
         21   -1    0    0  501  503 -0.00000000000E+00 -0.00000000000E+00 -0.83807829484E+03  0.83807829484E+03  0.00000000000E+00 0. -1.
          6    2    1    2  501    0  0.35191447724E+02 -0.91277393511E+02 -0.38424759625E+03  0.43221565904E+03  0.17202953274E+03 0.  0.
         24    2    3    3    0    0  0.19999943678E+02 -0.68327448646E+02 -0.38966982303E+03  0.40377322054E+03  0.78240684183E+02 0.  0.
         -6    2    1    2    0  502 -0.35191447724E+02  0.91277393511E+02 -0.40703798649E+03  0.45265534790E+03  0.17218287073E+03 0.  0.
        -24    2    5    5    0    0 -0.20455223644E+02  0.95090097700E+02 -0.41581236845E+03  0.43446818781E+03  0.80013358965E+02 0.  0.
          5    1    3    3  501    0  0.15191504046E+02 -0.22949944865E+02  0.54222267782E+01  0.28442438498E+02  0.47000000000E+01 0. -1.
        -11    1    4    4    0    0  0.47535028829E+02 -0.24413967180E+02 -0.17790750263E+03  0.18575979180E+03  0.00000000000E+00 0.  1.
         12    1    4    4    0    0 -0.27535085152E+02 -0.43913481466E+02 -0.21176232041E+03  0.21801342874E+03  0.00000000000E+00 0. -1.
         -5    1    5    5    0  502 -0.14736224079E+02 -0.38127041893E+01  0.87743819512E+01  0.18187160085E+02  0.47000000000E+01 0.  1.
         11    1    6    6    0    0 -0.33137407910E+01 -0.13768291240E+02 -0.73601049045E+02  0.74951058313E+02  0.00000000000E+00 0. -1.
        -12    1    6    6    0    0 -0.17141482853E+02  0.10885838894E+03 -0.34221131940E+03  0.35951712950E+03  0.00000000000E+00 0.  1.
</event>
<event>
12    1  0.8453150E-002  0.1711793E+03  0.7818608E-02  0.1176771E+00
         21   -1    0    0  503  502  0.00000000000E+00  0.00000000000E+00  0.27533902844E+03  0.27533902844E+03  0.00000000000E+00 0. -1.
         21   -1    0    0  501  503 -0.00000000000E+00 -0.00000000000E+00 -0.10704020958E+03  0.10704020958E+03  0.00000000000E+00 0. -1.
          6    2    1    2  501    0  0.17350093444E+00  0.14198514344E+01  0.66072180495E+02  0.18348809215E+03  0.17117330646E+03 0.  0.
         24    2    3    3    0    0  0.23787500522E+02 -0.47463901497E+02  0.82132892652E+02  0.12667894894E+03  0.80517556614E+02 0.  0.
         -6    2    1    2    0  502 -0.17350093444E+00 -0.14198514344E+01  0.10222663837E+03  0.19889114587E+03  0.17060291977E+03 0.  0.
        -24    2    5    5    0    0 -0.31126962159E+02 -0.59582208414E+02  0.58491894935E+02  0.11967123477E+03  0.79881007297E+02 0.  0.
          5    1    3    3  501    0 -0.23613999587E+02  0.48883752932E+02 -0.16060712157E+02  0.56809143209E+02  0.47000000000E+01 0. -1.
        -11    1    4    4    0    0 -0.10315814288E+02 -0.24945412181E+02  0.81449407442E+02  0.85806151213E+02  0.00000000000E+00 0.  1.
         12    1    4    4    0    0  0.34103314810E+02 -0.22518489316E+02  0.68348520990E+00  0.40872797728E+02  0.00000000000E+00 0. -1.
         -5    1    5    5    0  502  0.30953461224E+02  0.58162356979E+02  0.43734743433E+02  0.79219911097E+02  0.47000000000E+01 0.  1.
         13    1    6    6    0    0  0.22490291586E+02 -0.41285235706E+02  0.19504003285E+02  0.50898821666E+02  0.00000000000E+00 0. -1.
        -14    1    6    6    0    0 -0.53617253745E+02 -0.18296972708E+02  0.38987891650E+02  0.68772413108E+02  0.00000000000E+00 0.  1.
</event>
<event>
12    1  0.8453150E-002  0.2031629E+03  0.7818608E-02  0.1147412E+00
         21   -1    0    0  503  502  0.00000000000E+00  0.00000000000E+00  0.10733111248E+03  0.10733111248E+03  0.00000000000E+00 0.  1.
         21   -1    0    0  501  503 -0.00000000000E+00 -0.00000000000E+00 -0.46559187715E+03  0.46559187715E+03  0.00000000000E+00 0.  1.
          6    2    1    2  501    0 -0.65683108096E+02  0.84654631997E+02 -0.30018003024E+03  0.36162098453E+03  0.17082449617E+03 0.  0.
         24    2    3    3    0    0  0.18688874052E+02  0.54554299729E+01 -0.91746386171E+02  0.12317220816E+03  0.79843332582E+02 0.  0.
         -6    2    1    2    0  502  0.65683108096E+02 -0.84654631997E+02 -0.58080734426E+02  0.21130200510E+03  0.17261079990E+03 0.  0.
        -24    2    5    5    0    0 -0.49113936430E+01 -0.44851763506E+02  0.27227826786E+02  0.93541686523E+02  0.77284475084E+02 0.  0.
          5    1    3    3  501    0 -0.84371982149E+02  0.79199202025E+02 -0.20843364407E+03  0.23844877637E+03  0.47000000000E+01 0. -1.
        -13    1    4    4    0    0  0.28413302877E+02  0.11224523810E+02 -0.10287023090E+03  0.10731071764E+03  0.00000000000E+00 0.  1.
         14    1    4    4    0    0 -0.97244288243E+01 -0.57690938375E+01  0.11123844734E+02  0.15861490514E+02  0.00000000000E+00 0. -1.
         -5    1    5    5    0  502  0.70594501739E+02 -0.39802868491E+02 -0.85308561212E+02  0.11776031858E+03  0.47000000000E+01 0.  1.
         13    1    6    6    0    0 -0.23824620282E+02 -0.24847972679E+02 -0.19310519167E+02  0.39470627413E+02  0.00000000000E+00 0. -1.
        -14    1    6    6    0    0  0.18913226639E+02 -0.20003790827E+02  0.46538345952E+02  0.54071059111E+02  0.00000000000E+00 0.  1.
</event>
<event>
12    1  0.8453150E-002  0.1782873E+03  0.7818608E-02  0.1169686E+00
         21   -1    0    0  501  502  0.00000000000E+00  0.00000000000E+00  0.15625061112E+04  0.15625061112E+04  0.00000000000E+00 0. -1.
         21   -1    0    0  502  503 -0.00000000000E+00 -0.00000000000E+00 -0.68092844093E+02  0.68092844093E+02  0.00000000000E+00 0. -1.
         -6    2    1    2    0  503  0.33760698674E+02 -0.34173533380E+02  0.63214400266E+02  0.18833803331E+03  0.17078506735E+03 0.  0.
        -24    2    3    3    0    0 -0.39177291023E+00 -0.80209421424E+02  0.69194569210E+02  0.13051462348E+03  0.76239581342E+02 0.  0.
          6    2    1    2  501    0 -0.33760698674E+02  0.34173533380E+02  0.14311988668E+04  0.14422609220E+04  0.17169378404E+03 0.  0.
         24    2    5    5    0    0 -0.86775861535E+02  0.16173370716E+02  0.82417145043E+03  0.83263891810E+03  0.78976959684E+02 0.  0.
          5    1    5    5  501    0  0.53015162860E+02  0.18000162664E+02  0.60702741638E+03  0.60962200385E+03  0.47000000000E+01 0. -1.
        -13    1    6    6    0    0 -0.38705325424E+02 -0.50293547591E+01  0.63809194677E+03  0.63928454475E+03  0.00000000000E+00 0.  1.
         14    1    6    6    0    0 -0.48070536111E+02  0.21202725475E+02  0.18607950366E+03  0.19335437335E+03  0.00000000000E+00 0. -1.
         -5    1    3    3    0  503  0.34152471585E+02  0.46035888044E+02 -0.59801689441E+01  0.57823409827E+02  0.47000000000E+01 0.  1.
         13    1    4    4    0    0  0.75279326615E+01 -0.93692864379E+02  0.52593181277E+02  0.10770824167E+03  0.00000000000E+00 0. -1.
        -14    1    4    4    0    0 -0.79197055718E+01  0.13483442955E+02  0.16601387933E+02  0.22806381816E+02  0.00000000000E+00 0.  1.
</event>
<event>
12    1  0.8453150E-002  0.2121682E+03  0.7818608E-02  0.1140083E+00
         21   -1    0    0  503  502  0.00000000000E+00  0.00000000000E+00  0.85982755266E+03  0.85982755266E+03  0.00000000000E+00 0.  1.
         21   -1    0    0  501  503 -0.00000000000E+00 -0.00000000000E+00 -0.11639168247E+03  0.11639168247E+03  0.00000000000E+00 0.  1.
          6    2    1    2  501    0 -0.10611581987E+03 -0.57391450560E+02  0.93202223329E+01  0.21237284349E+03  0.17453083477E+03 0.  0.
         24    2    3    3    0    0 -0.96539582806E+02  0.26085239934E+02 -0.16527641887E+01  0.12750495436E+03  0.79085086881E+02 0.  0.
         -6    2    1    2    0  502  0.10611581987E+03  0.57391450560E+02  0.73411564785E+03  0.76384639163E+03  0.17315074289E+03 0.  0.
        -24    2    5    5    0    0  0.97518632531E+02 -0.20602479601E+02  0.39012443960E+03  0.41098805444E+03  0.82339277759E+02 0.  0.
          5    1    3    3  501    0 -0.95762370669E+01 -0.83476690494E+02  0.10972986522E+02  0.84867889130E+02  0.47000000000E+01 0. -1.
        -13    1    4    4    0    0 -0.27886076381E+02  0.75947851582E+01 -0.37928760023E+02  0.47685478444E+02  0.00000000000E+00 0.  1.
         14    1    4    4    0    0 -0.68653506425E+02  0.18490454776E+02  0.36275995834E+02  0.79819475919E+02  0.00000000000E+00 0. -1.
         -5    1    5    5    0  502  0.85971873419E+01  0.77993930161E+02  0.34399120825E+03  0.35285833719E+03  0.47000000000E+01 0.  1.
         13    1    6    6    0    0  0.83444517064E+02 -0.74269501114E+01  0.16508987677E+03  0.18512918308E+03  0.00000000000E+00 0. -1.
        -14    1    6    6    0    0  0.14074115467E+02 -0.13175529490E+02  0.22503456283E+03  0.22585887136E+03  0.00000000000E+00 0.  1.
</event>
<event>
12    1  0.8453150E-002  0.1741023E+03  0.7818608E-02  0.1173671E+00
         21   -1    0    0  501  502  0.00000000000E+00  0.00000000000E+00  0.11898904488E+03  0.11898904488E+03  0.00000000000E+00 0. -1.
         21   -1    0    0  502  503 -0.00000000000E+00 -0.00000000000E+00 -0.49495495511E+03  0.49495495511E+03  0.00000000000E+00 0. -1.
         -6    2    1    2    0  503  0.84917066151E+01  0.28450924849E+02 -0.40188716251E+03  0.43792264136E+03  0.17140998869E+03 0.  0.
        -24    2    3    3    0    0 -0.70707632217E+01 -0.16383838772E+02 -0.89051294021E+02  0.12147246028E+03  0.80665976557E+02 0.  0.
          6    2    1    2  501    0 -0.84917066151E+01 -0.28450924849E+02  0.25921252280E+02  0.17602135863E+03  0.17155186729E+03 0.  0.
         24    2    5    5    0    0 -0.42507821106E+02 -0.19137377864E+02  0.72776065156E+02  0.11718853028E+03  0.79143173317E+02 0.  0.
          5    1    5    5  501    0  0.34016114491E+02 -0.93135469859E+01 -0.46854812877E+02  0.58832828355E+02  0.47000000000E+01 0. -1.
        -11    1    6    6    0    0 -0.26488478307E+02  0.26769853491E+02  0.12357813706E+02  0.39635591311E+02  0.00000000000E+00 0.  1.
         12    1    6    6    0    0 -0.16019342799E+02 -0.45907231354E+02  0.60418251451E+02  0.77552938969E+02  0.00000000000E+00 0. -1.
         -5    1    3    3    0  503  0.15562469837E+02  0.44834763621E+02 -0.31283586849E+03  0.31645018108E+03  0.47000000000E+01 0.  1.
         11    1    4    4    0    0 -0.10322627134E+02 -0.88013128332E+01 -0.10374113454E+03  0.10462429323E+03  0.00000000000E+00 0. -1.
        -12    1    4    4    0    0  0.32518639119E+01 -0.75825259385E+01  0.14689840517E+02  0.16848167049E+02  0.00000000000E+00 0.  1.
</event>
<event>
12    1  0.8453150E-002  0.1900915E+03  0.7818608E-02  0.1158478E+00
         21   -1    0    0  503  502  0.00000000000E+00  0.00000000000E+00  0.41186504238E+02  0.41186504238E+02  0.00000000000E+00 0.  1.
         21   -1    0    0  501  503 -0.00000000000E+00 -0.00000000000E+00 -0.97495440085E+03  0.97495440085E+03  0.00000000000E+00 0.  1.
          6    2    1    2  501    0 -0.10897455009E+02  0.80392695765E+02 -0.62979112555E+03  0.65785380494E+03  0.17190993803E+03 0.  0.
         24    2    3    3    0    0 -0.19331948676E+01  0.96918799910E+02 -0.22879814057E+03  0.25639280549E+03  0.63179827151E+02 0.  0.
         -6    2    1    2    0  502  0.10897455009E+02 -0.80392695765E+02 -0.30397677107E+03  0.35828710015E+03  0.17142353610E+03 0.  0.
        -24    2    5    5    0    0  0.39792025907E+02 -0.60965340526E+02 -0.30484648947E+03  0.32314218915E+03  0.78672194561E+02 0.  0.
          5    1    3    3  501    0 -0.89642601416E+01 -0.16526104145E+02 -0.40099298498E+03  0.40146099945E+03  0.47000000000E+01 0. -1.
        -11    1    4    4    0    0  0.72795074822E+01  0.64037491119E+02 -0.20467886518E+03  0.21458618164E+03  0.00000000000E+00 0.  1.
         12    1    4    4    0    0 -0.92127023498E+01  0.32881308791E+02 -0.24119275389E+02  0.41806623850E+02  0.00000000000E+00 0. -1.
         -5    1    5    5    0  502 -0.28894570898E+02 -0.19427355239E+02  0.86971840492E+00  0.35144910998E+02  0.47000000000E+01 0.  1.
         11    1    6    6    0    0  0.25702773117E+01 -0.67600619948E+01  0.33777813607E+01  0.79821156690E+01  0.00000000000E+00 0. -1.
        -12    1    6    6    0    0  0.37221748596E+02 -0.54205278531E+02 -0.30822427083E+03  0.31516007349E+03  0.00000000000E+00 0.  1.
</event>
<event>
12    1  0.8453150E-002  0.1799027E+03  0.7818608E-02  0.1167932E+00
         21   -1    0    0  503  502  0.00000000000E+00  0.00000000000E+00  0.50169011933E+03  0.50169011933E+03  0.00000000000E+00 0. -1.
         21   -1    0    0  501  503 -0.00000000000E+00 -0.00000000000E+00 -0.79876567973E+02  0.79876567973E+02  0.00000000000E+00 0. -1.
          6    2    1    2  501    0 -0.16951414127E+00  0.50769143227E+02  0.83091358868E+02  0.19803350383E+03  0.17244001879E+03 0.  0.
         24    2    3    3    0    0 -0.36368048546E+01 -0.39587442271E+02  0.29409927898E+02  0.92771351661E+02  0.78493234708E+02 0.  0.
         -6    2    1    2    0  502  0.16951414127E+00 -0.50769143227E+02  0.33872219249E+03  0.38353318347E+03  0.17259039516E+03 0.  0.
        -24    2    5    5    0    0  0.29948787437E+02 -0.63718883534E+01  0.31183380205E+03  0.32350821451E+03  0.80496670276E+02 0.  0.
          5    1    3    3  501    0  0.34672907133E+01  0.90356585498E+02  0.53681430969E+02  0.10526215217E+03  0.47000000000E+01 0. -1.
        -11    1    4    4    0    0  0.35947981340E+02 -0.81375163340E+01  0.17643229591E+02  0.40862697964E+02  0.00000000000E+00 0.  1.
         12    1    4    4    0    0 -0.39584786195E+02 -0.31449925937E+02  0.11766698307E+02  0.51908653697E+02  0.00000000000E+00 0. -1.
         -5    1    5    5    0  502 -0.29779273296E+02 -0.44397254873E+02  0.26888390433E+02  0.60024968958E+02  0.47000000000E+01 0.  1.
         11    1    6    6    0    0 -0.65927877167E+01 -0.27721504673E+02  0.22619615703E+03  0.22798387690E+03  0.00000000000E+00 0. -1.
        -12    1    6    6    0    0  0.36541575154E+02  0.21349616319E+02  0.85637645025E+02  0.95524337617E+02  0.00000000000E+00 0.  1.
</event>
<event>
12    1  0.8453150E-002  0.1741144E+03  0.7818608E-02  0.1173820E+00
         21   -1    0    0  501  502  0.00000000000E+00  0.00000000000E+00  0.12516436801E+03  0.12516436801E+03  0.00000000000E+00 0.  1.
         21   -1    0    0  502  503 -0.00000000000E+00 -0.00000000000E+00 -0.25418947136E+03  0.25418947136E+03  0.00000000000E+00 0.  1.
         -6    2    1    2    0  503  0.21692481842E+02 -0.72404322829E+01 -0.10763972510E+03  0.20470009874E+03  0.17260600330E+03 0.  0.
        -24    2    3    3    0    0 -0.43429409073E+02 -0.41806905622E+02 -0.52146490490E+02  0.11230263750E+03  0.79111914327E+02 0.  0.
          6    2    1    2  501    0 -0.21692481842E+02  0.72404322829E+01 -0.21385378250E+02  0.17465374063E+03  0.17182434951E+03 0.  0.
         24    2    5    5    0    0  0.36769866386E+02  0.80509998290E+01  0.33229520058E+02  0.94507746982E+02  0.80066669495E+02 0.  0.
          5    1    5    5  501    0 -0.58462348228E+02 -0.81056754607E+00 -0.54614898309E+02  0.80145993645E+02  0.47000000000E+01 0. -1.
        -13    1    6    6    0    0 -0.18113733371E+02  0.38380701085E+01  0.34823069354E+02  0.39439628270E+02  0.00000000000E+00 0.  1.
         14    1    6    6    0    0  0.54883599758E+02  0.42129297205E+01 -0.15935492959E+01  0.55068118713E+02  0.00000000000E+00 0. -1.
         -5    1    3    3    0  503  0.65121890915E+02  0.34566473339E+02 -0.55493234611E+02  0.92397461237E+02  0.47000000000E+01 0.  1.
         13    1    4    4    0    0 -0.97921992557E+01  0.11378937198E+02  0.14337276297E+02  0.20758729962E+02  0.00000000000E+00 0. -1.
        -14    1    4    4    0    0 -0.33637209817E+02 -0.53185842820E+02 -0.66483766787E+02  0.91543907536E+02  0.00000000000E+00 0.  1.
</event>
<event>
12    1  0.8453150E-002  0.1746573E+03  0.7818608E-02  0.1173586E+00
         21   -1    0    0  501  502  0.00000000000E+00  0.00000000000E+00  0.43379431960E+02  0.43379431960E+02  0.00000000000E+00 0.  1.
         21   -1    0    0  502  503 -0.00000000000E+00 -0.00000000000E+00 -0.96986489027E+03  0.96986489027E+03  0.00000000000E+00 0.  1.
         -6    2    1    2    0  503 -0.26763436535E+02  0.54578720977E+01 -0.19168401146E+03  0.25797063150E+03  0.17046998727E+03 0.  0.
        -24    2    3    3    0    0 -0.71856824613E+02  0.11221953847E+02 -0.18146388604E+03  0.21113923978E+03  0.79757765413E+02 0.  0.
          6    2    1    2  501    0  0.26763436535E+02 -0.54578720977E+01 -0.73480144685E+03  0.75527369073E+03  0.17250829465E+03 0.  0.
         24    2    5    5    0    0  0.54473475454E+02  0.16001619225E+02 -0.69567439984E+03  0.70253497789E+03  0.79806724161E+02 0.  0.
          5    1    5    5  501    0 -0.27710038919E+02 -0.21459491323E+02 -0.39127047004E+02  0.52738712839E+02  0.47000000000E+01 0. -1.
        -11    1    6    6    0    0  0.13955085193E+02  0.11820739004E+02 -0.57265968713E+03  0.57295164851E+03  0.00000000000E+00 0.  1.
         12    1    6    6    0    0  0.40518390261E+02  0.41808802211E+01 -0.12301471272E+03  0.12958332938E+03  0.00000000000E+00 0. -1.
         -5    1    3    3    0  503  0.45093388078E+02 -0.57640817489E+01 -0.10220125418E+02  0.46831391719E+02  0.47000000000E+01 0.  1.
         13    1    4    4    0    0 -0.86354877752E+02  0.17306821862E+02 -0.17071045590E+03  0.19209047542E+03  0.00000000000E+00 0. -1.
        -14    1    4    4    0    0  0.14498053139E+02 -0.60848680157E+01 -0.10753430146E+02  0.19048764356E+02  0.00000000000E+00 0.  1.
</event>
<event>
12    1  0.8453150E-002  0.2149403E+03  0.7818608E-02  0.1138522E+00
         21   -1    0    0  503  502  0.00000000000E+00  0.00000000000E+00  0.50867645696E+03  0.50867645696E+03  0.00000000000E+00 0. -1.
         21   -1    0    0  501  503 -0.00000000000E+00 -0.00000000000E+00 -0.97374701443E+02  0.97374701443E+02  0.00000000000E+00 0. -1.
          6    2    1    2  501    0 -0.61308130903E+02 -0.11263264218E+03  0.11899559509E+03  0.24568129454E+03  0.17249506612E+03 0.  0.
         24    2    3    3    0    0 -0.28850179623E+02 -0.25073121238E+02  0.12499506131E+03  0.15198886206E+03  0.77561940199E+02 0.  0.
         -6    2    1    2    0  502  0.61308130903E+02  0.11263264218E+03  0.29230616042E+03  0.36036986386E+03  0.16726849182E+03 0.  0.
        -24    2    5    5    0    0  0.45797336350E+02  0.65093355590E+02  0.28870395706E+03  0.31001478083E+03  0.80153905427E+02 0.  0.
          5    1    3    3  501    0 -0.32457951280E+02 -0.87559520945E+02 -0.59994662122E+01  0.93692432481E+02  0.47000000000E+01 0. -1.
        -11    1    4    4    0    0 -0.52030561592E+02 -0.46759906880E+00  0.66615409542E+02  0.84528165584E+02  0.00000000000E+00 0.  1.
         12    1    4    4    0    0  0.23180381969E+02 -0.24605522169E+02  0.58379651763E+02  0.67460696479E+02  0.00000000000E+00 0. -1.
         -5    1    5    5    0  502  0.15510794553E+02  0.47539286593E+02  0.36022033645E+01  0.50355083026E+02  0.47000000000E+01 0.  1.
         13    1    6    6    0    0 -0.15157324724E+02  0.25761582857E+02  0.15541980435E+03  0.15826787175E+03  0.00000000000E+00 0. -1.
        -14    1    6    6    0    0  0.60954661074E+02  0.39331772733E+02  0.13328415270E+03  0.15174690908E+03  0.00000000000E+00 0.  1.
</event>
<event>
12    1  0.8453150E-002  0.2232319E+03  0.7818608E-02  0.1131562E+00
         21   -1    0    0  503  502  0.00000000000E+00  0.00000000000E+00  0.29809300248E+03  0.29809300248E+03  0.00000000000E+00 0. -1.
         21   -1    0    0  501  503 -0.00000000000E+00 -0.00000000000E+00 -0.25618931682E+03  0.25618931682E+03  0.00000000000E+00 0. -1.
          6    2    1    2  501    0 -0.23147937988E+02  0.13850738626E+03 -0.14267250277E+03  0.26462585037E+03  0.17306436536E+03 0.  0.
         24    2    3    3    0    0  0.40333155643E+02  0.21886389576E+02 -0.71366855339E+02  0.11383827969E+03  0.75895641441E+02 0.  0.
         -6    2    1    2    0  502  0.23147937988E+02 -0.13850738626E+03  0.18457618843E+03  0.28965646893E+03  0.17352918364E+03 0.  0.
        -24    2    5    5    0    0  0.63276164941E+02 -0.45418704637E+02  0.53240644303E+02  0.12368390374E+03  0.79977559716E+02 0.  0.
          5    1    3    3  501    0 -0.63481093631E+02  0.11662099668E+03 -0.71305647427E+02  0.15078757068E+03  0.47000000000E+01 0. -1.
        -13    1    4    4    0    0 -0.21587026385E+02  0.14377918535E+02 -0.16291542204E+02  0.30629048254E+02  0.00000000000E+00 0.  1.
         14    1    4    4    0    0  0.61920182028E+02  0.75084710407E+01 -0.55075313135E+02  0.83209231439E+02  0.00000000000E+00 0. -1.
         -5    1    5    5    0  502 -0.40128226953E+02 -0.93088681620E+02  0.13133554412E+03  0.16597256519E+03  0.47000000000E+01 0.  1.
         13    1    6    6    0    0  0.63231336583E+01  0.21559480163E+02  0.18670343032E+02  0.29212581418E+02  0.00000000000E+00 0. -1.
        -14    1    6    6    0    0  0.56953031283E+02 -0.66978184800E+02  0.34570301271E+02  0.94471322322E+02  0.00000000000E+00 0.  1.
</event>
<event>
12    1  0.8453150E-002  0.2121969E+03  0.7818608E-02  0.1139863E+00
         21   -1    0    0  501  502  0.00000000000E+00  0.00000000000E+00  0.19511374996E+03  0.19511374996E+03  0.00000000000E+00 0.  1.
         21   -1    0    0  502  503 -0.00000000000E+00 -0.00000000000E+00 -0.47280221140E+03  0.47280221140E+03  0.00000000000E+00 0.  1.
         -6    2    1    2    0  503  0.71672486084E+02  0.10273315992E+03 -0.37787105127E+03  0.43337519591E+03  0.17127895852E+03 0.  0.
        -24    2    3    3    0    0 -0.24165489469E+02  0.41928314661E+02 -0.21129997627E+03  0.23175634810E+03  0.81983964660E+02 0.  0.
          6    2    1    2  501    0 -0.71672486084E+02 -0.10273315992E+03  0.10018258983E+03  0.23454076546E+03  0.17111917470E+03 0.  0.
         24    2    5    5    0    0 -0.66481799860E+01 -0.11838617672E+03  0.81907331704E+02  0.16504794297E+03  0.80452018977E+02 0.  0.
          5    1    5    5  501    0 -0.65024306098E+02  0.15653016794E+02  0.18275258123E+02  0.69492822491E+02  0.47000000000E+01 0. -1.
        -13    1    6    6    0    0 -0.41540802891E+02 -0.46009280709E+02  0.26315134295E+02  0.67342249066E+02  0.00000000000E+00 0.  1.
         14    1    6    6    0    0  0.34892622905E+02 -0.72376896006E+02  0.55592197408E+02  0.97705693905E+02  0.00000000000E+00 0. -1.
         -5    1    3    3    0  503  0.95837975552E+02  0.60804845260E+02 -0.16657107499E+03  0.20161884780E+03  0.47000000000E+01 0.  1.
         13    1    4    4    0    0 -0.84236814621E+01 -0.23294353965E+02 -0.33091592908E+02  0.41335685034E+02  0.00000000000E+00 0. -1.
        -14    1    4    4    0    0 -0.15741808006E+02  0.65222668626E+02 -0.17820838337E+03  0.19042066307E+03  0.00000000000E+00 0.  1.
</event>
<event>
12    1  0.8453150E-002  0.1820897E+03  0.7818608E-02  0.1166268E+00
         21   -1    0    0  503  502  0.00000000000E+00  0.00000000000E+00  0.56714656233E+03  0.56714656233E+03  0.00000000000E+00 0.  1.
         21   -1    0    0  501  503 -0.00000000000E+00 -0.00000000000E+00 -0.75206823106E+02  0.75206823106E+02  0.00000000000E+00 0. -1.
          6    2    1    2  501    0 -0.49144249439E+02 -0.25589254674E+02  0.90569156933E+02  0.20160967185E+03  0.17138763196E+03 0.  0.
         24    2    3    3    0    0 -0.59905176808E+02  0.40156166922E+02  0.79642758693E+02  0.13393593842E+03  0.79966984671E+02 0.  0.
         -6    2    1    2    0  502  0.49144249439E+02  0.25589254674E+02  0.40137058229E+03  0.44074371359E+03  0.17345520899E+03 0.  0.
        -24    2    5    5    0    0 -0.34269360902E+02 -0.15476474006E+02  0.18439102034E+03  0.20463686327E+03  0.80388351649E+02 0.  0.
          5    1    3    3  501    0  0.10760927369E+02 -0.65745421596E+02  0.10926398240E+02  0.67673733436E+02  0.47000000000E+01 0. -1.
        -13    1    4    4    0    0 -0.22904975903E+02 -0.22143230887E+02  0.98875628104E+01  0.33357525291E+02  0.00000000000E+00 0.  1.
         14    1    4    4    0    0 -0.37000200906E+02  0.62299397809E+02  0.69755195883E+02  0.10057841313E+03  0.00000000000E+00 0. -1.
         -5    1    5    5    0  502  0.83413610341E+02  0.41065728680E+02  0.21697956195E+03  0.23610685032E+03  0.47000000000E+01 0.  1.
         11    1    6    6    0    0  0.22661972058E+02  0.41140311959E+01  0.23751677551E+02  0.33085229586E+02  0.00000000000E+00 0. -1.
        -12    1    6    6    0    0 -0.56931332960E+02 -0.19590505202E+02  0.16063934279E+03  0.17155163368E+03  0.00000000000E+00 0.  1.
</event>
<event>
12    1  0.8453150E-002  0.1804175E+03  0.7818608E-02  0.1168908E+00
         21   -1    0    0  503  502  0.00000000000E+00  0.00000000000E+00  0.13409752974E+03  0.13409752974E+03  0.00000000000E+00 0.  1.
         21   -1    0    0  501  503 -0.00000000000E+00 -0.00000000000E+00 -0.23723080346E+03  0.23723080346E+03  0.00000000000E+00 0.  1.
          6    2    1    2  501    0  0.42866718022E+02  0.24346034894E+02 -0.70419577419E+02  0.18796895136E+03  0.16716197194E+03 0.  0.
         24    2    3    3    0    0  0.16658372683E+02  0.77767466858E+02 -0.39076493136E+02  0.12055081070E+03  0.81732767982E+02 0.  0.
         -6    2    1    2    0  502 -0.42866718022E+02 -0.24346034894E+02 -0.32713696306E+02  0.18335938184E+03  0.17355169850E+03 0.  0.
        -24    2    5    5    0    0 -0.15992608733E+02 -0.80686961584E+02 -0.35471572827E+02  0.12069987615E+03  0.80895477745E+02 0.  0.
          5    1    3    3  501    0  0.26208345339E+02 -0.53421431964E+02 -0.31343084282E+02  0.67418140666E+02  0.47000000000E+01 0. -1.
        -11    1    4    4    0    0  0.25495219701E+02  0.91772841524E+01 -0.43503519042E+02  0.51252170110E+02  0.00000000000E+00 0.  1.
         12    1    4    4    0    0 -0.88368470182E+01  0.68590182706E+02  0.44270259055E+01  0.69298640587E+02  0.00000000000E+00 0. -1.
         -5    1    5    5    0  502 -0.26874109289E+02  0.56340926690E+02  0.27578765208E+01  0.62659505690E+02  0.47000000000E+01 0.  1.
         13    1    6    6    0    0 -0.30504917987E+02 -0.21993796633E+02 -0.45908127676E+02  0.59345036005E+02  0.00000000000E+00 0. -1.
        -14    1    6    6    0    0  0.14512309254E+02 -0.58693164951E+02  0.10436554849E+02  0.61354840143E+02  0.00000000000E+00 0.  1.
</event>
<event>
12    1  0.8453150E-002  0.1967231E+03  0.7818608E-02  0.1152906E+00
         21   -1    0    0  503  502  0.00000000000E+00  0.00000000000E+00  0.13048522489E+03  0.13048522489E+03  0.00000000000E+00 0. -1.
         21   -1    0    0  501  503 -0.00000000000E+00 -0.00000000000E+00 -0.29626436104E+03  0.29626436104E+03  0.00000000000E+00 0.  1.
          6    2    1    2  501    0  0.58929852275E+02  0.75001106823E+02 -0.10191207566E+03  0.22155375356E+03  0.17205261125E+03 0.  0.
         24    2    3    3    0    0  0.15734679464E+02  0.13385251364E+02 -0.11903859263E+03  0.14423788080E+03  0.78788543770E+02 0.  0.
         -6    2    1    2    0  502 -0.58929852275E+02 -0.75001106823E+02 -0.63867060486E+02  0.20519583237E+03  0.17008361089E+03 0.  0.
        -24    2    5    5    0    0 -0.10048282720E+03 -0.58722319123E+02 -0.73575364828E+02  0.15928298202E+03  0.80078865672E+02 0.  0.
          5    1    3    3  501    0  0.43195172810E+02  0.61615855458E+02  0.17126516966E+02  0.77315872765E+02  0.47000000000E+01 0. -1.
        -11    1    4    4    0    0  0.37884604774E+02  0.32670354726E+02 -0.58654648757E+02  0.77090616663E+02  0.00000000000E+00 0.  1.
         12    1    4    4    0    0 -0.22149925309E+02 -0.19285103362E+02 -0.60383943873E+02  0.67147264133E+02  0.00000000000E+00 0. -1.
         -5    1    5    5    0  502  0.41552974924E+02 -0.16278787699E+02  0.97083043419E+01  0.45912850349E+02  0.47000000000E+01 0.  1.
         13    1    6    6    0    0 -0.19039610575E+02 -0.14918583860E+02  0.17214960510E+02  0.29688815749E+02  0.00000000000E+00 0. -1.
        -14    1    6    6    0    0 -0.81443216623E+02 -0.43803735264E+02 -0.90790325338E+02  0.12959416627E+03  0.00000000000E+00 0.  1.
</event>
<event>
12    1  0.8453150E-002  0.2064098E+03  0.7818608E-02  0.1145491E+00
         21   -1    0    0  501  502  0.00000000000E+00  0.00000000000E+00  0.25553018306E+03  0.25553018306E+03  0.00000000000E+00 0.  1.
         21   -1    0    0  502  503 -0.00000000000E+00 -0.00000000000E+00 -0.17593776550E+03  0.17593776550E+03  0.00000000000E+00 0.  1.
         -6    2    1    2    0  503 -0.12690852017E+02  0.10523247981E+03 -0.19081077153E+02  0.20728986970E+03  0.17711597908E+03 0.  0.
        -24    2    3    3    0    0  0.14539563199E+01  0.69005455407E+02  0.58619747522E+02  0.12027273889E+03  0.79154216916E+02 0.  0.
          6    2    1    2  501    0  0.12690852017E+02 -0.10523247981E+03  0.98673494720E+02  0.22417807886E+03  0.17112691182E+03 0.  0.
         24    2    5    5    0    0  0.35267908979E+02 -0.21420389082E+01  0.33493649781E+02  0.10004965869E+03  0.87405353924E+02 0.  0.
          5    1    5    5  501    0 -0.22577056962E+02 -0.10309044090E+03  0.65179844939E+02  0.12412842016E+03  0.47000000000E+01 0. -1.
        -11    1    6    6    0    0  0.33231776090E+02 -0.16619328776E+02 -0.21648438833E+02  0.43002417781E+02  0.00000000000E+00 0.  1.
         12    1    6    6    0    0  0.20361328889E+01  0.14477289868E+02  0.55142088614E+02  0.57047240913E+02  0.00000000000E+00 0. -1.
         -5    1    3    3    0  503 -0.14144808337E+02  0.36227024402E+02 -0.77700824675E+02  0.87017130814E+02  0.47000000000E+01 0.  1.
         11    1    4    4    0    0  0.17343998079E+02 -0.10708274292E+02  0.57225625179E+00  0.20391392421E+02  0.00000000000E+00 0. -1.
        -12    1    4    4    0    0 -0.15890041759E+02  0.79713729699E+02  0.58047491270E+02  0.99881346469E+02  0.00000000000E+00 0.  1.
</event>
<event>
12    1  0.8453150E-002  0.1911237E+03  0.7818608E-02  0.1157526E+00
         21   -1    0    0  503  502  0.00000000000E+00  0.00000000000E+00  0.24468450162E+03  0.24468450162E+03  0.00000000000E+00 0. -1.
         21   -1    0    0  501  503 -0.00000000000E+00 -0.00000000000E+00 -0.16546539901E+03  0.16546539901E+03  0.00000000000E+00 0. -1.
          6    2    1    2  501    0 -0.14025162518E+02 -0.80928279137E+02 -0.24992180673E+02  0.19275085920E+03  0.17257518095E+03 0.  0.
         24    2    3    3    0    0 -0.77389549749E+01 -0.63075574112E+02 -0.83396071093E+02  0.13117700194E+03  0.78829446842E+02 0.  0.
         -6    2    1    2    0  502  0.14025162518E+02  0.80928279137E+02  0.10421128328E+03  0.21739904143E+03  0.17220993032E+03 0.  0.
        -24    2    5    5    0    0  0.65428363914E+02  0.37475503100E+02  0.23860083821E+02  0.11247603101E+03  0.79976682949E+02 0.  0.
          5    1    3    3  501    0 -0.62862075428E+01 -0.17852705025E+02  0.58403890420E+02  0.61573857262E+02  0.47000000000E+01 0. -1.
        -11    1    4    4    0    0  0.26030573393E+02  0.29491647707E+01 -0.14445917295E+02  0.29916096846E+02  0.00000000000E+00 0.  1.
         12    1    4    4    0    0 -0.33769528368E+02 -0.66024738883E+02 -0.68950153798E+02  0.10126090509E+03  0.00000000000E+00 0. -1.
         -5    1    5    5    0  502 -0.51403201396E+02  0.43452776037E+02  0.80351199462E+02  0.10492301041E+03  0.47000000000E+01 0.  1.
         13    1    6    6    0    0  0.43945593402E+02 -0.69247617949E+01  0.40759863304E+02  0.60336837520E+02  0.00000000000E+00 0. -1.
        -14    1    6    6    0    0  0.21482770511E+02  0.44400264895E+02 -0.16899779483E+02  0.52139193493E+02  0.00000000000E+00 0.  1.
</event>
<event>
12    1  0.8453150E-002  0.2314943E+03  0.7818608E-02  0.1125834E+00
         21   -1    0    0  501  502  0.00000000000E+00  0.00000000000E+00  0.10446060961E+03  0.10446060961E+03  0.00000000000E+00 0.  1.
         21   -1    0    0  502  503 -0.00000000000E+00 -0.00000000000E+00 -0.52942979217E+03  0.52942979217E+03  0.00000000000E+00 0.  1.
         -6    2    1    2    0  503 -0.86386515283E+02 -0.12845234758E+03 -0.27265328167E+03  0.35678076320E+03  0.17026469207E+03 0.  0.
        -24    2    3    3    0    0 -0.73198808683E+02 -0.11459854328E+03 -0.10611188293E+03  0.18907873282E+03  0.77460595095E+02 0.  0.
          6    2    1    2  501    0  0.86386515283E+02  0.12845234758E+03 -0.15231590090E+03  0.27710963858E+03  0.17212490379E+03 0.  0.
         24    2    5    5    0    0  0.35137337687E+01  0.75811073422E+02 -0.13923691114E+03  0.17795243191E+03  0.80749522734E+02 0.  0.
          5    1    5    5  501    0  0.82872781514E+02  0.52641274155E+02 -0.13078989760E+02  0.99157206666E+02  0.47000000000E+01 0. -1.
        -13    1    6    6    0    0 -0.10089505479E+01  0.82642065859E+02 -0.70219484080E+02  0.10845047245E+03  0.00000000000E+00 0.  1.
         14    1    6    6    0    0  0.45226843166E+01 -0.68309924370E+01 -0.69017427057E+02  0.69501959459E+02  0.00000000000E+00 0. -1.
         -5    1    3    3    0  503 -0.13187706599E+02 -0.13853804294E+02 -0.16654139874E+03  0.16770203038E+03  0.47000000000E+01 0.  1.
         13    1    4    4    0    0 -0.10972452323E+02 -0.16366237677E+02  0.12211147493E+02  0.23181038993E+02  0.00000000000E+00 0. -1.
        -14    1    4    4    0    0 -0.62226356361E+02 -0.98232305606E+02 -0.11832303042E+03  0.16589769383E+03  0.00000000000E+00 0.  1.
</event>
<event>
12    1  0.8453150E-002  0.1809156E+03  0.7818608E-02  0.1167017E+00
         21   -1    0    0  501  502  0.00000000000E+00  0.00000000000E+00  0.11180887399E+03  0.11180887399E+03  0.00000000000E+00 0.  1.
         21   -1    0    0  502  503 -0.00000000000E+00 -0.00000000000E+00 -0.78320907277E+03  0.78320907277E+03  0.00000000000E+00 0.  1.
         -6    2    1    2    0  503  0.34544799305E+02 -0.21609681283E+02 -0.68993227264E+03  0.71315562306E+03  0.17585243923E+03 0.  0.
        -24    2    3    3    0    0 -0.36399878421E+02 -0.35318804759E+02 -0.52021328542E+03  0.52863540198E+03  0.79127471702E+02 0.  0.
          6    2    1    2  501    0 -0.34544799305E+02  0.21609681283E+02  0.18532073853E+02  0.18186232370E+03  0.17626725600E+03 0.  0.
         24    2    5    5    0    0 -0.13529905758E+02 -0.51377658277E+02  0.37980241255E+02  0.10331871351E+03  0.80059576039E+02 0.  0.
          5    1    5    5  501    0 -0.21014893547E+02  0.72987339560E+02 -0.19448167402E+02  0.78543610193E+02  0.47000000000E+01 0. -1.
        -11    1    6    6    0    0 -0.15045399508E+02 -0.56212804144E+02 -0.64976907043E+01  0.58553081734E+02  0.00000000000E+00 0.  1.
         12    1    6    6    0    0  0.15154937507E+01  0.48351458666E+01  0.44477931959E+02  0.44765631775E+02  0.00000000000E+00 0. -1.
         -5    1    3    3    0  503  0.70944677726E+02  0.13709123477E+02 -0.16971898722E+03  0.18452022108E+03  0.47000000000E+01 0.  1.
         11    1    4    4    0    0 -0.33319704590E+02 -0.57945794635E+02 -0.30640690597E+03  0.31361299376E+03  0.00000000000E+00 0. -1.
        -12    1    4    4    0    0 -0.30801738311E+01  0.22626989875E+02 -0.21380637945E+03  0.21502240821E+03  0.00000000000E+00 0.  1.
</event>
<event>
12    1  0.8453150E-002  0.1793201E+03  0.7818608E-02  0.1168990E+00
         21   -1    0    0  501  502  0.00000000000E+00  0.00000000000E+00  0.29798625326E+03  0.29798625326E+03  0.00000000000E+00 0.  1.
         21   -1    0    0  502  503 -0.00000000000E+00 -0.00000000000E+00 -0.17536801046E+03  0.17536801046E+03  0.00000000000E+00 0.  1.
         -6    2    1    2    0  503  0.42034710215E+02 -0.71870020978E+01 -0.87105872542E+02  0.19741964299E+03  0.17195497243E+03 0.  0.
        -24    2    3    3    0    0  0.13323737780E+02  0.23152312175E+02  0.15802761049E+02  0.86257280668E+02  0.80480057555E+02 0.  0.
          6    2    1    2  501    0 -0.42034710215E+02  0.71870020978E+01  0.20972411534E+03  0.27593462074E+03  0.17417560250E+03 0.  0.
         24    2    5    5    0    0  0.27718463488E+02 -0.12451275240E+02  0.17604257730E+03  0.19588649033E+03  0.80356584023E+02 0.  0.
          5    1    5    5  501    0 -0.69753173703E+02  0.19638277337E+02  0.33681538041E+02  0.80048130417E+02  0.47000000000E+01 0. -1.
        -11    1    6    6    0    0 -0.72214834996E+01  0.21774083184E+02  0.11694929036E+03  0.11917800569E+03  0.00000000000E+00 0.  1.
         12    1    6    6    0    0  0.34939946987E+02 -0.34225358424E+02  0.59093286938E+02  0.76708484641E+02  0.00000000000E+00 0. -1.
         -5    1    3    3    0  503  0.28710972435E+02 -0.30339314273E+02 -0.10290863359E+03  0.11116236232E+03  0.47000000000E+01 0.  1.
         13    1    4    4    0    0 -0.54251655737E+01 -0.25049938650E+02 -0.11132078935E+02  0.27943783375E+02  0.00000000000E+00 0. -1.
        -14    1    4    4    0    0  0.18748903354E+02  0.48202250825E+02  0.26934839984E+02  0.58313497293E+02  0.00000000000E+00 0.  1.
</event>
<event>
12    1  0.8453150E-002  0.2272964E+03  0.7818608E-02  0.1128567E+00
         21   -1    0    0  501  502  0.00000000000E+00  0.00000000000E+00  0.48634326199E+03  0.48634326199E+03  0.00000000000E+00 0.  1.
         21   -1    0    0  502  503 -0.00000000000E+00 -0.00000000000E+00 -0.34525277065E+03  0.34525277065E+03  0.00000000000E+00 0.  1.
         -6    2    1    2    0  503 -0.20981125740E+02 -0.14647602032E+03 -0.27543763489E+03  0.35711281985E+03  0.17253475945E+03 0.  0.
        -24    2    3    3    0    0 -0.58913773339E+02 -0.52658890088E+02 -0.20309983009E+03  0.23263234876E+03  0.81390892076E+02 0.  0.
          6    2    1    2  501    0  0.20981125740E+02  0.14647602032E+03  0.41652812623E+03  0.47448321279E+03  0.17246219040E+03 0.  0.
         24    2    5    5    0    0  0.77128881214E+01  0.15293647416E+03  0.42384641337E+03  0.45735338734E+03  0.77956943353E+02 0.  0.
          5    1    5    5  501    0  0.13268237619E+02 -0.64604538404E+01 -0.73182871409E+01  0.17129825452E+02  0.47000000000E+01 0. -1.
        -13    1    6    6    0    0  0.37447688132E+02  0.99955797033E+02  0.21801290434E+03  0.24274084363E+03  0.00000000000E+00 0.  1.
         14    1    6    6    0    0 -0.29734800011E+02  0.52980677129E+02  0.20583350902E+03  0.21461254371E+03  0.00000000000E+00 0. -1.
         -5    1    3    3    0  503  0.37932647599E+02 -0.93817130233E+02 -0.72337804799E+02  0.12448047109E+03  0.47000000000E+01 0.  1.
         13    1    4    4    0    0 -0.43189197004E+02 -0.68526897701E+02 -0.10832952542E+03  0.13526466103E+03  0.00000000000E+00 0. -1.
        -14    1    4    4    0    0 -0.15724576335E+02  0.15868007613E+02 -0.94770304664E+02  0.97367687724E+02  0.00000000000E+00 0.  1.
</event>
<event>
12    1  0.8453150E-002  0.2236844E+03  0.7818608E-02  0.1131382E+00
         21   -1    0    0  503  502  0.00000000000E+00  0.00000000000E+00  0.63393148874E+03  0.63393148874E+03  0.00000000000E+00 0. -1.
         21   -1    0    0  501  503 -0.00000000000E+00 -0.00000000000E+00 -0.82496892969E+02  0.82496892969E+02  0.00000000000E+00 0. -1.
          6    2    1    2  501    0 -0.13631660950E+03  0.39149085740E+02  0.19767875229E+03  0.29851563524E+03  0.17297348479E+03 0.  0.
         24    2    3    3    0    0  0.86015466967E+01  0.18084034873E+02  0.49880886662E+02  0.90401946491E+02  0.72686932473E+02 0.  0.
         -6    2    1    2    0  502  0.13631660950E+03 -0.39149085740E+02  0.35375584349E+03  0.41791274647E+03  0.17144386230E+03 0.  0.
        -24    2    5    5    0    0  0.15006212269E+03  0.77559899295E+01  0.24029168068E+03  0.29427929024E+03  0.79255364588E+02 0.  0.
          5    1    3    3  501    0 -0.14491815619E+03  0.21065050868E+02  0.14779786563E+03  0.20811368875E+03  0.47000000000E+01 0. -1.
        -13    1    4    4    0    0  0.12790884439E+02 -0.85835336292E+01 -0.14147938176E+02  0.20915255890E+02  0.00000000000E+00 0.  1.
         14    1    4    4    0    0 -0.41893377425E+01  0.26667568502E+02  0.64028824839E+02  0.69486690601E+02  0.00000000000E+00 0. -1.
         -5    1    5    5    0  502 -0.13745513195E+02 -0.46905075670E+02  0.11346416281E+03  0.12363345623E+03  0.47000000000E+01 0.  1.
         11    1    6    6    0    0  0.72974170411E+02 -0.27698618247E+02  0.15724253482E+03  0.17554958774E+03  0.00000000000E+00 0. -1.
        -12    1    6    6    0    0  0.77087952281E+02  0.35454608177E+02  0.83049145854E+02  0.11872970250E+03  0.00000000000E+00 0.  1.
</event>
<event>
12    1  0.8453150E-002  0.2036526E+03  0.7818608E-02  0.1146839E+00
         21   -1    0    0  503  502  0.00000000000E+00  0.00000000000E+00  0.51896324513E+03  0.51896324513E+03  0.00000000000E+00 0. -1.
         21   -1    0    0  501  503 -0.00000000000E+00 -0.00000000000E+00 -0.94184126178E+02  0.94184126178E+02  0.00000000000E+00 0. -1.
          6    2    1    2  501    0  0.19250177658E+01 -0.10869191520E+03  0.91610185947E+02  0.22266573404E+03  0.17137667526E+03 0.  0.
         24    2    3    3    0    0  0.52198789908E+02 -0.29288233855E+02  0.63081038196E+02  0.12433771643E+03  0.88871457940E+02 0.  0.
         -6    2    1    2    0  502 -0.19250177658E+01  0.10869191520E+03  0.33316893300E+03  0.39048163726E+03  0.17221130333E+03 0.  0.
        -24    2    5    5    0    0  0.66500047349E+02  0.50462368420E+02  0.17449606811E+03  0.20807594188E+03  0.76668199920E+02 0.  0.
          5    1    3    3  501    0 -0.50273772142E+02 -0.79403681348E+02  0.28529147751E+02  0.98328017616E+02  0.47000000000E+01 0. -1.
        -11    1    4    4    0    0  0.15468812259E+02  0.25924010750E+01 -0.21593796251E+02  0.26688887811E+02  0.00000000000E+00 0.  1.
         12    1    4    4    0    0  0.36729977649E+02 -0.31880634930E+02  0.84674834448E+02  0.97648828617E+02  0.00000000000E+00 0. -1.
         -5    1    5    5    0  502 -0.68425065115E+02  0.58229546783E+02  0.15867286490E+03  0.18240569539E+03  0.47000000000E+01 0.  1.
         11    1    6    6    0    0 -0.10935467955E+02  0.31552765811E+02  0.57825346946E+02  0.66775236721E+02  0.00000000000E+00 0. -1.
        -12    1    6    6    0    0  0.77435515304E+02  0.18909602609E+02  0.11667072116E+03  0.14130070516E+03  0.00000000000E+00 0.  1.
</event>
<event>
12    1  0.8453150E-002  0.1979636E+03  0.7818608E-02  0.1151656E+00
         21   -1    0    0  501  502  0.00000000000E+00  0.00000000000E+00  0.98608934955E+03  0.98608934955E+03  0.00000000000E+00 0.  1.
         21   -1    0    0  502  503 -0.00000000000E+00 -0.00000000000E+00 -0.85196220890E+02  0.85196220890E+02  0.00000000000E+00 0.  1.
         -6    2    1    2    0  503 -0.97992026622E+02  0.25773592473E+01  0.58910506773E+02  0.20654305919E+03  0.17198984688E+03 0.  0.
        -24    2    3    3    0    0 -0.53854663187E+02 -0.65383554802E+02  0.38914099869E+02  0.12294438110E+03  0.80160337384E+02 0.  0.
          6    2    1    2  501    0  0.97992026622E+02 -0.25773592473E+01  0.84198262188E+03  0.86474251125E+03  0.17098478044E+03 0.  0.
         24    2    5    5    0    0  0.77742757533E+01  0.37569382996E+02  0.29725525549E+03  0.31111718923E+03  0.83434528909E+02 0.  0.
          5    1    5    5  501    0  0.90217750869E+02 -0.40146742243E+02  0.54472736639E+03  0.55362532202E+03  0.47000000000E+01 0. -1.
        -13    1    6    6    0    0  0.19628273368E+02 -0.12313531319E+02  0.19847682007E+03  0.19982477393E+03  0.00000000000E+00 0.  1.
         14    1    6    6    0    0 -0.11853997614E+02  0.49882914315E+02  0.98778435424E+02  0.11129241531E+03  0.00000000000E+00 0. -1.
         -5    1    3    3    0  503 -0.44137363436E+02  0.67960914049E+02  0.19996406904E+02  0.83598678091E+02  0.47000000000E+01 0.  1.
         13    1    4    4    0    0  0.15270439832E+02 -0.38198849915E+02  0.22442412451E+02  0.46861501727E+02  0.00000000000E+00 0. -1.
        -14    1    4    4    0    0 -0.69125103018E+02 -0.27184704887E+02  0.16471687418E+02  0.76082879372E+02  0.00000000000E+00 0.  1.
</event>
<event>
12    1  0.8453150E-002  0.1867617E+03  0.7818608E-02  0.1162085E+00
         21   -1    0    0  503  502  0.00000000000E+00  0.00000000000E+00  0.31638999823E+03  0.31638999823E+03  0.00000000000E+00 0. -1.
         21   -1    0    0  501  503 -0.00000000000E+00 -0.00000000000E+00 -0.13148476680E+03  0.13148476680E+03  0.00000000000E+00 0.  1.
          6    2    1    2  501    0  0.50039974151E+02  0.51157516806E+02  0.18538526978E+03  0.26111241130E+03  0.16938389104E+03 0.  0.
         24    2    3    3    0    0  0.67327834534E+02 -0.20426386475E+02  0.79931158130E+02  0.13240427251E+03  0.78686890730E+02 0.  0.
         -6    2    1    2    0  502 -0.50039974151E+02 -0.51157516806E+02 -0.48003834845E+00  0.18676235373E+03  0.17250755287E+03 0.  0.
        -24    2    5    5    0    0  0.22445252880E+02 -0.18628719974E+01 -0.37093536445E+02  0.91648167687E+02  0.80722961575E+02 0.  0.
          5    1    3    3  501    0 -0.17287860383E+02  0.71583903281E+02  0.10545411165E+03  0.12870813879E+03  0.47000000000E+01 0. -1.
        -13    1    4    4    0    0  0.19656232153E+02 -0.73031540772E+01 -0.14717591501E+02  0.25618567905E+02  0.00000000000E+00 0.  1.
         14    1    4    4    0    0  0.47671602381E+02 -0.13123232398E+02  0.94648749631E+02  0.10678570461E+03  0.00000000000E+00 0. -1.
         -5    1    5    5    0  502 -0.72485227031E+02 -0.49294644809E+02  0.36613498097E+02  0.95114186047E+02  0.47000000000E+01 0.  1.
         11    1    6    6    0    0  0.11308981928E+02  0.55056579007E+01  0.25079743022E+02  0.28057064195E+02  0.00000000000E+00 0. -1.
        -12    1    6    6    0    0  0.11136270952E+02 -0.73685298981E+01 -0.62173279468E+02  0.63591103492E+02  0.00000000000E+00 0.  1.
</event>
<event>
12    1  0.8453150E-002  0.1843503E+03  0.7818608E-02  0.1167490E+00
         21   -1    0    0  503  502  0.00000000000E+00  0.00000000000E+00  0.20095667335E+03  0.20095667335E+03  0.00000000000E+00 0. -1.
         21   -1    0    0  501  503 -0.00000000000E+00 -0.00000000000E+00 -0.15598901939E+03  0.15598901939E+03  0.00000000000E+00 0. -1.
          6    2    1    2  501    0 -0.49642616876E+02 -0.42008500587E+02  0.10172466076E+02  0.18463071340E+03  0.17249903690E+03 0.  0.
         24    2    3    3    0    0  0.72625965198E+01 -0.68562839654E+02 -0.30274353380E+02  0.10978840291E+03  0.79895861290E+02 0.  0.
         -6    2    1    2    0  502  0.49642616876E+02  0.42008500587E+02  0.34795187891E+02  0.17231497934E+03  0.15573260248E+03 0.  0.
        -24    2    5    5    0    0  0.27021186889E+02  0.83342486648E+02  0.24704983087E+02  0.12389876583E+03  0.84050302575E+02 0.  0.
          5    1    3    3  501    0 -0.56905213396E+02  0.26554339067E+02  0.40446819456E+02  0.74842310487E+02  0.47000000000E+01 0. -1.
        -13    1    4    4    0    0  0.15297535303E+02 -0.28855054524E+02 -0.53802574786E+02  0.62939223156E+02  0.00000000000E+00 0.  1.
         14    1    4    4    0    0 -0.80349387827E+01 -0.39707785130E+02  0.23528221405E+02  0.46849179754E+02  0.00000000000E+00 0. -1.
         -5    1    5    5    0  502  0.22621429987E+02 -0.41333986060E+02  0.10090204803E+02  0.48416213517E+02  0.47000000000E+01 0.  1.
         13    1    6    6    0    0  0.51819251269E+02  0.29491181706E+02 -0.12209118001E+00  0.59623648889E+02  0.00000000000E+00 0. -1.
        -14    1    6    6    0    0 -0.24798064381E+02  0.53851304942E+02  0.24827074267E+02  0.64275116940E+02  0.00000000000E+00 0.  1.
</event>
<event>
12    1  0.8453150E-002  0.2356446E+03  0.7818608E-02  0.1122749E+00
         21   -1    0    0  503  502  0.00000000000E+00  0.00000000000E+00  0.29092027917E+03  0.29092027917E+03  0.00000000000E+00 0.  1.
         21   -1    0    0  501  503 -0.00000000000E+00 -0.00000000000E+00 -0.28792501146E+03  0.28792501146E+03  0.00000000000E+00 0.  1.
          6    2    1    2  501    0 -0.15764311811E+03  0.28385672969E+02 -0.16661995851E+03  0.28850462184E+03  0.17267196394E+03 0.  0.
         24    2    3    3    0    0 -0.50114797460E+02  0.53481928086E+02 -0.14179157462E+03  0.17523194019E+03  0.72315784382E+02 0.  0.
         -6    2    1    2    0  502  0.15764311811E+03 -0.28385672969E+02  0.16961522623E+03  0.29034066879E+03  0.17283309829E+03 0.  0.
        -24    2    5    5    0    0  0.11198458461E+03  0.48612575206E+02  0.98608353699E+02  0.17598378071E+03  0.79642664424E+02 0.  0.
          5    1    3    3  501    0 -0.10752832065E+03 -0.25096255117E+02 -0.24828383888E+02  0.11327268166E+03  0.47000000000E+01 0. -1.
        -13    1    4    4    0    0 -0.53129016654E+02  0.38817648363E+01 -0.73685927391E+02  0.90925114266E+02  0.00000000000E+00 0.  1.
         14    1    4    4    0    0  0.30142191932E+01  0.49600163250E+02 -0.68105647233E+02  0.84306825920E+02  0.00000000000E+00 0. -1.
         -5    1    5    5    0  502  0.45658533506E+02 -0.76998248175E+02  0.71006872529E+02  0.11435688808E+03  0.47000000000E+01 0.  1.
         13    1    6    6    0    0 -0.39004236111E+01 -0.67556161360E+01  0.28733203668E+02  0.29773287470E+02  0.00000000000E+00 0. -1.
        -14    1    6    6    0    0  0.11588500822E+03  0.55368191342E+02  0.69875150031E+02  0.14621049324E+03  0.00000000000E+00 0.  1.
</event>
<event>
12    1  0.8453150E-002  0.1905239E+03  0.7818608E-02  0.1158635E+00
         21   -1    0    0  501  502  0.00000000000E+00  0.00000000000E+00  0.77667144974E+02  0.77667144974E+02  0.00000000000E+00 0.  1.
         21   -1    0    0  502  503 -0.00000000000E+00 -0.00000000000E+00 -0.63841230338E+03  0.63841230338E+03  0.00000000000E+00 0.  1.
         -6    2    1    2    0  503 -0.59048860307E+02  0.56271248012E+02 -0.46790499958E+03  0.50413920599E+03  0.16902079496E+03 0.  0.
        -24    2    3    3    0    0 -0.14070569950E+02 -0.29448089540E+02 -0.16860307414E+03  0.18953694280E+03  0.80200281544E+02 0.  0.
          6    2    1    2  501    0  0.59048860307E+02 -0.56271248012E+02 -0.92840158828E+02  0.21194024237E+03  0.17218057378E+03 0.  0.
         24    2    5    5    0    0  0.30325791153E+02 -0.24088110273E+02  0.19997764764E+02  0.91046669101E+02  0.79935565884E+02 0.  0.
          5    1    5    5  501    0  0.28723069154E+02 -0.32183137738E+02 -0.11283792359E+03  0.12089357326E+03  0.47000000000E+01 0. -1.
        -11    1    6    6    0    0  0.42430300312E+02 -0.12213832531E+02  0.43555635137E+02  0.62020975821E+02  0.00000000000E+00 0.  1.
         12    1    6    6    0    0 -0.12104509158E+02 -0.11874277743E+02 -0.23557870373E+02  0.29025693280E+02  0.00000000000E+00 0. -1.
         -5    1    3    3    0  503 -0.44978290357E+02  0.85719337552E+02 -0.29930192544E+03  0.31460226320E+03  0.47000000000E+01 0.  1.
         11    1    4    4    0    0 -0.10429935690E+02 -0.31929601765E+02 -0.17694390489E+03  0.18010393806E+03  0.00000000000E+00 0. -1.
        -12    1    4    4    0    0 -0.36406342603E+01  0.24815122242E+01  0.83408307514E+01  0.94330047365E+01  0.00000000000E+00 0.  1.
</event>
<event>
12    1  0.8453150E-002  0.1752639E+03  0.7818608E-02  0.1172542E+00
         21   -1    0    0  503  502  0.00000000000E+00  0.00000000000E+00  0.40430270271E+02  0.40430270271E+02  0.00000000000E+00 0.  1.
         21   -1    0    0  501  503 -0.00000000000E+00 -0.00000000000E+00 -0.12311630277E+04  0.12311630277E+04  0.00000000000E+00 0.  1.
          6    2    1    2  501    0 -0.98036887154E+01 -0.33474151360E+02 -0.98963987365E+03  0.10050395522E+04  0.17175794245E+03 0.  0.
         24    2    3    3    0    0  0.14736537071E+02  0.22359567161E+02 -0.81451299357E+03  0.81953715075E+03  0.86559857930E+02 0.  0.
         -6    2    1    2    0  502  0.98036887154E+01  0.33474151360E+02 -0.20109288380E+03  0.26655374582E+03  0.17145238515E+03 0.  0.
        -24    2    5    5    0    0 -0.49243585712E+02 -0.48725004341E+01 -0.15674938952E+03  0.18321418855E+03  0.80922158742E+02 0.  0.
          5    1    3    3  501    0 -0.24540225787E+02 -0.55833718521E+02 -0.17512688008E+03  0.18550240142E+03  0.47000000000E+01 0. -1.
        -13    1    4    4    0    0 -0.48504220583E+01 -0.15844888286E+02 -0.62509441315E+03  0.62531401106E+03  0.00000000000E+00 0.  1.
         14    1    4    4    0    0  0.19586959130E+02  0.38204455447E+02 -0.18941858042E+03  0.19422313969E+03  0.00000000000E+00 0. -1.
         -5    1    5    5    0  502  0.59047274427E+02  0.38346651794E+02 -0.44343494276E+02  0.83339557269E+02  0.47000000000E+01 0.  1.
         13    1    6    6    0    0  0.31974063562E+01 -0.13393500804E+02 -0.11452512014E+03  0.11534995628E+03  0.00000000000E+00 0. -1.
        -14    1    6    6    0    0 -0.52440992068E+02  0.85210003698E+01 -0.42224269387E+02  0.67864232271E+02  0.00000000000E+00 0.  1.
</event>
<event>
12    1  0.8453150E-002  0.2133982E+03  0.7818608E-02  0.1139130E+00
         21   -1    0    0  503  502  0.00000000000E+00  0.00000000000E+00  0.58755695817E+03  0.58755695817E+03  0.00000000000E+00 0.  1.
         21   -1    0    0  501  503 -0.00000000000E+00 -0.00000000000E+00 -0.77404814613E+02  0.77404814613E+02  0.00000000000E+00 0.  1.
          6    2    1    2  501    0 -0.32216628479E+02  0.12162874912E+03  0.27586027728E+03  0.34805255102E+03  0.17090998194E+03 0.  0.
         24    2    3    3    0    0 -0.29525828975E+01  0.15181572654E+03  0.22550936424E+03  0.28228825665E+03  0.75996407228E+02 0.  0.
         -6    2    1    2    0  502  0.32216628479E+02 -0.12162874912E+03  0.23429186628E+03  0.31690922177E+03  0.17235809373E+03 0.  0.
        -24    2    5    5    0    0  0.97385663778E+01 -0.95986556142E+02  0.55158105775E+02  0.13449820376E+03  0.75756792091E+02 0.  0.
          5    1    3    3  501    0 -0.29264045582E+02 -0.30186977425E+02  0.50350913040E+02  0.65764294369E+02  0.47000000000E+01 0. -1.
        -11    1    4    4    0    0 -0.19174827479E+02  0.83568603415E+02  0.17797531038E+03  0.19755150364E+03  0.00000000000E+00 0.  1.
         12    1    4    4    0    0  0.16222244581E+02  0.68247123126E+02  0.47534053857E+02  0.84736753008E+02  0.00000000000E+00 0. -1.
         -5    1    5    5    0  502  0.22478062101E+02 -0.25642192974E+02  0.17913376051E+03  0.18241101801E+03  0.47000000000E+01 0.  1.
         11    1    6    6    0    0 -0.24209338855E+02 -0.50372631599E+01  0.50026931558E+01  0.25228813820E+02  0.00000000000E+00 0. -1.
        -12    1    6    6    0    0  0.33947905233E+02 -0.90949292982E+02  0.50155412619E+02  0.10926938994E+03  0.00000000000E+00 0.  1.
</event>
<event>
12    1  0.8453150E-002  0.2320878E+03  0.7818608E-02  0.1125918E+00
         21   -1    0    0  501  502  0.00000000000E+00  0.00000000000E+00  0.81926423088E+02  0.81926423088E+02  0.00000000000E+00 0. -1.
         21   -1    0    0  502  503 -0.00000000000E+00 -0.00000000000E+00 -0.67838391600E+03  0.67838391600E+03  0.00000000000E+00 0.  1.
         -6    2    1    2    0  503 -0.10065912793E+03 -0.11343861764E+03 -0.21208460487E+03  0.31130336258E+03  0.17008622498E+03 0.  0.
        -24    2    3    3    0    0 -0.18889206138E+02 -0.15906467885E+02 -0.30341554181E+02  0.89376647612E+02  0.80360172966E+02 0.  0.
          6    2    1    2  501    0  0.10065912793E+03  0.11343861764E+03 -0.38437288804E+03  0.44900697650E+03  0.17568200783E+03 0.  0.
         24    2    5    5    0    0  0.75642025383E+01  0.88774862712E+02 -0.29317567962E+03  0.31628928075E+03  0.78413880079E+02 0.  0.
          5    1    5    5  501    0  0.93094925390E+02  0.24663754929E+02 -0.91197208427E+02  0.13271769575E+03  0.47000000000E+01 0. -1.
        -11    1    6    6    0    0  0.28121768649E+02  0.86421986964E+02 -0.27156933047E+03  0.28637299970E+03  0.00000000000E+00 0.  1.
         12    1    6    6    0    0 -0.20557566111E+02  0.23528757478E+01 -0.21606349148E+02  0.29916281055E+02  0.00000000000E+00 0. -1.
         -5    1    3    3    0  503 -0.81769921791E+02 -0.97532149756E+02 -0.18174305069E+03  0.22192671497E+03  0.47000000000E+01 0.  1.
         13    1    4    4    0    0 -0.38924572543E+02  0.11743473384E+02 -0.36549864065E+02  0.54671053383E+02  0.00000000000E+00 0. -1.
        -14    1    4    4    0    0  0.20035366406E+02 -0.27649941269E+02  0.62083098843E+01  0.34705594230E+02  0.00000000000E+00 0.  1.
</event>
<event>
12    1  0.8453150E-002  0.2064978E+03  0.7818608E-02  0.1144393E+00
         21   -1    0    0  503  502  0.00000000000E+00  0.00000000000E+00  0.10382763933E+04  0.10382763933E+04  0.00000000000E+00 0.  1.
         21   -1    0    0  501  503 -0.00000000000E+00 -0.00000000000E+00 -0.52379845197E+02  0.52379845197E+02  0.00000000000E+00 0. -1.
          6    2    1    2  501    0  0.47064715795E+02 -0.10405896562E+03  0.23917832682E+03  0.31591147206E+03  0.17190238615E+03 0.  0.
         24    2    3    3    0    0 -0.24187899857E+02 -0.37809986428E+02  0.17524171693E+03  0.19939605435E+03  0.83871792419E+02 0.  0.
         -6    2    1    2    0  502 -0.47064715795E+02  0.10405896562E+03  0.74671822129E+03  0.77474476644E+03  0.17204067924E+03 0.  0.
        -24    2    5    5    0    0 -0.37487755063E+02  0.53927976670E+02  0.19505928013E+03  0.22071000977E+03  0.79694587026E+02 0.  0.
          5    1    3    3  501    0  0.71252615652E+02 -0.66248979194E+02  0.63936609882E+02  0.11651541771E+03  0.47000000000E+01 0. -1.
        -11    1    4    4    0    0  0.27832124751E+02 -0.10070772796E+02  0.97094628179E+02  0.10150573607E+03  0.00000000000E+00 0.  1.
         12    1    4    4    0    0 -0.52020024609E+02 -0.27739213632E+02  0.78147088754E+02  0.97890318285E+02  0.00000000000E+00 0. -1.
         -5    1    5    5    0  502 -0.95769607322E+01  0.50130988952E+02  0.55165894117E+03  0.55403475667E+03  0.47000000000E+01 0.  1.
         13    1    6    6    0    0  0.17610302038E+02  0.73570406094E+01  0.97632224314E+02  0.99480148818E+02  0.00000000000E+00 0. -1.
        -14    1    6    6    0    0 -0.55098057100E+02  0.46570936061E+02  0.97427055814E+02  0.12122986095E+03  0.00000000000E+00 0.  1.
</event>
<event>
12    1  0.8453150E-002  0.1773337E+03  0.7818608E-02  0.1170864E+00
         21   -1    0    0  503  502  0.00000000000E+00  0.00000000000E+00  0.68582464932E+03  0.68582464932E+03  0.00000000000E+00 0.  1.
         21   -1    0    0  501  503 -0.00000000000E+00 -0.00000000000E+00 -0.52203196976E+02  0.52203196976E+02  0.00000000000E+00 0.  1.
          6    2    1    2  501    0 -0.36447096475E+02 -0.15232347841E+02  0.18483663739E+03  0.25614807337E+03  0.17287810072E+03 0.  0.
         24    2    3    3    0    0  0.16788475673E+02  0.37229077131E+02  0.13838313321E+03  0.16802177025E+03  0.86102070932E+02 0.  0.
         -6    2    1    2    0  502  0.36447096475E+02  0.15232347841E+02  0.44878481496E+03  0.48187977293E+03  0.17099675482E+03 0.  0.
        -24    2    5    5    0    0  0.51379102311E+02  0.54658930354E+02  0.40930199696E+03  0.42392804195E+03  0.80990426664E+02 0.  0.
          5    1    3    3  501    0 -0.53235572148E+02 -0.52461424972E+02  0.46453504174E+02  0.88126303123E+02  0.47000000000E+01 0. -1.
        -11    1    4    4    0    0 -0.18326444813E+02 -0.63358332959E+01  0.95702287077E+02  0.97646961626E+02  0.00000000000E+00 0.  1.
         12    1    4    4    0    0  0.35114920486E+02  0.43564910427E+02  0.42680846138E+02  0.70374808620E+02  0.00000000000E+00 0. -1.
         -5    1    5    5    0  502 -0.14932005836E+02 -0.39426582513E+02  0.39482818001E+02  0.57951730986E+02  0.47000000000E+01 0.  1.
         11    1    6    6    0    0  0.18682249084E+02 -0.18430722257E+02  0.15840663545E+03  0.16056581239E+03  0.00000000000E+00 0. -1.
        -12    1    6    6    0    0  0.32696853227E+02  0.73089652612E+02  0.25089536151E+03  0.26336222956E+03  0.00000000000E+00 0.  1.
</event>
<event>
12    1  0.8453150E-002  0.2146962E+03  0.7818608E-02  0.1138964E+00
         21   -1    0    0  501  502  0.00000000000E+00  0.00000000000E+00  0.91734927995E+03  0.91734927995E+03  0.00000000000E+00 0.  1.
         21   -1    0    0  502  503 -0.00000000000E+00 -0.00000000000E+00 -0.49230062159E+02  0.49230062159E+02  0.00000000000E+00 0.  1.
         -6    2    1    2    0  503 -0.61824032173E+02 -0.10254896144E+03  0.46301028805E+03  0.50809520211E+03  0.17159168720E+03 0.  0.
        -24    2    3    3    0    0 -0.10737567202E+03 -0.89823189668E+02  0.34388036250E+03  0.37983403759E+03  0.80140202520E+02 0.  0.
          6    2    1    2  501    0  0.61824032173E+02  0.10254896144E+03  0.40510892974E+03  0.45848414000E+03  0.17820202364E+03 0.  0.
         24    2    5    5    0    0  0.95444037765E+02  0.92917869580E+02  0.39102847387E+03  0.42049187837E+03  0.78529342076E+02 0.  0.
          5    1    5    5  501    0 -0.33620005592E+02  0.96310918622E+01  0.14080455876E+02  0.37992261635E+02  0.47000000000E+01 0. -1.
        -13    1    6    6    0    0  0.78153879151E+02  0.22138640298E+02  0.22358215676E+03  0.23788049320E+03  0.00000000000E+00 0.  1.
         14    1    6    6    0    0  0.17290158614E+02  0.70779229283E+02  0.16744631710E+03  0.18261138517E+03  0.00000000000E+00 0. -1.
         -5    1    3    3    0  503  0.45551639848E+02 -0.12725771775E+02  0.11912992555E+03  0.12826116452E+03  0.47000000000E+01 0.  1.
         11    1    4    4    0    0 -0.19502102832E+02 -0.28571684992E+02  0.22983871635E+02  0.41532295307E+02  0.00000000000E+00 0. -1.
        -12    1    4    4    0    0 -0.87873569189E+02 -0.61251504676E+02  0.32089649086E+03  0.33830174229E+03  0.00000000000E+00 0.  1.
</event>
<event>
12    1  0.8453150E-002  0.1926958E+03  0.7818608E-02  0.1156083E+00
         21   -1    0    0  503  502  0.00000000000E+00  0.00000000000E+00  0.11231019955E+03  0.11231019955E+03  0.00000000000E+00 0. -1.
         21   -1    0    0  501  503 -0.00000000000E+00 -0.00000000000E+00 -0.34459938432E+03  0.34459938432E+03  0.00000000000E+00 0.  1.
          6    2    1    2  501    0 -0.41440994814E+02  0.77030956620E+02 -0.16251857138E+03  0.25197155381E+03  0.17154082184E+03 0.  0.
         24    2    3    3    0    0 -0.41275543053E+02  0.36181342049E+02 -0.18207989114E+03  0.20643636285E+03  0.80312671366E+02 0.  0.
         -6    2    1    2    0  502  0.41440994814E+02 -0.77030956620E+02 -0.69770613394E+02  0.20493803006E+03  0.17169896140E+03 0.  0.
        -24    2    5    5    0    0 -0.10734402776E+02 -0.10574782533E+03 -0.53626627551E+02  0.14305387263E+03  0.79314345033E+02 0.  0.
          5    1    3    3  501    0 -0.16545176152E+00  0.40849614571E+02  0.19561319760E+02  0.45535190959E+02  0.47000000000E+01 0. -1.
        -11    1    4    4    0    0 -0.64061345829E+02  0.18660550179E+02 -0.14417107821E+03  0.15886274565E+03  0.00000000000E+00 0.  1.
         12    1    4    4    0    0  0.22785802776E+02  0.17520791869E+02 -0.37908812931E+02  0.47573617202E+02  0.00000000000E+00 0. -1.
         -5    1    5    5    0  502  0.52175397590E+02  0.28716868709E+02 -0.16143985843E+02  0.61884157432E+02  0.47000000000E+01 0.  1.
         11    1    6    6    0    0 -0.29898120208E+02 -0.23889720175E+02 -0.44184167175E+02  0.58453887390E+02  0.00000000000E+00 0. -1.
        -12    1    6    6    0    0  0.19163717432E+02 -0.81858105153E+02 -0.94424603760E+01  0.84599985243E+02  0.00000000000E+00 0.  1.
</event>
<event>
12    1  0.8453150E-002  0.1873197E+03  0.7818608E-02  0.1161075E+00
         21   -1    0    0  503  502  0.00000000000E+00  0.00000000000E+00  0.32160650739E+03  0.32160650739E+03  0.00000000000E+00 0.  1.
         21   -1    0    0  501  503 -0.00000000000E+00 -0.00000000000E+00 -0.59700503408E+03  0.59700503408E+03  0.00000000000E+00 0.  1.
          6    2    1    2  501    0  0.12989713556E+02 -0.70734163013E+02 -0.55315705443E+03  0.58401319402E+03  0.17296424325E+03 0.  0.
         24    2    3    3    0    0 -0.27075395686E+02 -0.79652147247E+02 -0.51507495901E+03  0.52782530019E+03  0.78865661152E+02 0.  0.
         -6    2    1    2    0  502 -0.12989713556E+02  0.70734163013E+02  0.27775852774E+03  0.33459834745E+03  0.17214586812E+03 0.  0.
        -24    2    5    5    0    0 -0.59151013021E+01  0.68208754435E+02  0.71827532726E+02  0.12847679949E+03  0.81606806974E+02 0.  0.
          5    1    3    3  501    0  0.40065109242E+02  0.89179842332E+01 -0.38082095429E+02  0.56187893835E+02  0.47000000000E+01 0. -1.
        -13    1    4    4    0    0 -0.26030452003E+02 -0.91095373623E+02 -0.35778853946E+03  0.37011969753E+03  0.00000000000E+00 0.  1.
         14    1    4    4    0    0 -0.10449436835E+01  0.11443226376E+02 -0.15728641954E+03  0.15770560266E+03  0.00000000000E+00 0. -1.
         -5    1    5    5    0  502 -0.70746122541E+01  0.25254085781E+01  0.20593099501E+03  0.20612154796E+03  0.47000000000E+01 0.  1.
         11    1    6    6    0    0 -0.22095368853E+02 -0.88112317506E+01  0.33105741380E+02  0.40765588945E+02  0.00000000000E+00 0. -1.
        -12    1    6    6    0    0  0.16180267551E+02  0.77019986186E+02  0.38721791346E+02  0.87711210544E+02  0.00000000000E+00 0.  1.
</event>
<event>
12    1  0.8453150E-002  0.4065362E+03  0.7818608E-02  0.1041572E+00
         21   -1    0    0  501  502  0.00000000000E+00  0.00000000000E+00  0.80362178446E+03  0.80362178446E+03  0.00000000000E+00 0.  1.
         21   -1    0    0  502  503 -0.00000000000E+00 -0.00000000000E+00 -0.32199895814E+03  0.32199895814E+03  0.00000000000E+00 0. -1.
         -6    2    1    2    0  503 -0.34642344449E+03  0.12411548290E+03  0.57931577100E+03  0.70751123733E+03  0.17190559159E+03 0.  0.
        -24    2    3    3    0    0 -0.18789078756E+03  0.47212470181E+02  0.20264290868E+03  0.29163720364E+03  0.80350138276E+02 0.  0.
          6    2    1    2  501    0  0.34642344449E+03 -0.12411548290E+03 -0.97692944680E+02  0.41810950527E+03  0.17279407099E+03 0.  0.
         24    2    5    5    0    0  0.21642963787E+03 -0.11066060378E+03 -0.12461216524E+03  0.28459486949E+03  0.79865453324E+02 0.  0.
          5    1    5    5  501    0  0.12999380663E+03 -0.13454879116E+02  0.26919220562E+02  0.13351463579E+03  0.47000000000E+01 0. -1.
        -13    1    6    6    0    0  0.27172240605E+02 -0.33461089588E+02  0.36968267861E+01  0.43262474550E+02  0.00000000000E+00 0.  1.
         14    1    6    6    0    0  0.18925739726E+03 -0.77199514197E+02 -0.12830899203E+03  0.24133239494E+03  0.00000000000E+00 0. -1.
         -5    1    3    3    0  503 -0.15853265694E+03  0.76903012720E+02  0.37667286232E+03  0.41587403368E+03  0.47000000000E+01 0.  1.
         13    1    4    4    0    0 -0.60275694452E+02  0.55317431573E+02  0.75988515937E+02  0.11165765595E+03  0.00000000000E+00 0. -1.
        -14    1    4    4    0    0 -0.12761509310E+03 -0.81049613918E+01  0.12665439274E+03  0.17997954769E+03  0.00000000000E+00 0.  1.
</event>
<event>
12    1  0.8453150E-002  0.1728692E+03  0.7818608E-02  0.1174935E+00
         21   -1    0    0  501  502  0.00000000000E+00  0.00000000000E+00  0.17526112678E+03  0.17526112678E+03  0.00000000000E+00 0.  1.
         21   -1    0    0  502  503 -0.00000000000E+00 -0.00000000000E+00 -0.18733414794E+03  0.18733414794E+03  0.00000000000E+00 0.  1.
         -6    2    1    2    0  503  0.15522842831E+02  0.86060065829E+00 -0.60658800242E+02  0.18320272701E+03  0.17216866688E+03 0.  0.
        -24    2    3    3    0    0 -0.56304114666E+02 -0.15456818329E+02 -0.24842350834E+02  0.10116445525E+03  0.78791103877E+02 0.  0.
          6    2    1    2  501    0 -0.15522842831E+02 -0.86060065829E+00  0.48585779088E+02  0.17939254770E+03  0.17198665343E+03 0.  0.
         24    2    5    5    0    0  0.43332813522E+02 -0.11383982665E+02 -0.63356973931E+01  0.98071034974E+02  0.87008384943E+02 0.  0.
          5    1    5    5  501    0 -0.58855656353E+02  0.10523382007E+02  0.54921476481E+02  0.81321512728E+02  0.47000000000E+01 0. -1.
        -11    1    6    6    0    0  0.69198760662E+02 -0.16399861326E+02 -0.65886346980E+00  0.71118619431E+02  0.00000000000E+00 0.  1.
         12    1    6    6    0    0 -0.25865947140E+02  0.50158786613E+01 -0.56768339234E+01  0.26952415543E+02  0.00000000000E+00 0. -1.
         -5    1    3    3    0  503  0.71826957496E+02  0.16317418987E+02 -0.35816449408E+02  0.82038271763E+02  0.47000000000E+01 0.  1.
         11    1    4    4    0    0  0.70580136703E+01  0.10993865655E+00  0.20518938174E+02  0.21699181258E+02  0.00000000000E+00 0. -1.
        -12    1    4    4    0    0 -0.63362128336E+02 -0.15566756986E+02 -0.45361289008E+02  0.79465273993E+02  0.00000000000E+00 0.  1.
</event>
<event>
12    1  0.8453150E-002  0.1787651E+03  0.7818608E-02  0.1169045E+00
         21   -1    0    0  503  502  0.00000000000E+00  0.00000000000E+00  0.14094884312E+03  0.14094884312E+03  0.00000000000E+00 0.  1.
         21   -1    0    0  501  503 -0.00000000000E+00 -0.00000000000E+00 -0.59098844445E+03  0.59098844445E+03  0.00000000000E+00 0.  1.
          6    2    1    2  501    0 -0.20307739443E+02 -0.40812309148E+02 -0.51238038220E+03  0.54261391785E+03  0.17267935290E+03 0.  0.
         24    2    3    3    0    0 -0.37782821473E+02 -0.34544972344E+02 -0.51479326413E+03  0.52331184537E+03  0.78881468006E+02 0.  0.
         -6    2    1    2    0  502  0.20307739443E+02  0.40812309148E+02  0.62340780867E+02  0.18932336972E+03  0.17285518940E+03 0.  0.
        -24    2    5    5    0    0 -0.55059533654E+02  0.21653075997E+02  0.28165139210E+02  0.10425065640E+03  0.81083391310E+02 0.  0.
          5    1    3    3  501    0  0.17475082030E+02 -0.62673368035E+01  0.24128819345E+01  0.19302072474E+02  0.47000000000E+01 0. -1.
        -11    1    4    4    0    0 -0.77084304811E+01 -0.52887005641E+02 -0.21894813888E+03  0.22537689053E+03  0.00000000000E+00 0.  1.
         12    1    4    4    0    0 -0.30074390992E+02  0.18342033297E+02 -0.29584512526E+03  0.29793495484E+03  0.00000000000E+00 0. -1.
         -5    1    5    5    0  502  0.75367273098E+02  0.19159233151E+02  0.34175641657E+02  0.85072713321E+02  0.47000000000E+01 0.  1.
         11    1    6    6    0    0 -0.23318133456E+02  0.75405795204E+01 -0.28622639157E+02  0.37680912405E+02  0.00000000000E+00 0. -1.
        -12    1    6    6    0    0 -0.31741400198E+02  0.14112496477E+02  0.56787778367E+02  0.66569743993E+02  0.00000000000E+00 0.  1.
</event>
<event>
12    1  0.8453150E-002  0.2038962E+03  0.7818608E-02  0.1146606E+00
         21   -1    0    0  503  502  0.00000000000E+00  0.00000000000E+00  0.16289026414E+04  0.16289026414E+04  0.00000000000E+00 0. -1.
         21   -1    0    0  501  503 -0.00000000000E+00 -0.00000000000E+00 -0.40535616294E+02  0.40535616294E+02  0.00000000000E+00 0. -1.
          6    2    1    2  501    0 -0.80575976203E+02  0.72488337734E+02  0.28436058621E+03  0.34958733671E+03  0.17205614184E+03 0.  0.
         24    2    3    3    0    0 -0.37579848523E+02  0.11791878123E+02  0.45002348893E+02  0.98893932369E+02  0.78762332677E+02 0.  0.
         -6    2    1    2    0  502  0.80575976203E+02 -0.72488337734E+02  0.13040064389E+04  0.13198509210E+04  0.17270383294E+03 0.  0.
        -24    2    5    5    0    0  0.11078700095E+03 -0.15269452965E+02  0.92512771321E+03  0.93545804181E+03  0.81936234105E+02 0.  0.
          5    1    3    3  501    0 -0.42996127680E+02  0.60696459611E+02  0.23935823732E+03  0.25069340434E+03  0.47000000000E+01 0. -1.
        -13    1    4    4    0    0  0.24377826586E+02  0.84345591260E+01  0.16422499189E+02  0.30579710534E+02  0.00000000000E+00 0.  1.
         14    1    4    4    0    0 -0.61957675109E+02  0.33573189973E+01  0.28579849704E+02  0.68314221835E+02  0.00000000000E+00 0. -1.
         -5    1    5    5    0  502 -0.30211024748E+02 -0.57218884770E+02  0.37887872570E+03  0.38439287920E+03  0.47000000000E+01 0.  1.
         13    1    6    6    0    0 -0.12027280263E+02  0.66124926239E+01  0.10620836175E+03  0.10709153391E+03  0.00000000000E+00 0. -1.
        -14    1    6    6    0    0  0.12281428121E+03 -0.21881945588E+02  0.81891935146E+03  0.82836650790E+03  0.00000000000E+00 0.  1.
</event>
<event>
12    1  0.8453150E-002  0.1893594E+03  0.7818608E-02  0.1159939E+00
         21   -1    0    0  503  502  0.00000000000E+00  0.00000000000E+00  0.29271928571E+03  0.29271928571E+03  0.00000000000E+00 0. -1.
         21   -1    0    0  501  503 -0.00000000000E+00 -0.00000000000E+00 -0.13688712384E+03  0.13688712384E+03  0.00000000000E+00 0. -1.
          6    2    1    2  501    0 -0.73241207065E+02 -0.14210634100E+02  0.31248852100E+01  0.18938522197E+03  0.17404246855E+03 0.  0.
         24    2    3    3    0    0  0.20362442902E+02 -0.36855832423E+02 -0.13955110281E+02  0.91465537842E+02  0.79988862008E+02 0.  0.
         -6    2    1    2    0  502  0.73241207065E+02  0.14210634100E+02  0.15270727667E+03  0.24022118758E+03  0.16976598623E+03 0.  0.
        -24    2    5    5    0    0  0.59416462887E+01 -0.59405063743E+01  0.14711943081E+03  0.16959107102E+03  0.83942907213E+02 0.  0.
          5    1    3    3  501    0 -0.93603649967E+02  0.22645198323E+02  0.17079995491E+02  0.97919684130E+02  0.47000000000E+01 0. -1.
        -13    1    4    4    0    0 -0.84475654284E+01  0.22122443090E+02  0.24524846103E+01  0.23807110927E+02  0.00000000000E+00 0.  1.
         14    1    4    4    0    0  0.28810008331E+02 -0.58978275513E+02 -0.16407594891E+02  0.67658426915E+02  0.00000000000E+00 0. -1.
         -5    1    5    5    0  502  0.67299560776E+02  0.20151140475E+02  0.55878458503E+01  0.70630116553E+02  0.47000000000E+01 0.  1.
         11    1    6    6    0    0  0.32137559010E+02  0.26788021642E+02  0.63366054560E+02  0.75932059586E+02  0.00000000000E+00 0. -1.
        -12    1    6    6    0    0 -0.26195912721E+02 -0.32728528016E+02  0.83753376255E+02  0.93659011438E+02  0.00000000000E+00 0.  1.
</event>
<event>
12    1  0.8453150E-002  0.2377992E+03  0.7818608E-02  0.1121831E+00
         21   -1    0    0  501  502  0.00000000000E+00  0.00000000000E+00  0.43793917243E+03  0.43793917243E+03  0.00000000000E+00 0. -1.
         21   -1    0    0  502  503 -0.00000000000E+00 -0.00000000000E+00 -0.14229890611E+03  0.14229890611E+03  0.00000000000E+00 0. -1.
         -6    2    1    2    0  503  0.16101036352E+03  0.33765400288E+02  0.24284504353E+03  0.33988553721E+03  0.17170912561E+03 0.  0.
        -24    2    3    3    0    0  0.20076747397E+02  0.39642749799E+02  0.65037003986E+02  0.11287316680E+03  0.80845015300E+02 0.  0.
          6    2    1    2  501    0 -0.16101036352E+03 -0.33765400288E+02  0.52795222793E+02  0.24035254133E+03  0.16708551450E+03 0.  0.
         24    2    5    5    0    0 -0.15125972756E+03  0.23324332910E+02  0.56081177287E+02  0.18215288467E+03  0.81308334514E+02 0.  0.
          5    1    5    5  501    0 -0.97506359678E+01 -0.57089733198E+02 -0.32859544938E+01  0.58199656659E+02  0.47000000000E+01 0. -1.
        -13    1    6    6    0    0 -0.58300828268E+02  0.45108544800E+02  0.50335109910E+01  0.73885747094E+02  0.00000000000E+00 0.  1.
         14    1    6    6    0    0 -0.92958899289E+02 -0.21784211890E+02  0.51047666296E+02  0.10826713758E+03  0.00000000000E+00 0. -1.
         -5    1    3    3    0  503  0.14093361613E+03 -0.58773495114E+01  0.17780803954E+03  0.22701237041E+03  0.47000000000E+01 0.  1.
         13    1    4    4    0    0  0.23301443953E+01  0.44472217548E+02  0.78382107091E+02  0.90149666770E+02  0.00000000000E+00 0. -1.
        -14    1    4    4    0    0  0.17746603002E+02 -0.48294677493E+01 -0.13345103106E+02  0.22723500033E+02  0.00000000000E+00 0.  1.
</event>
<event>
12    1  0.8453150E-002  0.1938021E+03  0.7818608E-02  0.1155484E+00
         21   -1    0    0  501  502  0.00000000000E+00  0.00000000000E+00  0.29807217071E+03  0.29807217071E+03  0.00000000000E+00 0. -1.
         21   -1    0    0  502  503 -0.00000000000E+00 -0.00000000000E+00 -0.12973259334E+03  0.12973259334E+03  0.00000000000E+00 0. -1.
         -6    2    1    2    0  503  0.56871530851E+02 -0.65379205992E+02  0.42891850352E+02  0.19849177146E+03  0.17335068766E+03 0.  0.
        -24    2    3    3    0    0  0.76815287324E+02 -0.98627374826E+02  0.12051176732E+02  0.14872801655E+03  0.79667086145E+02 0.  0.
          6    2    1    2  501    0 -0.56871530851E+02  0.65379205992E+02  0.12544772702E+03  0.22931299259E+03  0.17128486436E+03 0.  0.
         24    2    5    5    0    0  0.22989583816E+02  0.72271258542E+02  0.85271747692E+02  0.13952715106E+03  0.80280129256E+02 0.  0.
          5    1    5    5  501    0 -0.79861114667E+02 -0.68920525500E+01  0.40175979331E+02  0.89785841530E+02  0.47000000000E+01 0. -1.
        -13    1    6    6    0    0  0.35226277388E+02 -0.13028775939E+01  0.34335380662E+02  0.49208804841E+02  0.00000000000E+00 0.  1.
         14    1    6    6    0    0 -0.12236693572E+02  0.73574136136E+02  0.50936367030E+02  0.90318346220E+02  0.00000000000E+00 0. -1.
         -5    1    3    3    0  503 -0.19943756474E+02  0.33248168834E+02  0.30840673620E+02  0.49763754907E+02  0.47000000000E+01 0.  1.
         11    1    4    4    0    0  0.78845016038E+02 -0.39898114465E+02  0.16118221039E+02  0.89823121418E+02  0.00000000000E+00 0. -1.
        -12    1    4    4    0    0 -0.20297287138E+01 -0.58729260361E+02 -0.40670443069E+01  0.58904895133E+02  0.00000000000E+00 0.  1.
</event>
<event>
12    1  0.8453150E-002  0.1993056E+03  0.7818608E-02  0.1150555E+00
         21   -1    0    0  503  502  0.00000000000E+00  0.00000000000E+00  0.36564773943E+03  0.36564773943E+03  0.00000000000E+00 0.  1.
         21   -1    0    0  501  503 -0.00000000000E+00 -0.00000000000E+00 -0.25862319438E+03  0.25862319438E+03  0.00000000000E+00 0. -1.
          6    2    1    2  501    0  0.16386186640E+02  0.10124806818E+03 -0.18471488770E+03  0.27095150059E+03  0.16963327361E+03 0.  0.
         24    2    3    3    0    0 -0.52075546502E+02  0.61591799928E+02 -0.11086651900E+03  0.16262191056E+03  0.87459066992E+02 0.  0.
         -6    2    1    2    0  502 -0.16386186640E+02 -0.10124806818E+03  0.29173943275E+03  0.35331943322E+03  0.17088898983E+03 0.  0.
        -24    2    5    5    0    0 -0.54967571577E+02 -0.86570470304E+01  0.16202480196E+03  0.18927798753E+03  0.80484419153E+02 0.  0.
          5    1    3    3  501    0  0.68461733142E+02  0.39656268252E+02 -0.73848368698E+02  0.10832959003E+03  0.47000000000E+01 0. -1.
        -11    1    4    4    0    0  0.89972669500E+01  0.33997308320E+02 -0.25639604938E+01  0.35261050452E+02  0.00000000000E+00 0.  1.
         12    1    4    4    0    0 -0.61072813452E+02  0.27594491608E+02 -0.10830255850E+03  0.12736086011E+03  0.00000000000E+00 0. -1.
         -5    1    5    5    0  502  0.38581384937E+02 -0.92591021150E+02  0.12971463080E+03  0.16404144569E+03  0.47000000000E+01 0.  1.
         13    1    6    6    0    0 -0.98579669758E+01  0.48409229622E+01 -0.75239236544E+01  0.13312530758E+02  0.00000000000E+00 0. -1.
        -14    1    6    6    0    0 -0.45109604601E+02 -0.13497969993E+02  0.16954872561E+03  0.17596545677E+03  0.00000000000E+00 0.  1.
</event>
<event>
12    1  0.8453150E-002  0.1796852E+03  0.7818608E-02  0.1168524E+00
         21   -1    0    0  503  502  0.00000000000E+00  0.00000000000E+00  0.99160484301E+02  0.99160484301E+02  0.00000000000E+00 0. -1.
         21   -1    0    0  501  503 -0.00000000000E+00 -0.00000000000E+00 -0.32278259640E+03  0.32278259640E+03  0.00000000000E+00 0.  1.
          6    2    1    2  501    0 -0.16629732817E+02  0.45255614116E+02 -0.10519778538E+03  0.20674292437E+03  0.17132263163E+03 0.  0.
         24    2    3    3    0    0  0.12095843202E+02  0.32905850868E+02  0.94967981245E+01  0.87769764147E+02  0.79901426017E+02 0.  0.
         -6    2    1    2    0  502  0.16629732817E+02 -0.45255614116E+02 -0.11842432672E+03  0.21520015632E+03  0.17309583329E+03 0.  0.
        -24    2    5    5    0    0 -0.52512119854E+02  0.25769947720E+01 -0.57247760109E+02  0.11111741728E+03  0.79407875887E+02 0.  0.
          5    1    3    3  501    0 -0.28725576020E+02  0.12349763248E+02 -0.11469458350E+03  0.11897316023E+03  0.47000000000E+01 0. -1.
        -11    1    4    4    0    0  0.13075367360E+02  0.32881867827E+02 -0.31130550552E+02  0.47130601959E+02  0.00000000000E+00 0.  1.
         12    1    4    4    0    0 -0.97952415732E+00  0.23983041403E-01  0.40627348677E+02  0.40639162187E+02  0.00000000000E+00 0. -1.
         -5    1    5    5    0  502  0.69141852671E+02 -0.47832608888E+02 -0.61176566610E+02  0.10408273904E+03  0.47000000000E+01 0.  1.
         13    1    6    6    0    0 -0.34334106051E+02  0.40463406835E+02 -0.34999195717E+02  0.63569346637E+02  0.00000000000E+00 0. -1.
        -14    1    6    6    0    0 -0.18178013803E+02 -0.37886412063E+02 -0.22248564392E+02  0.47548070648E+02  0.00000000000E+00 0.  1.
</event>
<event>
12    1  0.8453150E-002  0.1957020E+03  0.7818608E-02  0.1153562E+00
         21   -1    0    0  501  502  0.00000000000E+00  0.00000000000E+00  0.24770954489E+03  0.24770954489E+03  0.00000000000E+00 0.  1.
         21   -1    0    0  502  503 -0.00000000000E+00 -0.00000000000E+00 -0.30006139995E+03  0.30006139995E+03  0.00000000000E+00 0.  1.
         -6    2    1    2    0  503  0.62756126762E+02  0.69190770789E+02 -0.21723076977E+03  0.29238409832E+03  0.17196964676E+03 0.  0.
        -24    2    3    3    0    0  0.42133138137E+02 -0.26864145819E+02 -0.11676838042E+03  0.15179022812E+03  0.83117597574E+02 0.  0.
          6    2    1    2  501    0 -0.62756126762E+02 -0.69190770789E+02  0.16487891471E+03  0.25538684652E+03  0.17120657304E+03 0.  0.
         24    2    5    5    0    0 -0.78416303468E+02  0.11404352507E+02  0.99690185486E+02  0.15044650418E+03  0.80105191043E+02 0.  0.
          5    1    5    5  501    0  0.15660176706E+02 -0.80595123296E+02  0.65188729221E+02  0.10494034234E+03  0.47000000000E+01 0. -1.
        -13    1    6    6    0    0 -0.37609096197E+02  0.32140527968E+02  0.91397747286E+02  0.10392788781E+03  0.00000000000E+00 0.  1.
         14    1    6    6    0    0 -0.40807207271E+02 -0.20736175461E+02  0.82924381993E+01  0.46518616373E+02  0.00000000000E+00 0. -1.
         -5    1    3    3    0  503  0.20622988625E+02  0.96054916608E+02 -0.10046238935E+03  0.14059387020E+03  0.47000000000E+01 0.  1.
         11    1    4    4    0    0 -0.17392610481E+02 -0.30741251547E+02 -0.29162317415E+02  0.45803582862E+02  0.00000000000E+00 0. -1.
        -12    1    4    4    0    0  0.59525748618E+02  0.38771057277E+01 -0.87606063003E+02  0.10598664525E+03  0.00000000000E+00 0.  1.
</event>
<event>
12    1  0.8453150E-002  0.2151641E+03  0.7818608E-02  0.1137904E+00
         21   -1    0    0  501  502  0.00000000000E+00  0.00000000000E+00  0.53500041643E+02  0.53500041643E+02  0.00000000000E+00 0.  1.
         21   -1    0    0  502  503 -0.00000000000E+00 -0.00000000000E+00 -0.20199769496E+04  0.20199769496E+04  0.00000000000E+00 0.  1.
         -6    2    1    2    0  503 -0.12754116368E+03  0.92167661875E+01 -0.17714608082E+04  0.17844800324E+04  0.17304304039E+03 0.  0.
        -24    2    3    3    0    0 -0.79009679185E+02 -0.17800427704E+02 -0.56207419068E+03  0.57380942715E+03  0.82282915826E+02 0.  0.
          6    2    1    2  501    0  0.12754116368E+03 -0.92167661875E+01 -0.19501609974E+03  0.28899695883E+03  0.17069348506E+03 0.  0.
         24    2    5    5    0    0  0.36885273253E+01 -0.25828742319E+02 -0.84870528775E+02  0.12235491706E+03  0.84184261654E+02 0.  0.
          5    1    5    5  501    0  0.12385263635E+03  0.16611976131E+02 -0.11014557097E+03  0.16664204177E+03  0.47000000000E+01 0. -1.
        -13    1    6    6    0    0  0.12070733832E+02 -0.45946163790E+02 -0.16014216862E+02  0.50131903255E+02  0.00000000000E+00 0.  1.
         14    1    6    6    0    0 -0.83822065068E+01  0.20117421471E+02 -0.68856311913E+02  0.72223013803E+02  0.00000000000E+00 0. -1.
         -5    1    3    3    0  503 -0.48531484491E+02  0.27017193891E+02 -0.12093866175E+04  0.12106706052E+04  0.47000000000E+01 0.  1.
         13    1    4    4    0    0 -0.83266540293E+02  0.12455892892E+02 -0.38271566206E+03  0.39186699783E+03  0.00000000000E+00 0. -1.
        -14    1    4    4    0    0  0.42568611078E+01 -0.30256320596E+02 -0.17935852861E+03  0.18194242933E+03  0.00000000000E+00 0.  1.
</event>
<event>
12    1  0.8453150E-002  0.1755907E+03  0.7818608E-02  0.1172599E+00
         21   -1    0    0  501  502  0.00000000000E+00  0.00000000000E+00  0.74723543736E+02  0.74723543736E+02  0.00000000000E+00 0.  1.
         21   -1    0    0  502  503 -0.00000000000E+00 -0.00000000000E+00 -0.10526056336E+04  0.10526056336E+04  0.00000000000E+00 0.  1.
         -6    2    1    2    0  503 -0.25314482892E+02 -0.12375995556E+02 -0.93091416030E+03  0.94732954191E+03  0.17331502770E+03 0.  0.
        -24    2    3    3    0    0 -0.35164117295E+01  0.52613248797E+02 -0.69461507595E+03  0.70124397742E+03  0.80451805633E+02 0.  0.
          6    2    1    2  501    0  0.25314482892E+02  0.12375995556E+02 -0.46967929603E+02  0.17999963546E+03  0.17146397302E+03 0.  0.
         24    2    5    5    0    0  0.38848024838E+01  0.37240356042E+02 -0.90371923665E+02  0.12537853766E+03  0.78426763988E+02 0.  0.
          5    1    5    5  501    0  0.21429680408E+02 -0.24864360486E+02  0.43403994062E+02  0.54621097804E+02  0.47000000000E+01 0. -1.
        -11    1    6    6    0    0 -0.37094931634E+01 -0.15430889868E+02  0.45911200298E+01  0.16521231334E+02  0.00000000000E+00 0.  1.
         12    1    6    6    0    0  0.75942956472E+01  0.52671245910E+02 -0.94963043695E+02  0.10885730632E+03  0.00000000000E+00 0. -1.
         -5    1    3    3    0  503 -0.21798071163E+02 -0.64989244353E+02 -0.23629908435E+03  0.24608556450E+03  0.47000000000E+01 0.  1.
         11    1    4    4    0    0  0.25838637569E+02  0.32323269217E+02 -0.57324469828E+03  0.57473638569E+03  0.00000000000E+00 0. -1.
        -12    1    4    4    0    0 -0.29355049298E+02  0.20289979580E+02 -0.12137037767E+03  0.12650759173E+03  0.00000000000E+00 0.  1.
</event>
<event>
12    1  0.8453150E-002  0.1799364E+03  0.7818608E-02  0.1168076E+00
         21   -1    0    0  503  502  0.00000000000E+00  0.00000000000E+00  0.39242884519E+03  0.39242884519E+03  0.00000000000E+00 0. -1.
         21   -1    0    0  501  503 -0.00000000000E+00 -0.00000000000E+00 -0.82483511843E+02  0.82483511843E+02  0.00000000000E+00 0. -1.
          6    2    1    2  501    0 -0.28069454377E+02  0.43322393294E+02  0.17068638288E+03  0.24738176043E+03  0.17146186182E+03 0.  0.
         24    2    3    3    0    0  0.52078301061E+01 -0.27223596578E+02  0.13907172872E+03  0.16308650132E+03  0.80548218350E+02 0.  0.
         -6    2    1    2    0  502  0.28069454377E+02 -0.43322393294E+02  0.13925895047E+03  0.22753059661E+03  0.17237283161E+03 0.  0.
        -24    2    5    5    0    0 -0.41735441232E+02 -0.60075978816E+02  0.81836501910E+02  0.13548260001E+03  0.79418836408E+02 0.  0.
          5    1    3    3  501    0 -0.33277284483E+02  0.70545989872E+02  0.31614654162E+02  0.84295259104E+02  0.47000000000E+01 0. -1.
        -13    1    4    4    0    0  0.30247853074E+02  0.16610503515E+02  0.51135696098E+02  0.61690362764E+02  0.00000000000E+00 0.  1.
         14    1    4    4    0    0 -0.25040022968E+02 -0.43834100093E+02  0.87936032622E+02  0.10139613856E+03  0.00000000000E+00 0. -1.
         -5    1    5    5    0  502  0.69804895609E+02  0.16753585522E+02  0.57422448559E+02  0.92047996596E+02  0.47000000000E+01 0.  1.
         13    1    6    6    0    0  0.14883215261E+02 -0.39997680529E+02  0.14101922251E+02  0.44946509936E+02  0.00000000000E+00 0. -1.
        -14    1    6    6    0    0 -0.56618656494E+02 -0.20078298287E+02  0.67734579659E+02  0.90536090079E+02  0.00000000000E+00 0.  1.
</event>
<event>
12    1  0.8453150E-002  0.2127026E+03  0.7818608E-02  0.1139810E+00
         21   -1    0    0  503  502  0.00000000000E+00  0.00000000000E+00  0.26958810931E+03  0.26958810931E+03  0.00000000000E+00 0. -1.
         21   -1    0    0  501  503 -0.00000000000E+00 -0.00000000000E+00 -0.32039167148E+03  0.32039167148E+03  0.00000000000E+00 0.  1.
          6    2    1    2  501    0 -0.93653709569E+02 -0.84764742205E+02 -0.23000569790E+03  0.31328106774E+03  0.17113248524E+03 0.  0.
         24    2    3    3    0    0 -0.49846959876E+02 -0.11699463850E+03 -0.20270625926E+03  0.25224708635E+03  0.79789098153E+02 0.  0.
         -6    2    1    2    0  502  0.93653709569E+02  0.84764742205E+02  0.17920213572E+03  0.27669871306E+03  0.16879778885E+03 0.  0.
        -24    2    5    5    0    0 -0.11572905316E+01  0.40864444182E+02  0.13584184265E+03  0.16347960282E+03  0.81248582787E+02 0.  0.
          5    1    3    3  501    0 -0.43806749693E+02  0.32229896298E+02 -0.27299438637E+02  0.61033981387E+02  0.47000000000E+01 0. -1.
        -13    1    4    4    0    0 -0.32131696407E+02 -0.95680169786E+02 -0.20046651117E+03  0.22444144649E+03  0.00000000000E+00 0.  1.
         14    1    4    4    0    0 -0.17715263469E+02 -0.21314468717E+02 -0.22397480888E+01  0.27805639859E+02  0.00000000000E+00 0. -1.
         -5    1    5    5    0  502  0.94811000101E+02  0.43900298023E+02  0.43360293077E+02  0.11321911024E+03  0.47000000000E+01 0.  1.
         11    1    6    6    0    0  0.14160959045E+02  0.18697410365E+01  0.11643437768E+03  0.11730725894E+03  0.00000000000E+00 0. -1.
        -12    1    6    6    0    0 -0.15318249576E+02  0.38994703145E+02  0.19407464964E+02  0.46172343885E+02  0.00000000000E+00 0.  1.
</event>
<event>
12    1  0.8453150E-002  0.1810296E+03  0.7818608E-02  0.1167349E+00
         21   -1    0    0  501  502  0.00000000000E+00  0.00000000000E+00  0.60792184957E+03  0.60792184957E+03  0.00000000000E+00 0.  1.
         21   -1    0    0  502  503 -0.00000000000E+00 -0.00000000000E+00 -0.53267081148E+02  0.53267081148E+02  0.00000000000E+00 0.  1.
         -6    2    1    2    0  503 -0.43256743362E+02 -0.34651253130E+02  0.27242871040E+03  0.32709189036E+03  0.17233643638E+03 0.  0.
        -24    2    3    3    0    0 -0.19532600107E+01  0.33726604291E+02  0.76977220802E+02  0.11589320688E+03  0.79777464337E+02 0.  0.
          6    2    1    2  501    0  0.43256743362E+02  0.34651253130E+02  0.28222605803E+03  0.33409704036E+03  0.16999243911E+03 0.  0.
         24    2    5    5    0    0  0.72582896951E+00  0.49663132867E+02  0.62269649184E+02  0.10951487943E+03  0.75160135805E+02 0.  0.
          5    1    5    5  501    0  0.42530914392E+02 -0.15011879738E+02  0.21995640885E+03  0.22458216092E+03  0.47000000000E+01 0. -1.
        -11    1    6    6    0    0 -0.82352918417E+01 -0.11649523788E+02 -0.75691222368E+01  0.16150016955E+02  0.00000000000E+00 0.  1.
         12    1    6    6    0    0  0.89611208112E+01  0.61312656656E+02  0.69838771420E+02  0.93364862480E+02  0.00000000000E+00 0. -1.
         -5    1    3    3    0  503 -0.41303483351E+02 -0.68377857420E+02  0.19545148959E+03  0.21119868349E+03  0.47000000000E+01 0.  1.
         13    1    4    4    0    0 -0.38604377102E+02  0.88413335836E+01  0.22054798695E+02  0.45330798100E+02  0.00000000000E+00 0. -1.
        -14    1    4    4    0    0  0.36651117091E+02  0.24885270707E+02  0.54922422107E+02  0.70562408776E+02  0.00000000000E+00 0.  1.
</event>
<event>
12    1  0.8453150E-002  0.1768752E+03  0.7818608E-02  0.1170923E+00
         21   -1    0    0  501  502  0.00000000000E+00  0.00000000000E+00  0.52883112599E+02  0.52883112599E+02  0.00000000000E+00 0.  1.
         21   -1    0    0  502  503 -0.00000000000E+00 -0.00000000000E+00 -0.59105196086E+03  0.59105196086E+03  0.00000000000E+00 0.  1.
         -6    2    1    2    0  503  0.22160421375E+02 -0.30795038091E+02 -0.27639934315E+03  0.32814851156E+03  0.17275829966E+03 0.  0.
        -24    2    3    3    0    0 -0.45342357327E+02  0.20129169561E+01 -0.88698495310E+02  0.12594394849E+03  0.77035536538E+02 0.  0.
          6    2    1    2  501    0 -0.22160421375E+02  0.30795038091E+02 -0.26176950512E+03  0.31578656190E+03  0.17250640632E+03 0.  0.
         24    2    5    5    0    0  0.12614461214E+02  0.27452620434E+02 -0.26708378020E+03  0.28013833986E+03  0.78936511280E+02 0.  0.
          5    1    5    5  501    0 -0.34774882589E+02  0.33424176563E+01  0.53142750821E+01  0.35648222039E+02  0.47000000000E+01 0. -1.
        -13    1    6    6    0    0  0.22035605729E+02  0.12812793665E+02 -0.19888864049E+02  0.32331138466E+02  0.00000000000E+00 0.  1.
         14    1    6    6    0    0 -0.94211445146E+01  0.14639826769E+02 -0.24719491615E+03  0.24780720140E+03  0.00000000000E+00 0. -1.
         -5    1    3    3    0  503  0.67502778702E+02 -0.32807955047E+02 -0.18770084784E+03  0.20220456307E+03  0.47000000000E+01 0.  1.
         13    1    4    4    0    0  0.36050849809E+01 -0.72047066303E+01  0.11504370047E+02  0.14044748682E+02  0.00000000000E+00 0. -1.
        -14    1    4    4    0    0 -0.48947442308E+02  0.92176235863E+01 -0.10020286536E+03  0.11189919981E+03  0.00000000000E+00 0.  1.
</event>
<event>
12    1  0.8453150E-002  0.1822881E+03  0.7818608E-02  0.1168156E+00
         21   -1    0    0  501  502  0.00000000000E+00  0.00000000000E+00  0.26866082772E+02  0.26866082772E+02  0.00000000000E+00 0. -1.
         21   -1    0    0  502  503 -0.00000000000E+00 -0.00000000000E+00 -0.14077872272E+04  0.14077872272E+04  0.00000000000E+00 0. -1.
         -6    2    1    2    0  503  0.22459416201E+02 -0.51208904163E+02 -0.96998371484E+03  0.98509960166E+03  0.16256088361E+03 0.  0.
        -24    2    3    3    0    0  0.33937855001E+01 -0.85933766535E+02 -0.86434171905E+03  0.87217646135E+03  0.78797477349E+02 0.  0.
          6    2    1    2  501    0 -0.22459416201E+02  0.51208904163E+02 -0.41093742959E+03  0.44955370832E+03  0.17349982243E+03 0.  0.
         24    2    5    5    0    0 -0.52318529178E+02  0.41021498926E+02 -0.12819360558E+03  0.16501634721E+03  0.79854883788E+02 0.  0.
          5    1    5    5  501    0  0.29859112977E+02  0.10187405237E+02 -0.28274382401E+03  0.28453736111E+03  0.47000000000E+01 0. -1.
        -13    1    6    6    0    0  0.89984661345E+01 -0.17066293082E+02 -0.27424123475E+02  0.33530781391E+02  0.00000000000E+00 0.  1.
         14    1    6    6    0    0 -0.61316995313E+02  0.58087792008E+02 -0.10076948211E+03  0.13148556582E+03  0.00000000000E+00 0. -1.
         -5    1    3    3    0  503  0.19065630701E+02  0.34724862373E+02 -0.10564199579E+03  0.11292314030E+03  0.47000000000E+01 0.  1.
         11    1    4    4    0    0  0.31200243416E+02 -0.82715942996E+02 -0.63139553124E+03  0.63755446770E+03  0.00000000000E+00 0. -1.
        -12    1    4    4    0    0 -0.27806457916E+02 -0.32178235393E+01 -0.23294618781E+03  0.23462199366E+03  0.00000000000E+00 0.  1.
</event>
<event>
12    1  0.8453150E-002  0.2536732E+03  0.7818608E-02  0.1111529E+00
         21   -1    0    0  501  502  0.00000000000E+00  0.00000000000E+00  0.19680446429E+03  0.19680446429E+03  0.00000000000E+00 0.  1.
         21   -1    0    0  502  503 -0.00000000000E+00 -0.00000000000E+00 -0.14037037030E+04  0.14037037030E+04  0.00000000000E+00 0. -1.
         -6    2    1    2    0  503 -0.58289817777E+02  0.17252622103E+03 -0.13048037718E+04  0.13285975240E+04  0.17174253422E+03 0.  0.
        -24    2    3    3    0    0 -0.40360941813E+02  0.14356132140E+02 -0.43036455305E+03  0.43977512390E+03  0.79708261363E+02 0.  0.
          6    2    1    2  501    0  0.58289817777E+02 -0.17252622103E+03  0.97904533163E+02  0.27191064323E+03  0.17659869900E+03 0.  0.
         24    2    5    5    0    0  0.73628504601E+02 -0.19478236951E+03  0.73448568042E+02  0.23515747073E+03  0.80888909806E+02 0.  0.
          5    1    5    5  501    0 -0.15338686825E+02  0.22256148481E+02  0.24455965120E+02  0.36753172498E+02  0.47000000000E+01 0. -1.
        -11    1    6    6    0    0 -0.54535624389E+01 -0.12819680992E+02  0.28503269443E+02  0.31725729825E+02  0.00000000000E+00 0.  1.
         12    1    6    6    0    0  0.79082067040E+02 -0.18196268852E+03  0.44945298599E+02  0.20343174091E+03  0.00000000000E+00 0. -1.
         -5    1    3    3    0  503 -0.17928875964E+02  0.15817008889E+03 -0.87443921878E+03  0.88882240012E+03  0.47000000000E+01 0.  1.
         11    1    4    4    0    0 -0.28748851617E+02  0.41576944500E+02 -0.35864414821E+03  0.36218885106E+03  0.00000000000E+00 0. -1.
        -12    1    4    4    0    0 -0.11612090196E+02 -0.27220812360E+02 -0.71720404835E+02  0.77586272844E+02  0.00000000000E+00 0.  1.
</event>
<event>
12    1  0.8453150E-002  0.1719619E+03  0.7818608E-02  0.1175943E+00
         21   -1    0    0  503  502  0.00000000000E+00  0.00000000000E+00  0.11503781493E+04  0.11503781493E+04  0.00000000000E+00 0.  1.
         21   -1    0    0  501  503 -0.00000000000E+00 -0.00000000000E+00 -0.15327044505E+03  0.15327044505E+03  0.00000000000E+00 0.  1.
          6    2    1    2  501    0 -0.52477560652E+01  0.79713785925E+01 -0.96392230652E+02  0.19671002644E+03  0.17120832501E+03 0.  0.
         24    2    3    3    0    0 -0.37266004836E+02  0.50134775178E+02 -0.10056039886E+03  0.14339601429E+03  0.80918306314E+02 0.  0.
         -6    2    1    2    0  502  0.52477560652E+01 -0.79713785925E+01  0.10934999349E+04  0.11069385679E+04  0.17169683650E+03 0.  0.
        -24    2    5    5    0    0  0.50541874880E+02  0.13265158094E+02  0.94992937059E+03  0.95482957860E+03  0.81260504105E+02 0.  0.
          5    1    3    3  501    0  0.32018248770E+02 -0.42163396585E+02  0.41681682051E+01  0.53314012155E+02  0.47000000000E+01 0. -1.
        -13    1    4    4    0    0 -0.47153705757E+02  0.85754185236E+01 -0.19449776783E+02  0.51723336961E+02  0.00000000000E+00 0.  1.
         14    1    4    4    0    0  0.98877009211E+01  0.41559356654E+02 -0.81110622075E+02  0.91672677327E+02  0.00000000000E+00 0. -1.
         -5    1    5    5    0  502 -0.45294118815E+02 -0.21236536687E+02  0.14357056428E+03  0.15210898927E+03  0.47000000000E+01 0.  1.
         11    1    6    6    0    0  0.53047830116E+02 -0.88589675106E+01  0.31859155786E+03  0.32309926389E+03  0.00000000000E+00 0. -1.
        -12    1    6    6    0    0 -0.25059552360E+01  0.22124125605E+02  0.63133781272E+03  0.63173031471E+03  0.00000000000E+00 0.  1.
</event>
<event>
12    1  0.8453150E-002  0.3635942E+03  0.7818608E-02  0.1057192E+00
         21   -1    0    0  501  502  0.00000000000E+00  0.00000000000E+00  0.17139307870E+04  0.17139307870E+04  0.00000000000E+00 0.  1.
         21   -1    0    0  502  503 -0.00000000000E+00 -0.00000000000E+00 -0.87133540416E+02  0.87133540416E+02  0.00000000000E+00 0. -1.
         -6    2    1    2    0  503  0.91790290121E+02  0.30693203160E+03  0.11189948730E+04  0.11765133105E+04  0.17146811533E+03 0.  0.
        -24    2    3    3    0    0  0.44710641362E+02  0.88692770767E+02  0.26713243414E+03  0.29586776713E+03  0.79451552657E+02 0.  0.
          6    2    1    2  501    0 -0.91790290121E+02 -0.30693203160E+03  0.50780237359E+03  0.62455101693E+03  0.17195346099E+03 0.  0.
         24    2    5    5    0    0 -0.17447180741E+02 -0.20432791330E+03  0.25587049143E+03  0.34251154052E+03  0.98945170370E+02 0.  0.
          5    1    5    5  501    0 -0.74343109380E+02 -0.10260411830E+03  0.25193188216E+03  0.28203947641E+03  0.47000000000E+01 0. -1.
        -11    1    6    6    0    0  0.37993512124E+02 -0.10825326919E+03  0.10716455403E+03  0.15699209819E+03  0.00000000000E+00 0.  1.
         12    1    6    6    0    0 -0.55440692865E+02 -0.96074644105E+02  0.14870593740E+03  0.18551944234E+03  0.00000000000E+00 0. -1.
         -5    1    3    3    0  503  0.47079648759E+02  0.21823926083E+03  0.85186243888E+03  0.88064554338E+03  0.47000000000E+01 0.  1.
         11    1    4    4    0    0  0.40211948000E+02  0.15644335429E+02  0.16283035718E+03  0.16845020395E+03  0.00000000000E+00 0. -1.
        -12    1    4    4    0    0  0.44986933619E+01  0.73048435338E+02  0.10430207696E+03  0.12741756317E+03  0.00000000000E+00 0.  1.
</event>
<event>
12    1  0.8453150E-002  0.1770029E+03  0.7818608E-02  0.1170834E+00
         21   -1    0    0  503  502  0.00000000000E+00  0.00000000000E+00  0.40346950337E+03  0.40346950337E+03  0.00000000000E+00 0. -1.
         21   -1    0    0  501  503 -0.00000000000E+00 -0.00000000000E+00 -0.24241278430E+03  0.24241278430E+03  0.00000000000E+00 0. -1.
          6    2    1    2  501    0  0.11227504957E+02  0.38766524419E+02  0.34693874526E+03  0.38948235954E+03  0.17234011473E+03 0.  0.
         24    2    3    3    0    0  0.74277015237E+01  0.92665452005E+02  0.23296216505E+03  0.26325920897E+03  0.79949884429E+02 0.  0.
         -6    2    1    2    0  502 -0.11227504957E+02 -0.38766524419E+02 -0.18588202619E+03  0.25639992814E+03  0.17192991364E+03 0.  0.
        -24    2    5    5    0    0  0.24749168156E+02  0.21813555122E+02 -0.15994354192E+03  0.18117252614E+03  0.78442304366E+02 0.  0.
          5    1    3    3  501    0  0.37998034329E+01 -0.53898927586E+02  0.11397658021E+03  0.12622315056E+03  0.47000000000E+01 0. -1.
        -11    1    4    4    0    0  0.42748349618E+02  0.51590378014E+02  0.10851609003E+03  0.12753325172E+03  0.00000000000E+00 0.  1.
         12    1    4    4    0    0 -0.35320648094E+02  0.41075073991E+02  0.12444607502E+03  0.13572595726E+03  0.00000000000E+00 0. -1.
         -5    1    5    5    0  502 -0.35976673112E+02 -0.60580079541E+02 -0.25938484277E+02  0.75227402002E+02  0.47000000000E+01 0.  1.
         11    1    6    6    0    0  0.31372759068E+02  0.37134295011E+02 -0.49153727282E+02  0.69132443782E+02  0.00000000000E+00 0. -1.
        -12    1    6    6    0    0 -0.66235909122E+01 -0.15320739889E+02 -0.11078981463E+03  0.11204008235E+03  0.00000000000E+00 0.  1.
</event>
<event>
12    1  0.8453150E-002  0.1813149E+03  0.7818608E-02  0.1166671E+00
         21   -1    0    0  501  502  0.00000000000E+00  0.00000000000E+00  0.13907999276E+04  0.13907999276E+04  0.00000000000E+00 0.  1.
         21   -1    0    0  502  503 -0.00000000000E+00 -0.00000000000E+00 -0.40563482597E+02  0.40563482597E+02  0.00000000000E+00 0.  1.
         -6    2    1    2    0  503  0.38862581819E+02 -0.41761881708E+02  0.21121632806E+03  0.27800227313E+03  0.17151842932E+03 0.  0.
        -24    2    3    3    0    0  0.64098192117E+02  0.27343819048E+02  0.14558645838E+03  0.17930169715E+03  0.78085972268E+02 0.  0.
          6    2    1    2  501    0 -0.38862581819E+02  0.41761881708E+02  0.11390201169E+04  0.11533611371E+04  0.17210674208E+03 0.  0.
         24    2    5    5    0    0 -0.70731165083E+02 -0.21925410720E+02  0.46272734315E+03  0.47331284194E+03  0.66519402441E+02 0.  0.
          5    1    5    5  501    0  0.31868583264E+02  0.63687292428E+02  0.67629277380E+03  0.68004829513E+03  0.47000000000E+01 0. -1.
        -11    1    6    6    0    0 -0.17342922349E+02  0.22518821056E+02  0.98437479322E+02  0.10245882877E+03  0.00000000000E+00 0.  1.
         12    1    6    6    0    0 -0.53388242734E+02 -0.44444231776E+02  0.36428986382E+03  0.37085401317E+03  0.00000000000E+00 0. -1.
         -5    1    3    3    0  503 -0.25235610297E+02 -0.69105700756E+02  0.65629869681E+02  0.98700575978E+02  0.47000000000E+01 0.  1.
         11    1    4    4    0    0  0.63278931159E+02 -0.46839465487E+01  0.12773258171E+03  0.14262459435E+03  0.00000000000E+00 0. -1.
        -12    1    4    4    0    0  0.81926095772E+00  0.32027765597E+02  0.17853876671E+02  0.36677102800E+02  0.00000000000E+00 0.  1.
</event>
<event>
12    1  0.8453150E-002  0.2124007E+03  0.7818608E-02  0.1140194E+00
         21   -1    0    0  503  502  0.00000000000E+00  0.00000000000E+00  0.27718501069E+03  0.27718501069E+03  0.00000000000E+00 0. -1.
         21   -1    0    0  501  503 -0.00000000000E+00 -0.00000000000E+00 -0.22391177271E+03  0.22391177271E+03  0.00000000000E+00 0. -1.
          6    2    1    2  501    0 -0.12070346585E+03  0.33013798153E+02 -0.10630909569E+03  0.23751986810E+03  0.17162408450E+03 0.  0.
         24    2    3    3    0    0 -0.24002940312E+02  0.66370521918E+02 -0.29830645620E+02  0.10971256790E+03  0.78522562450E+02 0.  0.
         -6    2    1    2    0  502  0.12070346585E+03 -0.33013798153E+02  0.15958233366E+03  0.26357691530E+03  0.16836576708E+03 0.  0.
        -24    2    5    5    0    0  0.75518609885E+02  0.20648068684E+02  0.29875753090E+02  0.11603995652E+03  0.80270216812E+02 0.  0.
          5    1    3    3  501    0 -0.96700525536E+02 -0.33356723765E+02 -0.76478450073E+02  0.12780730020E+03  0.47000000000E+01 0. -1.
        -13    1    4    4    0    0 -0.91003560995E+01  0.19571659412E+02 -0.51643338448E+02  0.55972321189E+02  0.00000000000E+00 0.  1.
         14    1    4    4    0    0 -0.14902584212E+02  0.46798862506E+02  0.21812692828E+02  0.53740246710E+02  0.00000000000E+00 0. -1.
         -5    1    5    5    0  502  0.45184855963E+02 -0.53661866837E+02  0.12970658057E+03  0.14753695878E+03  0.47000000000E+01 0.  1.
         13    1    6    6    0    0  0.27890142028E+02 -0.22039526983E+02  0.37450135282E+02  0.51634420735E+02  0.00000000000E+00 0. -1.
        -14    1    6    6    0    0  0.47628467857E+02  0.42687595666E+02 -0.75743821923E+01  0.64405535785E+02  0.00000000000E+00 0.  1.
</event>
<event>
12    1  0.8453150E-002  0.3856019E+03  0.7818608E-02  0.1049004E+00
         21   -1    0    0  501  502  0.00000000000E+00  0.00000000000E+00  0.81461127591E+03  0.81461127591E+03  0.00000000000E+00 0. -1.
         21   -1    0    0  502  503 -0.00000000000E+00 -0.00000000000E+00 -0.21791480063E+03  0.21791480063E+03  0.00000000000E+00 0.  1.
         -6    2    1    2    0  503  0.20839002829E+03 -0.27321342924E+03  0.50781033638E+03  0.63681211807E+03  0.17200684339E+03 0.  0.
        -24    2    3    3    0    0  0.12836533430E+03 -0.23869334968E+03  0.45234682858E+03  0.53340090863E+03  0.80291355463E+02 0.  0.
          6    2    1    2  501    0 -0.20839002829E+03  0.27321342924E+03  0.88886138904E+02  0.39571395847E+03  0.17497659680E+03 0.  0.
         24    2    5    5    0    0 -0.21546276082E+02  0.66888927331E+02  0.97041649474E+01  0.10627957415E+03  0.79137895163E+02 0.  0.
          5    1    5    5  501    0 -0.18684375221E+03  0.20632450191E+03  0.79181973956E+02  0.28943438432E+03  0.47000000000E+01 0. -1.
        -13    1    6    6    0    0 -0.30934102906E+02  0.25327428085E+02 -0.28462486594E+02  0.49076577704E+02  0.00000000000E+00 0.  1.
         14    1    6    6    0    0  0.93878268238E+01  0.41561499246E+02  0.38166651542E+02  0.57202996442E+02  0.00000000000E+00 0. -1.
         -5    1    3    3    0  503  0.80024693993E+02 -0.34520079561E+02  0.55463507802E+02  0.10341120945E+03  0.47000000000E+01 0.  1.
         13    1    4    4    0    0  0.70982449070E+02 -0.17633546273E+03  0.25026067557E+03  0.31426598484E+03  0.00000000000E+00 0. -1.
        -14    1    4    4    0    0  0.57382885232E+02 -0.62357886951E+02  0.20208615301E+03  0.21913492378E+03  0.00000000000E+00 0.  1.
</event>
<event>
12    1  0.8453150E-002  0.2346520E+03  0.7818608E-02  0.1123741E+00
         21   -1    0    0  501  502  0.00000000000E+00  0.00000000000E+00  0.12620961250E+03  0.12620961250E+03  0.00000000000E+00 0. -1.
         21   -1    0    0  502  503 -0.00000000000E+00 -0.00000000000E+00 -0.45645170290E+03  0.45645170290E+03  0.00000000000E+00 0.  1.
         -6    2    1    2    0  503 -0.43835346221E+02 -0.15028764874E+03 -0.23095122830E+03  0.32786681250E+03  0.17219251420E+03 0.  0.
        -24    2    3    3    0    0 -0.20130880752E+02 -0.18386457979E+02 -0.37292337168E+02  0.92312823106E+02  0.79922616959E+02 0.  0.
          6    2    1    2  501    0  0.43835346221E+02  0.15028764874E+03 -0.99290862106E+02  0.25479450289E+03  0.17479601959E+03 0.  0.
         24    2    5    5    0    0  0.69929628249E+02  0.67929055384E+02 -0.11863887043E+03  0.16613625522E+03  0.63415804426E+02 0.  0.
          5    1    5    5  501    0 -0.26094282028E+02  0.82358593356E+02  0.19348008320E+02  0.88658247671E+02  0.47000000000E+01 0. -1.
        -13    1    6    6    0    0 -0.56853933305E+01  0.55753356770E+01 -0.39132656555E+02  0.39934607477E+02  0.00000000000E+00 0.  1.
         14    1    6    6    0    0  0.75615021580E+02  0.62353719707E+02 -0.79506213871E+02  0.12620164775E+03  0.00000000000E+00 0. -1.
         -5    1    3    3    0  503 -0.23704465470E+02 -0.13190119076E+03 -0.19365889113E+03  0.23555398940E+03  0.47000000000E+01 0.  1.
         11    1    4    4    0    0 -0.36037457008E+02 -0.53727469575E+01 -0.54466483140E+02  0.65529859629E+02  0.00000000000E+00 0. -1.
        -12    1    4    4    0    0  0.15906576256E+02 -0.13013711021E+02  0.17174145972E+02  0.26782963477E+02  0.00000000000E+00 0.  1.
</event>
<event>
12    1  0.8453150E-002  0.2118312E+03  0.7818608E-02  0.1140496E+00
         21   -1    0    0  503  502  0.00000000000E+00  0.00000000000E+00  0.17605160152E+04  0.17605160152E+04  0.00000000000E+00 0. -1.
         21   -1    0    0  501  503 -0.00000000000E+00 -0.00000000000E+00 -0.36049824304E+02  0.36049824304E+02  0.00000000000E+00 0. -1.
          6    2    1    2  501    0 -0.11481062171E+03  0.43172084644E+02  0.36812290467E+03  0.42378051515E+03  0.17038234746E+03 0.  0.
         24    2    3    3    0    0 -0.67908021343E+02  0.29287474100E+02  0.35740984986E+03  0.37348642132E+03  0.79253079616E+02 0.  0.
         -6    2    1    2    0  502  0.11481062171E+03 -0.43172084644E+02  0.13563432862E+04  0.13727853243E+04  0.17270532397E+03 0.  0.
        -24    2    5    5    0    0  0.55061473338E+01 -0.40549989506E+02  0.84921424025E+03  0.85398256533E+03  0.80291822342E+02 0.  0.
          5    1    3    3  501    0 -0.46902600367E+02  0.13884610544E+02  0.10713054812E+02  0.50294093834E+02  0.47000000000E+01 0. -1.
        -11    1    4    4    0    0  0.49066858292E+01 -0.15559660270E+02  0.22262915391E+02  0.27601014388E+02  0.00000000000E+00 0.  1.
         12    1    4    4    0    0 -0.72814707172E+02  0.44847134370E+02  0.33514693447E+03  0.34588540693E+03  0.00000000000E+00 0. -1.
         -5    1    5    5    0  502  0.10930447438E+03 -0.26220951379E+01  0.50712904592E+03  0.51880275897E+03  0.47000000000E+01 0.  1.
         13    1    6    6    0    0  0.12933545719E+02 -0.51430439991E+02  0.30275372976E+03  0.30736328285E+03  0.00000000000E+00 0. -1.
        -14    1    6    6    0    0 -0.74273983851E+01  0.10880450485E+02  0.54646051050E+03  0.54661928248E+03  0.00000000000E+00 0.  1.
</event>
<event>
12    1  0.8453150E-002  0.2238762E+03  0.7818608E-02  0.1131060E+00
         21   -1    0    0  503  502  0.00000000000E+00  0.00000000000E+00  0.25951079504E+03  0.25951079504E+03  0.00000000000E+00 0. -1.
         21   -1    0    0  501  503 -0.00000000000E+00 -0.00000000000E+00 -0.13514852166E+04  0.13514852166E+04  0.00000000000E+00 0. -1.
          6    2    1    2  501    0 -0.14109605913E+03  0.28382975846E+02 -0.12917981269E+04  0.13110541427E+04  0.17148432376E+03 0.  0.
         24    2    3    3    0    0 -0.22708807399E+02 -0.29026199224E+01 -0.45075005753E+03  0.46112574877E+03  0.94536906438E+02 0.  0.
         -6    2    1    2    0  502  0.14109605913E+03 -0.28382975846E+02  0.19982370532E+03  0.29994186892E+03  0.17123644562E+03 0.  0.
        -24    2    5    5    0    0  0.37213403124E+02 -0.41996673604E+02  0.17542082068E+03  0.19226397071E+03  0.55176191777E+02 0.  0.
          5    1    3    3  501    0 -0.11838725173E+03  0.31285595768E+02 -0.84104806937E+03  0.84992839396E+03  0.47000000000E+01 0. -1.
        -13    1    4    4    0    0  0.24136313537E+02 -0.33515428562E+02 -0.18872511283E+03  0.19319165043E+03  0.00000000000E+00 0.  1.
         14    1    4    4    0    0 -0.46845120936E+02  0.30612808640E+02 -0.26202494470E+03  0.26793409834E+03  0.00000000000E+00 0. -1.
         -5    1    5    5    0  502  0.10388265600E+03  0.13613697758E+02  0.24402884636E+02  0.10767789821E+03  0.47000000000E+01 0.  1.
         13    1    6    6    0    0 -0.70598990063E+01 -0.22762986466E+02  0.99365169947E+02  0.10218332900E+03  0.00000000000E+00 0. -1.
        -14    1    6    6    0    0  0.44273302130E+02 -0.19233687138E+02  0.76055650735E+02  0.90080641711E+02  0.00000000000E+00 0.  1.
</event>
<event>
12    1  0.8453150E-002  0.3011913E+03  0.7818608E-02  0.1084681E+00
         21   -1    0    0  503  502  0.00000000000E+00  0.00000000000E+00  0.55833900651E+03  0.55833900651E+03  0.00000000000E+00 0.  1.
         21   -1    0    0  501  503 -0.00000000000E+00 -0.00000000000E+00 -0.16467279680E+03  0.16467279680E+03  0.00000000000E+00 0.  1.
          6    2    1    2  501    0  0.22431338827E+03 -0.10486024887E+03  0.23989624130E+03  0.38483816376E+03  0.17099133821E+03 0.  0.
         24    2    3    3    0    0  0.74565986459E+02  0.64898368493E+01  0.12431162557E+03  0.16528174883E+03  0.79135781585E+02 0.  0.
         -6    2    1    2    0  502 -0.22431338827E+03  0.10486024887E+03  0.15376996842E+03  0.33817363955E+03  0.17147606057E+03 0.  0.
        -24    2    5    5    0    0 -0.21873317985E+03  0.45105811650E+02  0.14198464701E+03  0.27683266389E+03  0.81227739105E+02 0.  0.
          5    1    3    3  501    0  0.14974740181E+03 -0.11135008572E+03  0.11558461573E+03  0.21955641492E+03  0.47000000000E+01 0. -1.
        -11    1    4    4    0    0  0.50284808671E+02  0.41795832348E+02  0.84011517562E+02  0.10645838937E+03  0.00000000000E+00 0.  1.
         12    1    4    4    0    0  0.24281177788E+02 -0.35305995499E+02  0.40300108006E+02  0.58823359460E+02  0.00000000000E+00 0. -1.
         -5    1    5    5    0  502 -0.55802084191E+01  0.59754437223E+02  0.11785321407E+02  0.61340975657E+02  0.47000000000E+01 0.  1.
         13    1    6    6    0    0 -0.60733351016E+02  0.24452829441E+02  0.85685311040E+02  0.10783530647E+03  0.00000000000E+00 0. -1.
        -14    1    6    6    0    0 -0.15799982884E+03  0.20652982210E+02  0.56299335969E+02  0.16899735743E+03  0.00000000000E+00 0.  1.
</event>
<event>
12    1  0.8453150E-002  0.1731705E+03  0.7818608E-02  0.1174721E+00
         21   -1    0    0  503  502  0.00000000000E+00  0.00000000000E+00  0.24156414188E+03  0.24156414188E+03  0.00000000000E+00 0. -1.
         21   -1    0    0  501  503 -0.00000000000E+00 -0.00000000000E+00 -0.26246099728E+03  0.26246099728E+03  0.00000000000E+00 0. -1.
          6    2    1    2  501    0 -0.17136130435E+02  0.18685776837E+02 -0.19366566064E+03  0.25979683963E+03  0.17130442070E+03 0.  0.
         24    2    3    3    0    0  0.39116008106E+02  0.41162580560E+02 -0.64652689404E+02  0.11719267930E+03  0.79559623597E+02 0.  0.
         -6    2    1    2    0  502  0.17136130435E+02 -0.18685776837E+02  0.17276880525E+03  0.24422829952E+03  0.17075010103E+03 0.  0.
        -24    2    5    5    0    0  0.24719246465E+02 -0.74190471187E+02  0.13896192165E+03  0.17862898457E+03  0.80514789326E+02 0.  0.
          5    1    3    3  501    0 -0.56252138541E+02 -0.22476803722E+02 -0.12901297124E+03  0.14260416033E+03  0.47000000000E+01 0. -1.
        -13    1    4    4    0    0  0.43229812811E+02 -0.68707710663E+01 -0.11141969803E+02  0.45168215615E+02  0.00000000000E+00 0.  1.
         14    1    4    4    0    0 -0.41138047053E+01  0.48033351626E+02 -0.53510719600E+02  0.72024463689E+02  0.00000000000E+00 0. -1.
         -5    1    5    5    0  502 -0.75831160304E+01  0.55504694350E+02  0.33806883597E+02  0.65599314952E+02  0.47000000000E+01 0.  1.
         11    1    6    6    0    0  0.93361279365E+01 -0.41891874454E+02  0.13613750154E+03  0.14274281683E+03  0.00000000000E+00 0. -1.
        -12    1    6    6    0    0  0.15383118529E+02 -0.32298596733E+02  0.28244201103E+01  0.35886167747E+02  0.00000000000E+00 0.  1.
</event>
<event>
12    1  0.8453150E-002  0.1807111E+03  0.7818608E-02  0.1168368E+00
         21   -1    0    0  501  502  0.00000000000E+00  0.00000000000E+00  0.12028064668E+04  0.12028064668E+04  0.00000000000E+00 0.  1.
         21   -1    0    0  502  503 -0.00000000000E+00 -0.00000000000E+00 -0.26666356659E+02  0.26666356659E+02  0.00000000000E+00 0.  1.
         -6    2    1    2    0  503 -0.31190920940E+02  0.14857161143E+02  0.65938826815E+03  0.68370270012E+03  0.17737780354E+03 0.  0.
        -24    2    3    3    0    0 -0.95667306885E+01  0.74549680828E+02  0.33267044858E+03  0.35084022681E+03  0.82280375210E+02 0.  0.
          6    2    1    2  501    0  0.31190920940E+02 -0.14857161143E+02  0.51675184203E+03  0.54577012338E+03  0.17215967166E+03 0.  0.
         24    2    5    5    0    0  0.53096490262E+02  0.46117263472E+02  0.36214950674E+03  0.37807484467E+03  0.82718097599E+02 0.  0.
          5    1    5    5  501    0 -0.21905569323E+02 -0.60974424615E+02  0.15460233529E+03  0.16769527871E+03  0.47000000000E+01 0. -1.
        -13    1    6    6    0    0  0.19863822982E+02 -0.55280609140E+01  0.24443456072E+03  0.24530264041E+03  0.00000000000E+00 0.  1.
         14    1    6    6    0    0  0.33232667280E+02  0.51645324386E+02  0.11771494603E+03  0.13277220426E+03  0.00000000000E+00 0. -1.
         -5    1    3    3    0  503 -0.21624190251E+02 -0.59692519685E+02  0.32671781957E+03  0.33286247331E+03  0.47000000000E+01 0.  1.
         11    1    4    4    0    0 -0.23576870340E+02  0.87256508894E+02  0.29722214064E+03  0.31066150075E+03  0.00000000000E+00 0. -1.
        -12    1    4    4    0    0  0.14010139651E+02 -0.12706828066E+02  0.35448307936E+02  0.40178726063E+02  0.00000000000E+00 0.  1.
</event>
<event>
12    1  0.8453150E-002  0.2497177E+03  0.7818608E-02  0.1114370E+00
         21   -1    0    0  501  502  0.00000000000E+00  0.00000000000E+00  0.26613694249E+03  0.26613694249E+03  0.00000000000E+00 0.  1.
         21   -1    0    0  502  503 -0.00000000000E+00 -0.00000000000E+00 -0.23047546814E+03  0.23047546814E+03  0.00000000000E+00 0.  1.
         -6    2    1    2    0  503 -0.77903918741E+02  0.15390585438E+03 -0.12125350405E+01  0.24418694614E+03  0.17282870668E+03 0.  0.
        -24    2    3    3    0    0  0.71111938639E+01  0.69119892157E+02  0.44451367475E+02  0.11564313744E+03  0.81051111011E+02 0.  0.
          6    2    1    2  501    0  0.77903918741E+02 -0.15390585438E+03  0.36874009390E+02  0.25242546450E+03  0.18056270376E+03 0.  0.
         24    2    5    5    0    0  0.11481263739E+03 -0.13784259770E+03 -0.76303954891E+01  0.19223398851E+03  0.68652457780E+02 0.  0.
          5    1    5    5  501    0 -0.36908718648E+02 -0.16063256688E+02  0.44504404879E+02  0.60191475985E+02  0.47000000000E+01 0. -1.
        -13    1    6    6    0    0  0.56483637338E+02 -0.98413954940E+02  0.22452416277E+02  0.11567116672E+03  0.00000000000E+00 0.  1.
         14    1    6    6    0    0  0.58329000051E+02 -0.39428642756E+02 -0.30082811766E+02  0.76562821789E+02  0.00000000000E+00 0. -1.
         -5    1    3    3    0  503 -0.85015112605E+02  0.84785962227E+02 -0.45663902515E+02  0.12854380870E+03  0.47000000000E+01 0.  1.
         13    1    4    4    0    0  0.24685009592E+02 -0.92192352356E+01  0.86235067683E+01  0.27725599468E+02  0.00000000000E+00 0. -1.
        -14    1    4    4    0    0 -0.17573815728E+02  0.78339127392E+02  0.35827860706E+02  0.87917537970E+02  0.00000000000E+00 0.  1.
</event>
<event>
12    1  0.8453150E-002  0.1894706E+03  0.7818608E-02  0.1160361E+00
         21   -1    0    0  503  502  0.00000000000E+00  0.00000000000E+00  0.87637392851E+03  0.87637392851E+03  0.00000000000E+00 0.  1.
         21   -1    0    0  501  503 -0.00000000000E+00 -0.00000000000E+00 -0.81647652183E+02  0.81647652183E+02  0.00000000000E+00 0.  1.
          6    2    1    2  501    0  0.28134805270E+02  0.74206282206E+02  0.56991603588E+02  0.19785642131E+03  0.17204935626E+03 0.  0.
         24    2    3    3    0    0  0.84802875056E+02  0.52439405803E+02  0.27755398522E+02  0.13031448820E+03  0.79183866981E+02 0.  0.
         -6    2    1    2    0  502 -0.28134805270E+02 -0.74206282206E+02  0.73773467274E+03  0.76016515938E+03  0.16522857678E+03 0.  0.
        -24    2    5    5    0    0  0.19643683663E+02 -0.81746193467E+01  0.19518075600E+03  0.21150332630E+03  0.78647509913E+02 0.  0.
          5    1    3    3  501    0 -0.56668069786E+02  0.21766876404E+02  0.29236205065E+02  0.67541933110E+02  0.47000000000E+01 0. -1.
        -11    1    4    4    0    0  0.54472204433E+02  0.61566559296E+02 -0.79455006109E+01  0.82588093932E+02  0.00000000000E+00 0.  1.
         12    1    4    4    0    0  0.30330670623E+02 -0.91271534935E+01  0.35700899133E+02  0.47726394272E+02  0.00000000000E+00 0. -1.
         -5    1    5    5    0  502 -0.47778488933E+02 -0.66031662859E+02  0.54255391674E+03  0.54866183307E+03  0.47000000000E+01 0.  1.
         13    1    6    6    0    0  0.16904798020E+02 -0.29140560670E+02  0.30418067048E+02  0.45389462160E+02  0.00000000000E+00 0. -1.
        -14    1    6    6    0    0  0.27388856435E+01  0.20965941323E+02  0.16476268895E+03  0.16611386414E+03  0.00000000000E+00 0.  1.
</event>
<event>
12    1  0.8453150E-002  0.3833219E+03  0.7818608E-02  0.1049732E+00
         21   -1    0    0  501  502  0.00000000000E+00  0.00000000000E+00  0.14779098022E+03  0.14779098022E+03  0.00000000000E+00 0.  1.
         21   -1    0    0  502  503 -0.00000000000E+00 -0.00000000000E+00 -0.14590099919E+04  0.14590099919E+04  0.00000000000E+00 0. -1.
         -6    2    1    2    0  503  0.28868547779E+03 -0.18499687664E+03 -0.11094571442E+04  0.11738103823E+04  0.17138409863E+03 0.  0.
        -24    2    3    3    0    0  0.28159544435E+03 -0.11780115811E+03 -0.91800117500E+03  0.97072662787E+03  0.80068230961E+02 0.  0.
          6    2    1    2  501    0 -0.28868547779E+03  0.18499687664E+03 -0.20176186744E+03  0.43299058981E+03  0.17090889460E+03 0.  0.
         24    2    5    5    0    0 -0.21995968308E+03  0.19464988911E+03 -0.12404946569E+03  0.32869426727E+03  0.79879971761E+02 0.  0.
          5    1    5    5  501    0 -0.68725794709E+02 -0.96530124654E+01 -0.77712401757E+02  0.10429632254E+03  0.47000000000E+01 0. -1.
        -11    1    6    6    0    0 -0.17661351066E+03  0.11412675076E+03 -0.10598521308E+03  0.23547847626E+03  0.00000000000E+00 0.  1.
         12    1    6    6    0    0 -0.43346172417E+02  0.80523138343E+02 -0.18064252607E+02  0.93215791012E+02  0.00000000000E+00 0. -1.
         -5    1    3    3    0  503  0.70900334383E+01 -0.67195718533E+02 -0.19145596919E+03  0.20308375440E+03  0.47000000000E+01 0.  1.
         11    1    4    4    0    0  0.23158243265E+03 -0.61493253962E+02 -0.67089997815E+03  0.71240341385E+03  0.00000000000E+00 0. -1.
        -12    1    4    4    0    0  0.50013011698E+02 -0.56307904145E+02 -0.24710119686E+03  0.25832321401E+03  0.00000000000E+00 0.  1.
</event>
<event>
12    1  0.8453150E-002  0.2050682E+03  0.7818608E-02  0.1145783E+00
         21   -1    0    0  503  502  0.00000000000E+00  0.00000000000E+00  0.20823133740E+03  0.20823133740E+03  0.00000000000E+00 0. -1.
         21   -1    0    0  501  503 -0.00000000000E+00 -0.00000000000E+00 -0.20114176505E+03  0.20114176505E+03  0.00000000000E+00 0. -1.
          6    2    1    2  501    0 -0.80889414167E+02  0.73609903984E+02 -0.55402830240E+01  0.20391634913E+03  0.17201647426E+03 0.  0.
         24    2    3    3    0    0 -0.10048615563E+03  0.56331498700E+02  0.43746371073E+02  0.14793563962E+03  0.81856601859E+02 0.  0.
         -6    2    1    2    0  502  0.80889414167E+02 -0.73609903984E+02  0.12629855378E+02  0.20545675331E+03  0.17346887025E+03 0.  0.
        -24    2    5    5    0    0 -0.18657388083E+02 -0.65258396365E+02  0.13422494975E+02  0.10544659485E+03  0.79574270770E+02 0.  0.
          5    1    3    3  501    0  0.19596741466E+02  0.17278405284E+02 -0.49286654097E+02  0.55980709510E+02  0.47000000000E+01 0. -1.
        -13    1    4    4    0    0  0.13890244364E+02  0.26348586927E+01  0.94655121074E+01  0.17014032099E+02  0.00000000000E+00 0.  1.
         14    1    4    4    0    0 -0.11437640000E+03  0.53696640007E+02  0.34280858965E+02  0.13092160752E+03  0.00000000000E+00 0. -1.
         -5    1    5    5    0  502  0.99546802250E+02 -0.83515076186E+01 -0.79263959665E+00  0.10001015846E+03  0.47000000000E+01 0.  1.
         11    1    6    6    0    0  0.30796959936E+02 -0.23511964928E+02 -0.24049719348E+01  0.38820730623E+02  0.00000000000E+00 0. -1.
        -12    1    6    6    0    0 -0.49454348019E+02 -0.41746431438E+02  0.15827466909E+02  0.66625864231E+02  0.00000000000E+00 0.  1.
</event>
<event>
12    1  0.8453150E-002  0.2030945E+03  0.7818608E-02  0.1147766E+00
         21   -1    0    0  503  502  0.00000000000E+00  0.00000000000E+00  0.17552280952E+02  0.17552280952E+02  0.00000000000E+00 0.  1.
         21   -1    0    0  501  503 -0.00000000000E+00 -0.00000000000E+00 -0.23213578840E+04  0.23213578840E+04  0.00000000000E+00 0. -1.
          6    2    1    2  501    0  0.91272962948E+02  0.46649911873E+02 -0.11990393775E+04  0.12156311353E+04  0.17192050627E+03 0.  0.
         24    2    3    3    0    0  0.12125708400E+03  0.53746772871E+02 -0.75742749406E+03  0.77292066730E+03  0.78217345751E+02 0.  0.
         -6    2    1    2    0  502 -0.91272962948E+02 -0.46649911873E+02 -0.11047662256E+04  0.11232790296E+04  0.17532939603E+03 0.  0.
        -24    2    5    5    0    0 -0.83079178465E+02 -0.57924521199E+02 -0.11003753331E+04  0.11079289529E+04  0.80145435218E+02 0.  0.
          5    1    3    3  501    0 -0.29984121048E+02 -0.70968609977E+01 -0.44161188339E+03  0.44271046803E+03  0.47000000000E+01 0. -1.
        -11    1    4    4    0    0  0.74970358752E+02  0.53951520727E+01 -0.54603439786E+03  0.55118347762E+03  0.00000000000E+00 0.  1.
         12    1    4    4    0    0  0.46286725244E+02  0.48351620798E+02 -0.21139309620E+03  0.22173718969E+03  0.00000000000E+00 0. -1.
         -5    1    5    5    0  502 -0.81937844828E+01  0.11274609327E+02 -0.43908924678E+01  0.15350076752E+02  0.47000000000E+01 0.  1.
         11    1    6    6    0    0 -0.84918337248E+02 -0.71070156004E+02 -0.10504052360E+04  0.10562259469E+04  0.00000000000E+00 0. -1.
        -12    1    6    6    0    0  0.18391587823E+01  0.13145634805E+02 -0.49970097164E+02  0.51703006006E+02  0.00000000000E+00 0.  1.
</event>
<event>
12    1  0.8453150E-002  0.1969195E+03  0.7818608E-02  0.1152827E+00
         21   -1    0    0  501  502  0.00000000000E+00  0.00000000000E+00  0.10038430807E+03  0.10038430807E+03  0.00000000000E+00 0.  1.
         21   -1    0    0  502  503 -0.00000000000E+00 -0.00000000000E+00 -0.42267005070E+03  0.42267005070E+03  0.00000000000E+00 0.  1.
         -6    2    1    2    0  503 -0.14959151953E+02 -0.88274852094E+02 -0.24136559288E+03  0.31015684197E+03  0.17298465670E+03 0.  0.
        -24    2    3    3    0    0  0.27561327641E+02 -0.30649256455E+02 -0.57358512846E+02  0.11264887767E+03  0.87754013823E+02 0.  0.
          6    2    1    2  501    0  0.14959151953E+02  0.88274852094E+02 -0.80920149749E+02  0.21289751680E+03  0.17538830145E+03 0.  0.
         24    2    5    5    0    0  0.49102489169E+02  0.84944172606E+02 -0.27676372679E+01  0.12741789286E+03  0.81247108886E+02 0.  0.
          5    1    5    5  501    0 -0.34143337216E+02  0.33306794877E+01 -0.78152512481E+02  0.85479623941E+02  0.47000000000E+01 0. -1.
        -11    1    6    6    0    0  0.70895622437E+02  0.75593287246E+02 -0.10604215945E+01  0.10364197437E+03  0.00000000000E+00 0.  1.
         12    1    6    6    0    0 -0.21793133268E+02  0.93508853607E+01 -0.17072156734E+01  0.23775918490E+02  0.00000000000E+00 0. -1.
         -5    1    3    3    0  503 -0.42520479594E+02 -0.57625595639E+02 -0.18400708004E+03  0.19750796430E+03  0.47000000000E+01 0.  1.
         13    1    4    4    0    0 -0.18438295092E+02  0.20814666614E+02 -0.19039426887E+02  0.33700457687E+02  0.00000000000E+00 0. -1.
        -14    1    4    4    0    0  0.45999622733E+02 -0.51463923069E+02 -0.38319085959E+02  0.78948419984E+02  0.00000000000E+00 0.  1.
</event>
<event>
12    1  0.8453150E-002  0.1884272E+03  0.7818608E-02  0.1160896E+00
         21   -1    0    0  503  502  0.00000000000E+00  0.00000000000E+00  0.30343730009E+03  0.30343730009E+03  0.00000000000E+00 0.  1.
         21   -1    0    0  501  503 -0.00000000000E+00 -0.00000000000E+00 -0.12254529742E+03  0.12254529742E+03  0.00000000000E+00 0.  1.
          6    2    1    2  501    0 -0.58131852178E+02  0.29126335200E+02  0.34249082939E+02  0.18721708041E+03  0.17219053364E+03 0.  0.
         24    2    3    3    0    0 -0.21893370445E+02  0.10707071126E+02 -0.47437301171E+02  0.95853782545E+02  0.79647278951E+02 0.  0.
         -6    2    1    2    0  502  0.58131852178E+02 -0.29126335200E+02  0.14664291973E+03  0.23876551710E+03  0.17685352868E+03 0.  0.
        -24    2    5    5    0    0  0.49150705105E+02 -0.24630500162E+02  0.70248099914E+01  0.98707742934E+02  0.81678743925E+02 0.  0.
          5    1    3    3  501    0 -0.36238481734E+02  0.18419264074E+02  0.81686384111E+02  0.91363297863E+02  0.47000000000E+01 0. -1.
        -11    1    4    4    0    0 -0.18179626469E+02 -0.13391466171E+02 -0.63002333076E+02  0.66926259105E+02  0.00000000000E+00 0.  1.
         12    1    4    4    0    0 -0.37137439755E+01  0.24098537297E+02  0.15565031905E+02  0.28927523440E+02  0.00000000000E+00 0. -1.
         -5    1    5    5    0  502  0.89811470731E+01 -0.44958350383E+01  0.13961810974E+03  0.14005777416E+03  0.47000000000E+01 0.  1.
         11    1    6    6    0    0  0.16479521713E+02  0.23522785619E+02  0.24711418597E+02  0.37888656458E+02  0.00000000000E+00 0. -1.
        -12    1    6    6    0    0  0.32671183393E+02 -0.48153285780E+02 -0.17686608606E+02  0.60819086475E+02  0.00000000000E+00 0.  1.
</event>
<event>
12    1  0.8453150E-002  0.2079778E+03  0.7818608E-02  0.1143586E+00
         21   -1    0    0  503  502  0.00000000000E+00  0.00000000000E+00  0.85642233545E+03  0.85642233545E+03  0.00000000000E+00 0.  1.
         21   -1    0    0  501  503 -0.00000000000E+00 -0.00000000000E+00 -0.70673320111E+02  0.70673320111E+02  0.00000000000E+00 0.  1.
          6    2    1    2  501    0 -0.43818605971E+02  0.10341357904E+03  0.14089349006E+03  0.24953132948E+03  0.17262812718E+03 0.  0.
         24    2    3    3    0    0  0.68076997038E+01  0.10465795691E+03  0.14728211468E+03  0.19827241975E+03  0.81365216220E+02 0.  0.
         -6    2    1    2    0  502  0.43818605971E+02 -0.10341357904E+03  0.64485552528E+03  0.67756432607E+03  0.17504379146E+03 0.  0.
        -24    2    5    5    0    0  0.93714373759E+02 -0.90296260872E+02  0.42366413791E+03  0.45038736526E+03  0.80135375832E+02 0.  0.
          5    1    3    3  501    0 -0.50626305675E+02 -0.12443778673E+01 -0.63886246190E+01  0.51258909734E+02  0.47000000000E+01 0. -1.
        -11    1    4    4    0    0 -0.10730375728E+02  0.95562877647E+01 -0.71585015793E+01  0.16053278293E+02  0.00000000000E+00 0.  1.
         12    1    4    4    0    0  0.17538075432E+02  0.95101669142E+02  0.15444061626E+03  0.18221914146E+03  0.00000000000E+00 0. -1.
         -5    1    5    5    0  502 -0.49895767788E+02 -0.13117318167E+02  0.22119138737E+03  0.22717696081E+03  0.47000000000E+01 0.  1.
         11    1    6    6    0    0  0.13291207139E+02  0.56823768706E+01  0.13450874629E+03  0.13528321560E+03  0.00000000000E+00 0. -1.
        -12    1    6    6    0    0  0.80423166620E+02 -0.95978637743E+02  0.28915539162E+03  0.31510414966E+03  0.00000000000E+00 0.  1.
</event>
<event>
12    1  0.8453150E-002  0.1620991E+03  0.7818608E-02  0.1186487E+00
         21   -1    0    0  501  502  0.00000000000E+00  0.00000000000E+00  0.82721319770E+03  0.82721319770E+03  0.00000000000E+00 0.  1.
         21   -1    0    0  502  503 -0.00000000000E+00 -0.00000000000E+00 -0.89832492245E+02  0.89832492245E+02  0.00000000000E+00 0.  1.
         -6    2    1    2    0  503 -0.13695917662E+02  0.98955451071E+00 -0.47125906800E+00  0.16159771473E+03  0.16101255213E+03 0.  0.
        -24    2    3    3    0    0  0.34213008900E+02  0.56539743224E+02  0.14460861958E+01  0.88066395398E+02  0.58192149739E+02 0.  0.
          6    2    1    2  501    0  0.13695917662E+02 -0.98955451071E+00  0.73785196452E+03  0.75544797521E+03  0.16151645217E+03 0.  0.
         24    2    5    5    0    0 -0.35760529353E+02 -0.30255012500E+02  0.33268072488E+03  0.34619471546E+03  0.83547202616E+02 0.  0.
          5    1    5    5  501    0  0.49456447015E+02  0.29265457989E+02  0.40517123964E+03  0.40925325975E+03  0.47000000000E+01 0. -1.
        -11    1    6    6    0    0  0.79516492141E+01 -0.45051352721E+02  0.21447954097E+03  0.21930418738E+03  0.00000000000E+00 0.  1.
         12    1    6    6    0    0 -0.43712178567E+02  0.14796340221E+02  0.11820118391E+03  0.12689052808E+03  0.00000000000E+00 0. -1.
         -5    1    3    3    0  503 -0.47908926563E+02 -0.55550188713E+02 -0.19173452638E+01  0.73531319336E+02  0.47000000000E+01 0.  1.
         13    1    4    4    0    0  0.12204490470E+02  0.33829611257E+02  0.28939546217E+02  0.46161558906E+02  0.00000000000E+00 0. -1.
        -14    1    4    4    0    0  0.22008518431E+02  0.22710131967E+02 -0.27493460021E+02  0.41904836492E+02  0.00000000000E+00 0.  1.
</event>
<event>
12    1  0.8453150E-002  0.2736357E+03  0.7818608E-02  0.1099876E+00
         21   -1    0    0  503  502  0.00000000000E+00  0.00000000000E+00  0.19970335816E+04  0.19970335816E+04  0.00000000000E+00 0.  1.
         21   -1    0    0  501  503 -0.00000000000E+00 -0.00000000000E+00 -0.39888215698E+02  0.39888215698E+02  0.00000000000E+00 0.  1.
          6    2    1    2  501    0  0.17220811536E+03  0.11552950500E+03  0.12514497505E+04  0.12800315840E+04  0.17132330991E+03 0.  0.
         24    2    3    3    0    0  0.65275683525E+02  0.11104371352E+03  0.89760793663E+03  0.91032793709E+03  0.80033267936E+02 0.  0.
         -6    2    1    2    0  502 -0.17220811536E+03 -0.11552950500E+03  0.70569561538E+03  0.75689021326E+03  0.17853232718E+03 0.  0.
        -24    2    5    5    0    0 -0.64737541147E+02  0.16007449945E+02  0.26588623423E+03  0.28539654779E+03  0.79426143356E+02 0.  0.
          5    1    3    3  501    0  0.10693243184E+03  0.44857914852E+01  0.35384181391E+03  0.36970364696E+03  0.47000000000E+01 0. -1.
        -13    1    4    4    0    0  0.25076904805E+02 -0.74063944575E+01  0.18227381073E+03  0.18413975104E+03  0.00000000000E+00 0.  1.
         14    1    4    4    0    0  0.40198778720E+02  0.11845010797E+03  0.71533412590E+03  0.72618818605E+03  0.00000000000E+00 0. -1.
         -5    1    5    5    0  502 -0.10747057421E+03 -0.13153695495E+03  0.43980938114E+03  0.47149366547E+03  0.47000000000E+01 0.  1.
         11    1    6    6    0    0 -0.52485367955E+02 -0.13625590229E+02  0.23390531264E+03  0.24010844600E+03  0.00000000000E+00 0. -1.
        -12    1    6    6    0    0 -0.12252173192E+02  0.29633040174E+02  0.31980921590E+02  0.45288101789E+02  0.00000000000E+00 0.  1.
</event>
<event>
12    1  0.8453150E-002  0.2247271E+03  0.7818608E-02  0.1130480E+00
         21   -1    0    0  503  502  0.00000000000E+00  0.00000000000E+00  0.22043047058E+04  0.22043047058E+04  0.00000000000E+00 0.  1.
         21   -1    0    0  501  503 -0.00000000000E+00 -0.00000000000E+00 -0.31479715989E+02  0.31479715989E+02  0.00000000000E+00 0.  1.
          6    2    1    2  501    0 -0.11596246189E+03 -0.85914878855E+02  0.50248086280E+03  0.55044461630E+03  0.17226026577E+03 0.  0.
         24    2    3    3    0    0 -0.13990039413E+03 -0.57456201703E+02  0.30262406019E+03  0.34710314869E+03  0.77626919492E+02 0.  0.
         -6    2    1    2    0  502  0.11596246189E+03  0.85914878855E+02  0.16703441270E+04  0.16853398055E+04  0.17173263618E+03 0.  0.
        -24    2    5    5    0    0  0.73949615193E+02  0.34687161855E+02  0.49005613514E+03  0.50318448911E+03  0.79798932991E+02 0.  0.
          5    1    3    3  501    0  0.23937932238E+02 -0.28458677152E+02  0.19985680260E+03  0.20334146762E+03  0.47000000000E+01 0. -1.
        -11    1    4    4    0    0 -0.59897560447E+01 -0.27497793981E+02  0.26000343806E+02  0.38314797785E+02  0.00000000000E+00 0.  1.
         12    1    4    4    0    0 -0.13391063808E+03 -0.29958407721E+02  0.27662371639E+03  0.30878835090E+03  0.00000000000E+00 0. -1.
         -5    1    5    5    0  502  0.42012846696E+02  0.51227717000E+02  0.11802879919E+04  0.11821553164E+04  0.47000000000E+01 0.  1.
         11    1    6    6    0    0  0.16172702996E+02  0.41301902963E+02  0.32848703427E+03  0.33146815110E+03  0.00000000000E+00 0. -1.
        -12    1    6    6    0    0  0.57776912197E+02 -0.66147411082E+01  0.16156910087E+03  0.17171633801E+03  0.00000000000E+00 0.  1.
</event>
<event>
12    1  0.8453150E-002  0.1787096E+03  0.7818608E-02  0.1170182E+00
         21   -1    0    0  503  502  0.00000000000E+00  0.00000000000E+00  0.50913475171E+03  0.50913475171E+03  0.00000000000E+00 0.  1.
         21   -1    0    0  501  503 -0.00000000000E+00 -0.00000000000E+00 -0.71731241031E+02  0.71731241031E+02  0.00000000000E+00 0. -1.
          6    2    1    2  501    0  0.20014405243E+02 -0.43259282746E+02  0.10953407464E+03  0.20960635138E+03  0.17223578917E+03 0.  0.
         24    2    3    3    0    0  0.56262489731E+02 -0.80331214072E+02  0.78824990256E+02  0.14916307561E+03  0.80110375938E+02 0.  0.
         -6    2    1    2    0  502 -0.20014405243E+02  0.43259282746E+02  0.32786943604E+03  0.37125964137E+03  0.16752137850E+03 0.  0.
        -24    2    5    5    0    0 -0.57490672393E+02  0.65114988132E+01  0.29083908943E+03  0.30685306722E+03  0.78891393001E+02 0.  0.
          5    1    3    3  501    0 -0.36248084488E+02  0.37071931326E+02  0.30709084383E+02  0.60443275763E+02  0.47000000000E+01 0. -1.
        -11    1    4    4    0    0 -0.82761361868E+01  0.10330884741E+02  0.82476824941E+00  0.13262799568E+02  0.00000000000E+00 0.  1.
         12    1    4    4    0    0  0.64538625918E+02 -0.90662098813E+02  0.78000222006E+02  0.13590027605E+03  0.00000000000E+00 0. -1.
         -5    1    5    5    0  502  0.37476267150E+02  0.36747783933E+02  0.37030346609E+02  0.64406574148E+02  0.47000000000E+01 0.  1.
         11    1    6    6    0    0  0.13529891309E+02 -0.26456061102E+01  0.13079368794E+03  0.13151823446E+03  0.00000000000E+00 0. -1.
        -12    1    6    6    0    0 -0.71020563702E+02  0.91571049234E+01  0.16004540149E+03  0.17533483276E+03  0.00000000000E+00 0.  1.
</event>
<event>
12    1  0.8453150E-002  0.2234705E+03  0.7818608E-02  0.1131641E+00
         21   -1    0    0  503  502  0.00000000000E+00  0.00000000000E+00  0.16758038318E+03  0.16758038318E+03  0.00000000000E+00 0. -1.
         21   -1    0    0  501  503 -0.00000000000E+00 -0.00000000000E+00 -0.34843038359E+03  0.34843038359E+03  0.00000000000E+00 0.  1.
          6    2    1    2  501    0 -0.74067786978E+02 -0.12038955179E+03 -0.19111181660E+03  0.29404553470E+03  0.17308774879E+03 0.  0.
         24    2    3    3    0    0 -0.92713010115E+01 -0.11182225952E+03 -0.18183918035E+03  0.22786355170E+03  0.79158928351E+02 0.  0.
         -6    2    1    2    0  502  0.74067786978E+02  0.12038955179E+03  0.10261816194E+02  0.22196523207E+03  0.17083201729E+03 0.  0.
        -24    2    5    5    0    0 -0.17047295936E+02  0.87694716405E+02 -0.15228345972E+02  0.12175171521E+03  0.81305621275E+02 0.  0.
          5    1    3    3  501    0 -0.64796485966E+02 -0.85672922722E+01 -0.92726362550E+01  0.66181982998E+02  0.47000000000E+01 0. -1.
        -13    1    4    4    0    0  0.13605434190E+01 -0.38720186942E+02 -0.13486997151E+03  0.14032467057E+03  0.00000000000E+00 0.  1.
         14    1    4    4    0    0 -0.10631844431E+02 -0.73102072576E+02 -0.46969208838E+02  0.87538881131E+02  0.00000000000E+00 0. -1.
         -5    1    5    5    0  502  0.91115082914E+02  0.32694835384E+02  0.25490162167E+02  0.10021351687E+03  0.47000000000E+01 0.  1.
         13    1    6    6    0    0  0.14562855029E+02 -0.69921524534E+01  0.97255614684E+01  0.18856126018E+02  0.00000000000E+00 0. -1.
        -14    1    6    6    0    0 -0.31610150965E+02  0.94686868859E+02 -0.24953907441E+02  0.10289558919E+03  0.00000000000E+00 0.  1.
</event>
<event>
12    1  0.8453150E-002  0.1948932E+03  0.7818608E-02  0.1154208E+00
         21   -1    0    0  501  502  0.00000000000E+00  0.00000000000E+00  0.85482600845E+02  0.85482600845E+02  0.00000000000E+00 0. -1.
         21   -1    0    0  502  503 -0.00000000000E+00 -0.00000000000E+00 -0.77749876164E+03  0.77749876164E+03  0.00000000000E+00 0. -1.
         -6    2    1    2    0  503 -0.78240223873E+02  0.48669906809E+02 -0.62864507165E+03  0.65804416213E+03  0.17128105775E+03 0.  0.
        -24    2    3    3    0    0  0.30816405832E+01  0.22213202861E+02 -0.12520720737E+03  0.14737305857E+03  0.74424799120E+02 0.  0.
          6    2    1    2  501    0  0.78240223873E+02 -0.48669906809E+02 -0.63371089145E+02  0.20493720036E+03  0.17173546136E+03 0.  0.
         24    2    5    5    0    0  0.91746659823E+02 -0.61521024091E+02 -0.95733192901E+02  0.16729452793E+03  0.81365403336E+02 0.  0.
          5    1    5    5  501    0 -0.13506435950E+02  0.12851117283E+02  0.32362103755E+02  0.37642672420E+02  0.47000000000E+01 0. -1.
        -13    1    6    6    0    0 -0.69493016976E+01  0.37515800551E+01  0.70299082238E+01  0.10572925642E+02  0.00000000000E+00 0.  1.
         14    1    6    6    0    0  0.98695961521E+02 -0.65272604146E+02 -0.10276310112E+03  0.15672160229E+03  0.00000000000E+00 0. -1.
         -5    1    3    3    0  503 -0.81321864457E+02  0.26456703948E+02 -0.50343786428E+03  0.51067110356E+03  0.47000000000E+01 0.  1.
         13    1    4    4    0    0 -0.18870407060E+02 -0.92902864989E+01 -0.56179404321E+01  0.21770689942E+02  0.00000000000E+00 0. -1.
        -14    1    4    4    0    0  0.21952047643E+02  0.31503489360E+02 -0.11958926694E+03  0.12560236863E+03  0.00000000000E+00 0.  1.
</event>
<event>
12    1  0.8453150E-002  0.1957721E+03  0.7818608E-02  0.1153378E+00
         21   -1    0    0  501  502  0.00000000000E+00  0.00000000000E+00  0.31469864158E+03  0.31469864158E+03  0.00000000000E+00 0.  1.
         21   -1    0    0  502  503 -0.00000000000E+00 -0.00000000000E+00 -0.19569749867E+03  0.19569749867E+03  0.00000000000E+00 0.  1.
         -6    2    1    2    0  503  0.67162065952E+02 -0.61994430852E+02 -0.97406871328E+02  0.21857572711E+03  0.17301213062E+03 0.  0.
        -24    2    3    3    0    0  0.46703612142E+02  0.43505593571E+01 -0.11479708079E+03  0.14684905534E+03  0.78651894717E+02 0.  0.
          6    2    1    2  501    0 -0.67162065952E+02  0.61994430852E+02  0.21640801424E+03  0.29182041313E+03  0.17312617461E+03 0.  0.
         24    2    5    5    0    0  0.63971840117E+01  0.67633699832E+02  0.18181010009E+03  0.21020013212E+03  0.80708994115E+02 0.  0.
          5    1    5    5  501    0 -0.73559249964E+02 -0.56392689795E+01  0.34597914149E+02  0.81620281017E+02  0.47000000000E+01 0. -1.
        -11    1    6    6    0    0 -0.33202440076E+02  0.43683267554E+02  0.12776094635E+03  0.13904491829E+03  0.00000000000E+00 0.  1.
         12    1    6    6    0    0  0.39599624088E+02  0.23950432277E+02  0.54049153740E+02  0.71155213823E+02  0.00000000000E+00 0. -1.
         -5    1    3    3    0  503  0.20458453810E+02 -0.66344990209E+02  0.17390209463E+02  0.71726671771E+02  0.47000000000E+01 0.  1.
         11    1    4    4    0    0  0.52475828465E+01  0.19675052110E+02  0.34127308919E+01  0.20646828652E+02  0.00000000000E+00 0. -1.
        -12    1    4    4    0    0  0.41456029296E+02 -0.15324492753E+02 -0.11820981168E+03  0.12620222669E+03  0.00000000000E+00 0.  1.
</event>
<event>
12    1  0.8453150E-002  0.2251089E+03  0.7818608E-02  0.1130179E+00
         21   -1    0    0  503  502  0.00000000000E+00  0.00000000000E+00  0.12198705390E+04  0.12198705390E+04  0.00000000000E+00 0.  1.
         21   -1    0    0  501  503 -0.00000000000E+00 -0.00000000000E+00 -0.48036738518E+02  0.48036738518E+02  0.00000000000E+00 0. -1.
          6    2    1    2  501    0  0.10084579461E+03  0.10396793373E+03  0.35219824317E+03  0.41799238603E+03  0.17232186962E+03 0.  0.
         24    2    3    3    0    0  0.97660495157E+02  0.19004818544E+02  0.27231595475E+03  0.30123560002E+03  0.81781122930E+02 0.  0.
         -6    2    1    2    0  502 -0.10084579461E+03 -0.10396793373E+03  0.81963555735E+03  0.84991489153E+03  0.17196996958E+03 0.  0.
        -24    2    5    5    0    0  0.12591471638E+02 -0.67484450585E+02  0.34522891943E+03  0.36074947368E+03  0.79022020492E+02 0.  0.
          5    1    3    3  501    0  0.31852994499E+01  0.84963115185E+02  0.79882288419E+02  0.11675678600E+03  0.47000000000E+01 0. -1.
        -13    1    4    4    0    0  0.52327946108E+02 -0.28729512185E+02  0.96180396276E+02  0.11320012121E+03  0.00000000000E+00 0.  1.
         14    1    4    4    0    0  0.45332549048E+02  0.47734330728E+02  0.17613555847E+03  0.18803547881E+03  0.00000000000E+00 0. -1.
         -5    1    5    5    0  502 -0.11343726625E+03 -0.36483483144E+02  0.47440663792E+03  0.48916541785E+03  0.47000000000E+01 0.  1.
         13    1    6    6    0    0  0.95410432259E+01 -0.22498002739E+02  0.17806078133E+02  0.30236535046E+02  0.00000000000E+00 0. -1.
        -14    1    6    6    0    0  0.30504284125E+01 -0.44986447846E+02  0.32742284129E+03  0.33051293863E+03  0.00000000000E+00 0.  1.
</event>
<event>
12    1  0.8453150E-002  0.1842276E+03  0.7818608E-02  0.1163853E+00
         21   -1    0    0  501  502  0.00000000000E+00  0.00000000000E+00  0.13776897427E+03  0.13776897427E+03  0.00000000000E+00 0.  1.
         21   -1    0    0  502  503 -0.00000000000E+00 -0.00000000000E+00 -0.36735659152E+03  0.36735659152E+03  0.00000000000E+00 0.  1.
         -6    2    1    2    0  503  0.46650205430E+02  0.51404241357E+02 -0.25994697278E+03  0.31841324607E+03  0.17028191013E+03 0.  0.
        -24    2    3    3    0    0 -0.22081695790E+02  0.22126371596E+02 -0.21059002396E+03  0.22875017507E+03  0.83673811897E+02 0.  0.
          6    2    1    2  501    0 -0.46650205430E+02 -0.51404241357E+02  0.30359355532E+02  0.18671231971E+03  0.17064923724E+03 0.  0.
         24    2    5    5    0    0 -0.79714810376E+02 -0.80844065418E+02  0.14808150128E+02  0.13955406137E+03  0.79786219531E+02 0.  0.
          5    1    5    5  501    0  0.33064604946E+02  0.29439824061E+02  0.15551205404E+02  0.47158258349E+02  0.47000000000E+01 0. -1.
        -11    1    6    6    0    0 -0.77394222070E+02 -0.36272238685E+02 -0.13744102823E+02  0.86570441096E+02  0.00000000000E+00 0.  1.
         12    1    6    6    0    0 -0.23205883056E+01 -0.44571826733E+02  0.28552252951E+02  0.52983620270E+02  0.00000000000E+00 0. -1.
         -5    1    3    3    0  503  0.68731901219E+02  0.29277869760E+02 -0.49356948825E+02  0.89663070995E+02  0.47000000000E+01 0.  1.
         13    1    4    4    0    0  0.91744354239E+01  0.58128220516E+01  0.37801745241E+01  0.11499951521E+02  0.00000000000E+00 0. -1.
        -14    1    4    4    0    0 -0.31256131214E+02  0.16313549544E+02 -0.21437019848E+03  0.21725022355E+03  0.00000000000E+00 0.  1.
</event>
<event>
12    1  0.8453150E-002  0.2046884E+03  0.7818608E-02  0.1146395E+00
         21   -1    0    0  503  502  0.00000000000E+00  0.00000000000E+00  0.28810739605E+03  0.28810739605E+03  0.00000000000E+00 0. -1.
         21   -1    0    0  501  503 -0.00000000000E+00 -0.00000000000E+00 -0.20610493906E+03  0.20610493906E+03  0.00000000000E+00 0. -1.
          6    2    1    2  501    0  0.10267462520E+03 -0.17560236535E+01 -0.95346410387E+02  0.22338034771E+03  0.17396171846E+03 0.  0.
         24    2    3    3    0    0  0.49573502858E+02  0.58974266263E+02 -0.17167603051E+02  0.11094408477E+03  0.77963883199E+02 0.  0.
         -6    2    1    2    0  502 -0.10267462520E+03  0.17560236535E+01  0.17734886738E+03  0.27083198740E+03  0.17706547478E+03 0.  0.
        -24    2    5    5    0    0 -0.87496313824E+02  0.59581064782E+02  0.75446782367E+02  0.15259391634E+03  0.79919823081E+02 0.  0.
          5    1    3    3  501    0  0.53101122339E+02 -0.60730289917E+02 -0.78178807336E+02  0.11243626294E+03  0.47000000000E+01 0. -1.
        -13    1    4    4    0    0  0.54738712677E+02  0.74430552433E+02 -0.19653812744E+02  0.94459018396E+02  0.00000000000E+00 0.  1.
         14    1    4    4    0    0 -0.51652098190E+01 -0.15456286170E+02  0.24862096923E+01  0.16485066371E+02  0.00000000000E+00 0. -1.
         -5    1    5    5    0  502 -0.15178311372E+02 -0.57825041128E+02  0.10190208501E+03  0.11823807106E+03  0.47000000000E+01 0.  1.
         11    1    6    6    0    0 -0.73750156171E+01 -0.12452637958E+02 -0.77978849867E+01  0.16439770610E+02  0.00000000000E+00 0. -1.
        -12    1    6    6    0    0 -0.80121298207E+02  0.72033702740E+02  0.83244667354E+02  0.13615414573E+03  0.00000000000E+00 0.  1.
</event>
<event>
12    1  0.8453150E-002  0.2036406E+03  0.7818608E-02  0.1147054E+00
         21   -1    0    0  503  502  0.00000000000E+00  0.00000000000E+00  0.62361738722E+03  0.62361738722E+03  0.00000000000E+00 0.  1.
         21   -1    0    0  501  503 -0.00000000000E+00 -0.00000000000E+00 -0.71562511444E+02  0.71562511444E+02  0.00000000000E+00 0.  1.
          6    2    1    2  501    0  0.10231993537E+03 -0.23558297554E+02  0.17759101923E+03  0.26892565499E+03  0.17250529048E+03 0.  0.
         24    2    3    3    0    0 -0.41746924022E+01 -0.28568623050E+02  0.12104440925E+03  0.14815389419E+03  0.80400454439E+02 0.  0.
         -6    2    1    2    0  502 -0.10231993537E+03  0.23558297554E+02  0.37446385655E+03  0.42625424368E+03  0.17448535134E+03 0.  0.
        -24    2    5    5    0    0  0.96022818223E+01  0.36015704245E+02  0.12945565584E+03  0.15656390626E+03  0.79775655088E+02 0.  0.
          5    1    3    3  501    0  0.10649462777E+03  0.50103254956E+01  0.56546609981E+02  0.12077176080E+03  0.47000000000E+01 0. -1.
        -13    1    4    4    0    0  0.14617688696E+02  0.10677045456E+01 -0.63804518490E+01  0.15985211340E+02  0.00000000000E+00 0.  1.
         14    1    4    4    0    0 -0.18792381098E+02 -0.29636327595E+02  0.12742486110E+03  0.13216868285E+03  0.00000000000E+00 0. -1.
         -5    1    5    5    0  502 -0.11192221719E+03 -0.12457406691E+02  0.24500820071E+03  0.26969033742E+03  0.47000000000E+01 0.  1.
         13    1    6    6    0    0 -0.65019477971E+01 -0.19775085925E+02  0.86799724973E+01  0.22553741842E+02  0.00000000000E+00 0. -1.
        -14    1    6    6    0    0  0.16104229619E+02  0.55790790170E+02  0.12077568334E+03  0.13401016441E+03  0.00000000000E+00 0.  1.
</event>
<event>
12    1  0.8453150E-002  0.2903656E+03  0.7818608E-02  0.1090195E+00
         21   -1    0    0  503  502  0.00000000000E+00  0.00000000000E+00  0.27772180387E+02  0.27772180387E+02  0.00000000000E+00 0.  1.
         21   -1    0    0  501  503 -0.00000000000E+00 -0.00000000000E+00 -0.30333725315E+04  0.30333725315E+04  0.00000000000E+00 0.  1.
          6    2    1    2  501    0 -0.20185333685E+03  0.11752002105E+03 -0.15228240674E+04  0.15502597651E+04  0.17250064965E+03 0.  0.
         24    2    3    3    0    0 -0.86458497588E+02  0.12775864021E+03 -0.92424902323E+03  0.94055904201E+03  0.81349324580E+02 0.  0.
         -6    2    1    2    0  502  0.20185333685E+03 -0.11752002105E+03 -0.14827762837E+04  0.15108849468E+04  0.17202351556E+03 0.  0.
        -24    2    5    5    0    0  0.62262975103E+02 -0.56220444726E+02 -0.93357217789E+03  0.94089341438E+03  0.81767899692E+02 0.  0.
          5    1    3    3  501    0 -0.11539483926E+03 -0.10238619163E+02 -0.59857504414E+03  0.60970072308E+03  0.47000000000E+01 0. -1.
        -13    1    4    4    0    0 -0.46504968017E+02  0.11547679293E+03 -0.79585343755E+03  0.80553106447E+03  0.00000000000E+00 0.  1.
         14    1    4    4    0    0 -0.39953529572E+02  0.12281847275E+02 -0.12839558568E+03  0.13502797755E+03  0.00000000000E+00 0. -1.
         -5    1    5    5    0  502  0.13959036174E+03 -0.61299576320E+02 -0.54920410581E+03  0.56999153238E+03  0.47000000000E+01 0.  1.
         11    1    6    6    0    0  0.51923600862E+02 -0.83500296548E+01 -0.71360506361E+03  0.71554033439E+03  0.00000000000E+00 0. -1.
        -12    1    6    6    0    0  0.10339374240E+02 -0.47870415071E+02 -0.21996711428E+03  0.22535308000E+03  0.00000000000E+00 0.  1.
</event>
<event>
12    1  0.8453150E-002  0.1804841E+03  0.7818608E-02  0.1167422E+00
         21   -1    0    0  503  502  0.00000000000E+00  0.00000000000E+00  0.85755040051E+03  0.85755040051E+03  0.00000000000E+00 0. -1.
         21   -1    0    0  501  503 -0.00000000000E+00 -0.00000000000E+00 -0.45172559227E+02  0.45172559227E+02  0.00000000000E+00 0.  1.
          6    2    1    2  501    0 -0.29666904032E+02 -0.41480107794E+02  0.22486476279E+03  0.28811241796E+03  0.17275381125E+03 0.  0.
         24    2    3    3    0    0 -0.21198690606E+02  0.44169568866E+02  0.97321748716E+02  0.13417448180E+03  0.78300277747E+02 0.  0.
         -6    2    1    2    0  502  0.29666904032E+02  0.41480107794E+02  0.58751307849E+03  0.61461054178E+03  0.17312936240E+03 0.  0.
        -24    2    5    5    0    0  0.51380030829E+02  0.87799653983E+02  0.42909309767E+03  0.44806943407E+03  0.79351398645E+02 0.  0.
          5    1    3    3  501    0 -0.84682134261E+01 -0.85649676660E+02  0.12754301407E+03  0.15393793616E+03  0.47000000000E+01 0. -1.
        -11    1    4    4    0    0  0.26359175243E+02  0.16029467976E+02  0.13267076686E+02  0.33582216825E+02  0.00000000000E+00 0.  1.
         12    1    4    4    0    0 -0.47557865849E+02  0.28140100891E+02  0.84054672031E+02  0.10059226497E+03  0.00000000000E+00 0. -1.
         -5    1    5    5    0  502 -0.21713126796E+02 -0.46319546189E+02  0.15841998082E+03  0.16654110771E+03  0.47000000000E+01 0.  1.
         11    1    6    6    0    0  0.50161341540E+01 -0.89185630779E+01  0.12863034472E+03  0.12903669227E+03  0.00000000000E+00 0. -1.
        -12    1    6    6    0    0  0.46363896675E+02  0.96718217060E+02  0.30046275295E+03  0.31903274180E+03  0.00000000000E+00 0.  1.
</event>
<event>
12    1  0.8453150E-002  0.1912978E+03  0.7818608E-02  0.1157492E+00
         21   -1    0    0  501  502  0.00000000000E+00  0.00000000000E+00  0.23280536030E+02  0.23280536030E+02  0.00000000000E+00 0.  1.
         21   -1    0    0  502  503 -0.00000000000E+00 -0.00000000000E+00 -0.17729392635E+04  0.17729392635E+04  0.00000000000E+00 0.  1.
         -6    2    1    2    0  503  0.59629700406E+02  0.58375577769E+02 -0.11808395240E+04  0.11960946907E+04  0.17116401032E+03 0.  0.
        -24    2    3    3    0    0 -0.62797007412E+01 -0.21908726655E+02 -0.38018984266E+03  0.38872140595E+03  0.77721219998E+02 0.  0.
          6    2    1    2  501    0 -0.59629700406E+02 -0.58375577769E+02 -0.56881920351E+03  0.60012510887E+03  0.17213788300E+03 0.  0.
         24    2    5    5    0    0 -0.13655409695E+02 -0.98439080180E+02 -0.35519993304E+03  0.37792249334E+03  0.82351052336E+02 0.  0.
          5    1    5    5  501    0 -0.45974290711E+02  0.40063502411E+02 -0.21361927048E+03  0.22220261553E+03  0.47000000000E+01 0. -1.
        -11    1    6    6    0    0 -0.22692196358E+02 -0.16510830935E+02 -0.24978256565E+02  0.37569357390E+02  0.00000000000E+00 0.  1.
         12    1    6    6    0    0  0.90367866628E+01 -0.81928249245E+02 -0.33022167647E+03  0.34035313595E+03  0.00000000000E+00 0. -1.
         -5    1    3    3    0  503  0.65909401147E+02  0.80284304423E+02 -0.80064968132E+03  0.80737328473E+03  0.47000000000E+01 0.  1.
         13    1    4    4    0    0  0.26202791945E+02 -0.32034551077E+02 -0.13555969492E+03  0.14173647962E+03  0.00000000000E+00 0. -1.
        -14    1    4    4    0    0 -0.32482492687E+02  0.10125824422E+02 -0.24463014774E+03  0.24698492633E+03  0.00000000000E+00 0.  1.
</event>
<event>
12    1  0.8453150E-002  0.4342374E+03  0.7818608E-02  0.1032549E+00
         21   -1    0    0  503  502  0.00000000000E+00  0.00000000000E+00  0.37164052242E+03  0.37164052242E+03  0.00000000000E+00 0.  1.
         21   -1    0    0  501  503 -0.00000000000E+00 -0.00000000000E+00 -0.57802875337E+03  0.57802875337E+03  0.00000000000E+00 0. -1.
          6    2    1    2  501    0  0.32267317789E+03 -0.23462078589E+03 -0.26951562288E+03  0.51086726116E+03  0.17082679722E+03 0.  0.
         24    2    3    3    0    0  0.74470928812E+02 -0.62138062269E+02 -0.73282767982E+02  0.15047293582E+03  0.88683044100E+02 0.  0.
         -6    2    1    2    0  502 -0.32267317789E+03  0.23462078589E+03  0.63127391936E+02  0.43880201463E+03  0.17145625545E+03 0.  0.
        -24    2    5    5    0    0 -0.33743967712E+03  0.22249610968E+03  0.49547666687E+02  0.41489477283E+03  0.79452166294E+02 0.  0.
          5    1    3    3  501    0  0.24820224908E+03 -0.17248272362E+03 -0.19623285490E+03  0.36039432534E+03  0.47000000000E+01 0. -1.
        -13    1    4    4    0    0  0.30173668809E+02 -0.54622876022E+02  0.24102363559E+01  0.62449324365E+02  0.00000000000E+00 0.  1.
         14    1    4    4    0    0  0.44297260003E+02 -0.75151862464E+01 -0.75693004338E+02  0.88023611456E+02  0.00000000000E+00 0. -1.
         -5    1    5    5    0  502  0.14766499234E+02  0.12124676210E+02  0.13579725249E+02  0.23907241804E+02  0.47000000000E+01 0.  1.
         11    1    6    6    0    0 -0.32650285045E+03  0.22686932992E+03  0.39737675352E+02  0.39956587323E+03  0.00000000000E+00 0. -1.
        -12    1    6    6    0    0 -0.10936826674E+02 -0.43732202379E+01  0.98099913351E+01  0.15328899600E+02  0.00000000000E+00 0.  1.
</event>
<event>
12    1  0.8453150E-002  0.2841775E+03  0.7818608E-02  0.1093434E+00
         21   -1    0    0  501  502  0.00000000000E+00  0.00000000000E+00  0.24708264350E+03  0.24708264350E+03  0.00000000000E+00 0.  1.
         21   -1    0    0  502  503 -0.00000000000E+00 -0.00000000000E+00 -0.37334823179E+03  0.37334823179E+03  0.00000000000E+00 0. -1.
         -6    2    1    2    0  503 -0.21892666723E+03  0.58121748568E+02 -0.17267911673E+03  0.33252812415E+03  0.17160959388E+03 0.  0.
        -24    2    3    3    0    0 -0.12467080011E+03 -0.29058007167E+02 -0.12308442238E+03  0.19481028941E+03  0.80088061825E+02 0.  0.
          6    2    1    2  501    0  0.21892666723E+03 -0.58121748568E+02  0.46413528440E+02  0.28790275114E+03  0.17154228403E+03 0.  0.
         24    2    5    5    0    0  0.88522532982E+02 -0.79344275254E+02 -0.49715503186E+01  0.14606428602E+03  0.84724887004E+02 0.  0.
          5    1    5    5  501    0  0.13040413425E+03  0.21222526686E+02  0.51385078759E+02  0.14183846512E+03  0.47000000000E+01 0. -1.
        -13    1    6    6    0    0  0.90763973251E+02 -0.29141458363E+02 -0.83859288218E+01  0.95695596753E+02  0.00000000000E+00 0.  1.
         14    1    6    6    0    0 -0.22414402683E+01 -0.50202816890E+02  0.34143785032E+01  0.50368689270E+02  0.00000000000E+00 0. -1.
         -5    1    3    3    0  503 -0.94255867123E+02  0.87179755735E+02 -0.49594694346E+02  0.13771783474E+03  0.47000000000E+01 0.  1.
         13    1    4    4    0    0 -0.41492380620E+02 -0.52649218986E+01 -0.95085722477E+02  0.10387796528E+03  0.00000000000E+00 0. -1.
        -14    1    4    4    0    0 -0.83178419487E+02 -0.23793085269E+02 -0.27998699905E+02  0.90932324128E+02  0.00000000000E+00 0.  1.
</event>
<event>
12    1  0.8453150E-002  0.3323485E+03  0.7818608E-02  0.1070152E+00
         21   -1    0    0  501  502  0.00000000000E+00  0.00000000000E+00  0.25098712555E+03  0.25098712555E+03  0.00000000000E+00 0. -1.
         21   -1    0    0  502  503 -0.00000000000E+00 -0.00000000000E+00 -0.56309042032E+03  0.56309042032E+03  0.00000000000E+00 0.  1.
         -6    2    1    2    0  503 -0.41005168434E+02  0.28139851131E+03 -0.34684347615E+03  0.48037060690E+03  0.17201446747E+03 0.  0.
        -24    2    3    3    0    0 -0.62303620779E+02  0.85329942641E+02 -0.16151652339E+03  0.20969612138E+03  0.81987411958E+02 0.  0.
          6    2    1    2  501    0  0.41005168434E+02 -0.28139851131E+03  0.34740181378E+02  0.33370693897E+03  0.17113414302E+03 0.  0.
         24    2    5    5    0    0  0.35590617871E+02 -0.21897482414E+03  0.84557949439E+02  0.25352006914E+03  0.88914076264E+02 0.  0.
          5    1    5    5  501    0  0.54145505635E+01 -0.62423687173E+02 -0.49817768061E+02  0.80186869827E+02  0.47000000000E+01 0. -1.
        -13    1    6    6    0    0  0.28274797336E+02 -0.26049833111E+02  0.39799938800E+02  0.55336182539E+02  0.00000000000E+00 0.  1.
         14    1    6    6    0    0  0.73158205347E+01 -0.19292499103E+03  0.44758010639E+02  0.19818388660E+03  0.00000000000E+00 0. -1.
         -5    1    3    3    0  503  0.21298452344E+02  0.19606856867E+03 -0.18532695276E+03  0.27067448552E+03  0.47000000000E+01 0.  1.
         13    1    4    4    0    0  0.42066555582E+00  0.63446586300E+01  0.93347103234E+01  0.11294621262E+02  0.00000000000E+00 0. -1.
        -14    1    4    4    0    0 -0.62724286334E+02  0.78985284011E+02 -0.17085123371E+03  0.19840150012E+03  0.00000000000E+00 0.  1.
</event>
<event>
12    1  0.8453150E-002  0.2410152E+03  0.7818608E-02  0.1119934E+00
         21   -1    0    0  501  502  0.00000000000E+00  0.00000000000E+00  0.50257909571E+03  0.50257909571E+03  0.00000000000E+00 0.  1.
         21   -1    0    0  502  503 -0.00000000000E+00 -0.00000000000E+00 -0.12017489653E+03  0.12017489653E+03  0.00000000000E+00 0. -1.
         -6    2    1    2    0  503 -0.61509393789E+02 -0.14970593308E+03  0.11832900090E+03  0.26849594858E+03  0.17858625375E+03 0.  0.
        -24    2    3    3    0    0 -0.10237837877E+03 -0.13890413940E+03  0.66517463985E+02  0.20146253872E+03  0.79918014943E+02 0.  0.
          6    2    1    2  501    0  0.61509393789E+02  0.14970593308E+03  0.26407519828E+03  0.35425804366E+03  0.17195284013E+03 0.  0.
         24    2    5    5    0    0  0.74848814587E+01  0.67702193741E+02  0.46699886336E+02  0.11568441259E+03  0.81008601059E+02 0.  0.
          5    1    5    5  501    0  0.54024512330E+02  0.82003739338E+02  0.21737531194E+03  0.23857363107E+03  0.47000000000E+01 0. -1.
        -11    1    6    6    0    0 -0.35680067617E+01  0.45545848179E+02  0.68739193407E+02  0.82536244577E+02  0.00000000000E+00 0.  1.
         12    1    6    6    0    0  0.11052888220E+02  0.22156345561E+02 -0.22039307072E+02  0.33148168016E+02  0.00000000000E+00 0. -1.
         -5    1    3    3    0  503  0.40868984978E+02 -0.10801793677E+02  0.51811536911E+02  0.67033409856E+02  0.47000000000E+01 0.  1.
         11    1    4    4    0    0 -0.87107445941E+02 -0.14811645378E+03  0.64396854085E+02  0.18350244095E+03  0.00000000000E+00 0. -1.
        -12    1    4    4    0    0 -0.15270932826E+02  0.92123143810E+01  0.21206099004E+01  0.17960097772E+02  0.00000000000E+00 0.  1.
</event>
<event>
12    1  0.8453150E-002  0.1847626E+03  0.7818608E-02  0.1164015E+00
         21   -1    0    0  501  502  0.00000000000E+00  0.00000000000E+00  0.78026632713E+02  0.78026632713E+02  0.00000000000E+00 0. -1.
         21   -1    0    0  502  503 -0.00000000000E+00 -0.00000000000E+00 -0.13678237527E+04  0.13678237527E+04  0.00000000000E+00 0. -1.
         -6    2    1    2    0  503 -0.19590255587E+02  0.54214877845E+02 -0.12452085979E+04  0.12588413970E+04  0.17553968058E+03 0.  0.
        -24    2    3    3    0    0 -0.18854784419E+02  0.95266335025E+02 -0.11165256620E+04  0.11236853722E+04  0.81290124127E+02 0.  0.
          6    2    1    2  501    0  0.19590255587E+02 -0.54214877845E+02 -0.44588522088E+02  0.18700898840E+03  0.17222425598E+03 0.  0.
         24    2    5    5    0    0 -0.36841089040E+02 -0.63618969145E+02 -0.66348679131E+02  0.12562065055E+03  0.77290112857E+02 0.  0.
          5    1    5    5  501    0  0.56431344627E+02  0.94040912993E+01  0.21760157043E+02  0.61388337851E+02  0.47000000000E+01 0. -1.
        -11    1    6    6    0    0 -0.22511921392E+02  0.14285027676E+02 -0.10284350695E+02  0.28576502404E+02  0.00000000000E+00 0.  1.
         12    1    6    6    0    0 -0.14329167649E+02 -0.77903996821E+02 -0.56064328436E+02  0.97044148145E+02  0.00000000000E+00 0. -1.
         -5    1    3    3    0  503 -0.73547116821E+00 -0.41051457180E+02 -0.12868293586E+03  0.13515602479E+03  0.47000000000E+01 0.  1.
         13    1    4    4    0    0 -0.51018949316E+02  0.62270557422E+02 -0.69253316080E+03  0.69719633843E+03  0.00000000000E+00 0. -1.
        -14    1    4    4    0    0  0.32164164897E+02  0.32995777604E+02 -0.42399250124E+03  0.42648903380E+03  0.00000000000E+00 0.  1.
</event>
<event>
12    1  0.8453150E-002  0.1735084E+03  0.7818608E-02  0.1174551E+00
         21   -1    0    0  503  502  0.00000000000E+00  0.00000000000E+00  0.66243071340E+02  0.66243071340E+02  0.00000000000E+00 0.  1.
         21   -1    0    0  501  503 -0.00000000000E+00 -0.00000000000E+00 -0.49423471600E+03  0.49423471600E+03  0.00000000000E+00 0.  1.
          6    2    1    2  501    0  0.65835338560E+01 -0.18063027784E+02 -0.29594238104E+03  0.34243611542E+03  0.17120451032E+03 0.  0.
         24    2    3    3    0    0  0.16676925705E+02 -0.75312549080E+02 -0.16281414539E+03  0.19709306820E+03  0.79919532609E+02 0.  0.
         -6    2    1    2    0  502 -0.65835338560E+01  0.18063027784E+02 -0.13204926362E+03  0.21804167192E+03  0.17243998023E+03 0.  0.
        -24    2    5    5    0    0 -0.35507279544E+02 -0.35466200234E+02 -0.29316118167E+02  0.98550456801E+02  0.79587307353E+02 0.  0.
          5    1    3    3  501    0 -0.10093391849E+02  0.57249521295E+02 -0.13312823565E+03  0.14534304722E+03  0.47000000000E+01 0. -1.
        -11    1    4    4    0    0  0.20514878212E+02 -0.17090264761E+02 -0.12440309048E+03  0.12723626173E+03  0.00000000000E+00 0.  1.
         12    1    4    4    0    0 -0.38379525071E+01 -0.58222284319E+02 -0.38411054911E+02  0.69856806470E+02  0.00000000000E+00 0. -1.
         -5    1    5    5    0  502  0.28923745688E+02  0.53529228018E+02 -0.10273314545E+03  0.11949121512E+03  0.47000000000E+01 0.  1.
         11    1    6    6    0    0 -0.28939776904E+02  0.12440842663E+02 -0.38066530709E+02  0.49409978887E+02  0.00000000000E+00 0. -1.
        -12    1    6    6    0    0 -0.65675026401E+01 -0.47907042897E+02  0.87504125413E+01  0.49140477915E+02  0.00000000000E+00 0.  1.
</event>
<event>
12    1  0.8453150E-002  0.2583634E+03  0.7818608E-02  0.1108253E+00
         21   -1    0    0  503  502  0.00000000000E+00  0.00000000000E+00  0.14341358218E+03  0.14341358218E+03  0.00000000000E+00 0. -1.
         21   -1    0    0  501  503 -0.00000000000E+00 -0.00000000000E+00 -0.47933170089E+03  0.47933170089E+03  0.00000000000E+00 0. -1.
          6    2    1    2  501    0 -0.51472704301E+01 -0.19180663636E+03 -0.22392125152E+03  0.34189529352E+03  0.17301845192E+03 0.  0.
         24    2    3    3    0    0  0.33881515161E+02 -0.54186138997E+02 -0.45244990872E+02  0.11296311247E+03  0.81421501162E+02 0.  0.
         -6    2    1    2    0  502  0.51472704301E+01  0.19180663636E+03 -0.11199686719E+03  0.28084998955E+03  0.17180552442E+03 0.  0.
        -24    2    5    5    0    0  0.25741103168E+02  0.21007400295E+03 -0.11250540402E+03  0.25291880198E+03  0.80726472448E+02 0.  0.
          5    1    3    3  501    0 -0.39028785592E+02 -0.13762049737E+03 -0.17867626065E+03  0.22893218105E+03  0.47000000000E+01 0. -1.
        -13    1    4    4    0    0 -0.26431188333E+02 -0.19080512790E+02 -0.22323214973E+02  0.39509487617E+02  0.00000000000E+00 0.  1.
         14    1    4    4    0    0  0.60312703494E+02 -0.35105626207E+02 -0.22921775899E+02  0.73453624856E+02  0.00000000000E+00 0. -1.
         -5    1    5    5    0  502 -0.20593832738E+02 -0.18267366588E+02  0.50853683414E+00  0.27931187562E+02  0.47000000000E+01 0.  1.
         13    1    6    6    0    0  0.17365701873E+01  0.17816477896E+03 -0.62257151418E+02  0.18873700496E+03  0.00000000000E+00 0. -1.
        -14    1    6    6    0    0  0.24004532981E+02  0.31909223990E+02 -0.50248252606E+02  0.64181797024E+02  0.00000000000E+00 0.  1.
</event>
<event>
12    1  0.8453150E-002  0.1765410E+03  0.7818608E-02  0.1171721E+00
         21   -1    0    0  501  502  0.00000000000E+00  0.00000000000E+00  0.26599414380E+03  0.26599414380E+03  0.00000000000E+00 0.  1.
         21   -1    0    0  502  503 -0.00000000000E+00 -0.00000000000E+00 -0.26911722209E+03  0.26911722209E+03  0.00000000000E+00 0.  1.
         -6    2    1    2    0  503  0.20608142018E+02 -0.19198069094E+02 -0.20352942815E+03  0.26942706718E+03  0.17427981821E+03 0.  0.
        -24    2    3    3    0    0 -0.23739600107E+02 -0.14158424963E+02 -0.24381737432E+02  0.84743268939E+02  0.76308078862E+02 0.  0.
          6    2    1    2  501    0 -0.20608142018E+02  0.19198069094E+02  0.20040634986E+03  0.26568429870E+03  0.17214000155E+03 0.  0.
         24    2    5    5    0    0  0.87170863539E+01 -0.88110747807E+01  0.20920824449E+03  0.22392253977E+03  0.78864387534E+02 0.  0.
          5    1    5    5  501    0 -0.29325228372E+02  0.28009143875E+02 -0.88018946285E+01  0.41761758927E+02  0.47000000000E+01 0. -1.
        -11    1    6    6    0    0  0.12149609568E+02  0.31055002792E+02  0.14058197011E+03  0.14448292816E+03  0.00000000000E+00 0.  1.
         12    1    6    6    0    0 -0.34325232143E+01 -0.39866077573E+02  0.68626274381E+02  0.79439611606E+02  0.00000000000E+00 0. -1.
         -5    1    3    3    0  503  0.44347742125E+02 -0.50396441308E+01 -0.17914769072E+03  0.18468379825E+03  0.47000000000E+01 0.  1.
         13    1    4    4    0    0  0.26066136594E+02 -0.16539337987E+02 -0.13572536815E+02  0.33722498923E+02  0.00000000000E+00 0. -1.
        -14    1    4    4    0    0 -0.49805736701E+02  0.23809130236E+01 -0.10809200617E+02  0.51020770017E+02  0.00000000000E+00 0.  1.
</event>
<event>
12    1  0.8453150E-002  0.1723748E+03  0.7818608E-02  0.1175481E+00
         21   -1    0    0  501  502  0.00000000000E+00  0.00000000000E+00  0.12550779969E+03  0.12550779969E+03  0.00000000000E+00 0. -1.
         21   -1    0    0  502  503 -0.00000000000E+00 -0.00000000000E+00 -0.27484603160E+03  0.27484603160E+03  0.00000000000E+00 0. -1.
         -6    2    1    2    0  503 -0.11950051520E+00  0.10022430508E+02 -0.14972141592E+03  0.22831903964E+03  0.17208317199E+03 0.  0.
        -24    2    3    3    0    0  0.45041052286E+02 -0.24851863253E+02 -0.36191325404E+02  0.10117005872E+03  0.79241764554E+02 0.  0.
          6    2    1    2  501    0  0.11950051520E+00 -0.10022430508E+02  0.38318400721E+00  0.17203479165E+03  0.17174213028E+03 0.  0.
         24    2    5    5    0    0 -0.67205099343E+01 -0.47236157023E+02 -0.53877251129E+02  0.10571788577E+03  0.77440902621E+02 0.  0.
          5    1    5    5  501    0  0.68400104495E+01  0.37213726515E+02  0.54260435136E+02  0.66316905878E+02  0.47000000000E+01 0. -1.
        -13    1    6    6    0    0  0.11597274911E+02 -0.71852929016E+01  0.17290831065E+02  0.22024941734E+02  0.00000000000E+00 0.  1.
         14    1    6    6    0    0 -0.18317784845E+02 -0.40050864121E+02 -0.71168082194E+02  0.83692944038E+02  0.00000000000E+00 0. -1.
         -5    1    3    3    0  503 -0.45160552801E+02  0.34874293761E+02 -0.11353009052E+03  0.12714898091E+03  0.47000000000E+01 0.  1.
         13    1    4    4    0    0  0.19298419113E+02  0.28594565159E+02 -0.19110215362E+02  0.39437019006E+02  0.00000000000E+00 0. -1.
        -14    1    4    4    0    0  0.25742633174E+02 -0.53446428412E+02 -0.17081110042E+02  0.61733039719E+02  0.00000000000E+00 0.  1.
</event>
<event>
12    1  0.8453150E-002  0.2529008E+03  0.7818608E-02  0.1111871E+00
         21   -1    0    0  501  502  0.00000000000E+00  0.00000000000E+00  0.53192881694E+03  0.53192881694E+03  0.00000000000E+00 0.  1.
         21   -1    0    0  502  503 -0.00000000000E+00 -0.00000000000E+00 -0.19417225638E+03  0.19417225638E+03  0.00000000000E+00 0.  1.
         -6    2    1    2    0  503 -0.16439211050E+03 -0.85680175551E+02 -0.56399121365E+02  0.25911322558E+03  0.17202599892E+03 0.  0.
        -24    2    3    3    0    0 -0.13167328707E+03  0.61557415023E+01 -0.48519792915E+02  0.16119218145E+03  0.79075921585E+02 0.  0.
          6    2    1    2  501    0  0.16439211050E+03  0.85680175551E+02  0.39415568193E+03  0.46698784773E+03  0.16838375770E+03 0.  0.
         24    2    5    5    0    0  0.90750794762E+02  0.15747934680E+02  0.31481752486E+03  0.33802973491E+03  0.81672048615E+02 0.  0.
          5    1    5    5  501    0  0.73641315738E+02  0.69932240871E+02  0.79338157065E+02  0.12895811282E+03  0.47000000000E+01 0. -1.
        -13    1    6    6    0    0  0.99109191662E+02  0.37970720978E+01  0.21047663805E+03  0.23267458992E+03  0.00000000000E+00 0.  1.
         14    1    6    6    0    0 -0.83583968997E+01  0.11950862582E+02  0.10434088682E+03  0.10535514499E+03  0.00000000000E+00 0. -1.
         -5    1    3    3    0  503 -0.32718823435E+02 -0.91835917054E+02 -0.78793284505E+01  0.97921044137E+02  0.47000000000E+01 0.  1.
         13    1    4    4    0    0 -0.29499901191E+02  0.13980171506E+02 -0.48808386671E+02  0.58719230028E+02  0.00000000000E+00 0. -1.
        -14    1    4    4    0    0 -0.10217338587E+03 -0.78244300038E+01  0.28859375595E+00  0.10247295142E+03  0.00000000000E+00 0.  1.
</event>
<event>
12    1  0.8453150E-002  0.3705064E+03  0.7818608E-02  0.1054502E+00
         21   -1    0    0  501  502  0.00000000000E+00  0.00000000000E+00  0.39822752833E+03  0.39822752833E+03  0.00000000000E+00 0.  1.
         21   -1    0    0  502  503 -0.00000000000E+00 -0.00000000000E+00 -0.46672112626E+03  0.46672112626E+03  0.00000000000E+00 0.  1.
         -6    2    1    2    0  503 -0.28021926291E+03  0.17062060818E+03  0.18689253414E+03  0.41495191317E+03  0.17211055659E+03 0.  0.
        -24    2    3    3    0    0 -0.21977970429E+03  0.16924228737E+03  0.94017040300E+02  0.30403398239E+03  0.81556044084E+02 0.  0.
          6    2    1    2  501    0  0.28021926291E+03 -0.17062060818E+03 -0.25538613207E+03  0.44999674141E+03  0.17216493136E+03 0.  0.
         24    2    5    5    0    0  0.24374590460E+03 -0.11425604279E+03 -0.13393345403E+03  0.31114389448E+03  0.80036514439E+02 0.  0.
          5    1    5    5  501    0  0.36473358315E+02 -0.56364565381E+02 -0.12145267804E+03  0.13885284693E+03  0.47000000000E+01 0. -1.
        -13    1    6    6    0    0  0.13691358859E+03 -0.47055531031E+02 -0.11200478563E+03  0.18304268831E+03  0.00000000000E+00 0.  1.
         14    1    6    6    0    0  0.10683231601E+03 -0.67200511763E+02 -0.21928668401E+02  0.12810120617E+03  0.00000000000E+00 0. -1.
         -5    1    3    3    0  503 -0.60439558619E+02  0.13783208035E+01  0.92875493836E+02  0.11091793078E+03  0.47000000000E+01 0.  1.
         11    1    4    4    0    0 -0.18332865209E+03  0.14663572756E+03  0.10869398251E+03  0.25870023794E+03  0.00000000000E+00 0. -1.
        -12    1    4    4    0    0 -0.36451052207E+02  0.22606559808E+02 -0.14676942213E+02  0.45333744452E+02  0.00000000000E+00 0.  1.
</event>
<event>
12    1  0.8453150E-002  0.1819578E+03  0.7818608E-02  0.1166081E+00
         21   -1    0    0  503  502  0.00000000000E+00  0.00000000000E+00  0.23442513921E+03  0.23442513921E+03  0.00000000000E+00 0.  1.
         21   -1    0    0  501  503 -0.00000000000E+00 -0.00000000000E+00 -0.37644627644E+03  0.37644627644E+03  0.00000000000E+00 0.  1.
          6    2    1    2  501    0 -0.35859764012E+02  0.47825703245E+02 -0.31275814206E+03  0.36183739702E+03  0.17185873819E+03 0.  0.
         24    2    3    3    0    0 -0.57393742165E+02  0.80413814836E+02 -0.29211329024E+03  0.31740770944E+03  0.75213405847E+02 0.  0.
         -6    2    1    2    0  502  0.35859764012E+02 -0.47825703245E+02  0.17073700483E+03  0.24903401863E+03  0.17115372345E+03 0.  0.
        -24    2    5    5    0    0 -0.18085339380E+02 -0.23912742356E+02  0.29441162803E+02  0.95839668691E+02  0.86136875264E+02 0.  0.
          5    1    3    3  501    0  0.21533978153E+02 -0.32588111591E+02 -0.20644851823E+02  0.44429687586E+02  0.47000000000E+01 0. -1.
        -11    1    4    4    0    0 -0.79939851632E+01  0.80382756228E+01 -0.15015484443E+03  0.15058218680E+03  0.00000000000E+00 0.  1.
         12    1    4    4    0    0 -0.49399757002E+02  0.72375539214E+02 -0.14195844581E+03  0.16682552264E+03  0.00000000000E+00 0. -1.
         -5    1    5    5    0  502  0.53945103392E+02 -0.23912960890E+02  0.14129584202E+03  0.15319434993E+03  0.47000000000E+01 0.  1.
         11    1    6    6    0    0  0.74532012553E+01  0.29662734364E+02  0.25807877390E+01  0.30693459959E+02  0.00000000000E+00 0. -1.
        -12    1    6    6    0    0 -0.25538540635E+02 -0.53575476720E+02  0.26860375064E+02  0.65146208732E+02  0.00000000000E+00 0.  1.
</event>
<event>
12    1  0.8453150E-002  0.2396531E+03  0.7818608E-02  0.1122576E+00
         21   -1    0    0  501  502  0.00000000000E+00  0.00000000000E+00  0.51364033273E+03  0.51364033273E+03  0.00000000000E+00 0. -1.
         21   -1    0    0  502  503 -0.00000000000E+00 -0.00000000000E+00 -0.15070041755E+03  0.15070041755E+03  0.00000000000E+00 0. -1.
         -6    2    1    2    0  503 -0.12840114918E+03 -0.66120351161E+02  0.26896478178E+01  0.23966823740E+03  0.19124558522E+03 0.  0.
        -24    2    3    3    0    0 -0.38567280469E+02  0.99460916409E+01 -0.58507286950E+02  0.10691514887E+03  0.80133554587E+02 0.  0.
          6    2    1    2  501    0  0.12840114918E+03  0.66120351161E+02  0.36025026736E+03  0.42467251287E+03  0.17235931106E+03 0.  0.
         24    2    5    5    0    0  0.87783529730E+02 -0.90281926544E+01  0.11728985412E+03  0.16708961933E+03  0.79840933437E+02 0.  0.
          5    1    5    5  501    0  0.40617619454E+02  0.75148543815E+02  0.24296041324E+03  0.25758289355E+03  0.47000000000E+01 0. -1.
        -11    1    6    6    0    0  0.23810817752E+02 -0.56404378696E+01  0.96777962034E+02  0.99823561932E+02  0.00000000000E+00 0.  1.
         12    1    6    6    0    0  0.63972711978E+02 -0.33877547848E+01  0.20511892089E+02  0.67266057395E+02  0.00000000000E+00 0. -1.
         -5    1    3    3    0  503 -0.89833868715E+02 -0.76066442802E+02  0.61196934768E+02  0.13275308853E+03  0.47000000000E+01 0.  1.
         13    1    4    4    0    0 -0.58051155625E+02 -0.29962580480E+01 -0.19278121939E+02  0.61241817553E+02  0.00000000000E+00 0. -1.
        -14    1    4    4    0    0  0.19483875156E+02  0.12942349689E+02 -0.39229165010E+02  0.45673331321E+02  0.00000000000E+00 0.  1.
</event>
<event>
12    1  0.8453150E-002  0.3761641E+03  0.7818608E-02  0.1052399E+00
         21   -1    0    0  503  502  0.00000000000E+00  0.00000000000E+00  0.15160947276E+03  0.15160947276E+03  0.00000000000E+00 0.  1.
         21   -1    0    0  501  503 -0.00000000000E+00 -0.00000000000E+00 -0.98323514110E+03  0.98323514110E+03  0.00000000000E+00 0.  1.
          6    2    1    2  501    0 -0.31554935342E+03  0.11156283432E+03 -0.28643405344E+03  0.47247513830E+03  0.17079411259E+03 0.  0.
         24    2    3    3    0    0 -0.19898195393E+03  0.96197374699E+02 -0.10797668408E+03  0.25871551009E+03  0.80168559723E+02 0.  0.
         -6    2    1    2    0  502  0.31554935342E+03 -0.11156283432E+03 -0.54519161491E+03  0.66236947556E+03  0.17170254727E+03 0.  0.
        -24    2    5    5    0    0  0.25672628635E+03 -0.14367645952E+03 -0.47956106728E+03  0.56844984542E+03  0.81271756395E+02 0.  0.
          5    1    3    3  501    0 -0.11656739949E+03  0.15365459624E+02 -0.17845736936E+03  0.21375962821E+03  0.47000000000E+01 0. -1.
        -13    1    4    4    0    0 -0.14968262694E+03  0.35092862475E+02 -0.90086036135E+02  0.17819060500E+03  0.00000000000E+00 0.  1.
         14    1    4    4    0    0 -0.49299326990E+02  0.61104512224E+02 -0.17890647944E+02  0.80524905090E+02  0.00000000000E+00 0. -1.
         -5    1    5    5    0  502  0.58823067065E+02  0.32113625198E+02 -0.65630547631E+02  0.93919630135E+02  0.47000000000E+01 0.  1.
         13    1    6    6    0    0  0.63039263578E+02 -0.77787092563E+02 -0.17318860266E+03  0.20004767585E+03  0.00000000000E+00 0. -1.
        -14    1    6    6    0    0  0.19368702278E+03 -0.65889366959E+02 -0.30637246462E+03  0.36840216957E+03  0.00000000000E+00 0.  1.
</event>
<event>
12    1  0.8453150E-002  0.2100619E+03  0.7818608E-02  0.1141783E+00
         21   -1    0    0  503  502  0.00000000000E+00  0.00000000000E+00  0.40578057859E+02  0.40578057859E+02  0.00000000000E+00 0.  1.
         21   -1    0    0  501  503 -0.00000000000E+00 -0.00000000000E+00 -0.16800255185E+04  0.16800255185E+04  0.00000000000E+00 0. -1.
          6    2    1    2  501    0  0.11238707798E+02  0.11842688283E+03 -0.13353281252E+04  0.13517496856E+04  0.17313224869E+03 0.  0.
         24    2    3    3    0    0 -0.55622773982E+02  0.41620741531E+02 -0.76696902724E+03  0.77432107938E+03  0.80656469785E+02 0.  0.
         -6    2    1    2    0  502 -0.11238707798E+02 -0.11842688283E+03 -0.30411933547E+03  0.36885389076E+03  0.17150331596E+03 0.  0.
        -24    2    5    5    0    0  0.42186318604E+02 -0.12434999705E+03 -0.22511693880E+03  0.27318369995E+03  0.81909038216E+02 0.  0.
          5    1    3    3  501    0  0.66861481780E+02  0.76806141303E+02 -0.56835909791E+03  0.57742860621E+03  0.47000000000E+01 0. -1.
        -11    1    4    4    0    0 -0.66055405985E+02  0.49965763575E+02 -0.73529305289E+03  0.73994308418E+03  0.00000000000E+00 0.  1.
         12    1    4    4    0    0  0.10432632003E+02 -0.83450220442E+01 -0.31675974350E+02  0.34377995207E+02  0.00000000000E+00 0. -1.
         -5    1    5    5    0  502 -0.53425026401E+02  0.59231142156E+01 -0.79002396673E+02  0.95670190802E+02  0.47000000000E+01 0.  1.
         13    1    6    6    0    0 -0.24421543895E+02 -0.27534649672E+02 -0.45207389323E+02  0.58294740656E+02  0.00000000000E+00 0. -1.
        -14    1    6    6    0    0  0.66607862498E+02 -0.96815347378E+02 -0.17990954948E+03  0.21488895930E+03  0.00000000000E+00 0.  1.
</event>
<event>
12    1  0.8453150E-002  0.1777722E+03  0.7818608E-02  0.1170930E+00
         21   -1    0    0  501  502  0.00000000000E+00  0.00000000000E+00  0.29221725043E+02  0.29221725043E+02  0.00000000000E+00 0.  1.
         21   -1    0    0  502  503 -0.00000000000E+00 -0.00000000000E+00 -0.14907067578E+04  0.14907067578E+04  0.00000000000E+00 0.  1.
         -6    2    1    2    0  503 -0.20947958402E+02 -0.35030107585E+02 -0.11456674746E+04  0.11593778093E+04  0.17302316875E+03 0.  0.
        -24    2    3    3    0    0 -0.66672541070E+02 -0.47944293340E+02 -0.54063864409E+03  0.55246802242E+03  0.78656781754E+02 0.  0.
          6    2    1    2  501    0  0.20947958402E+02  0.35030107585E+02 -0.31581755820E+03  0.36055067359E+03  0.16908616964E+03 0.  0.
         24    2    5    5    0    0 -0.50117607164E+02  0.21740205035E+02 -0.13493804698E+03  0.16570092713E+03  0.79146128552E+02 0.  0.
          5    1    5    5  501    0  0.71065565566E+02  0.13289902550E+02 -0.18087951122E+03  0.19484974647E+03  0.47000000000E+01 0. -1.
        -13    1    6    6    0    0 -0.14057573520E+02  0.45396007728E+02 -0.42740356548E+02  0.63915185745E+02  0.00000000000E+00 0.  1.
         14    1    6    6    0    0 -0.36060033644E+02 -0.23655802694E+02 -0.92197690433E+02  0.10178574138E+03  0.00000000000E+00 0. -1.
         -5    1    3    3    0  503  0.45724582668E+02  0.12914185755E+02 -0.60502883049E+03  0.60690978685E+03  0.47000000000E+01 0.  1.
         13    1    4    4    0    0 -0.49861716938E+02 -0.53521872158E+02 -0.52064033203E+03  0.52575387488E+03  0.00000000000E+00 0. -1.
        -14    1    4    4    0    0 -0.16810824132E+02  0.55775788181E+01 -0.19998312059E+02  0.26714147538E+02  0.00000000000E+00 0.  1.
</event>
<event>
12    1  0.8453150E-002  0.2223361E+03  0.7818608E-02  0.1132288E+00
         21   -1    0    0  501  502  0.00000000000E+00  0.00000000000E+00  0.28916600231E+03  0.28916600231E+03  0.00000000000E+00 0. -1.
         21   -1    0    0  502  503 -0.00000000000E+00 -0.00000000000E+00 -0.43702601852E+03  0.43702601852E+03  0.00000000000E+00 0. -1.
         -6    2    1    2    0  503  0.11967118009E+03 -0.73386859664E+02 -0.35759037905E+03  0.42107506194E+03  0.17241376417E+03 0.  0.
        -24    2    3    3    0    0  0.93032260305E+02 -0.11562594885E+03 -0.29678966371E+03  0.34225507914E+03  0.83845531786E+02 0.  0.
          6    2    1    2  501    0 -0.11967118009E+03  0.73386859664E+02  0.20973036285E+03  0.30511695889E+03  0.17147218721E+03 0.  0.
         24    2    5    5    0    0 -0.28643988782E+01  0.64771834472E+02  0.10992990269E+03  0.15116805618E+03  0.81016062501E+02 0.  0.
          5    1    5    5  501    0 -0.11680678122E+03  0.86150251925E+01  0.99800460160E+02  0.15394890271E+03  0.47000000000E+01 0. -1.
        -11    1    6    6    0    0 -0.24914595757E+02  0.52238722507E+02  0.25923764266E+02  0.63416581149E+02  0.00000000000E+00 0.  1.
         12    1    6    6    0    0  0.22050196879E+02  0.12533111965E+02  0.84006138422E+02  0.87751475033E+02  0.00000000000E+00 0. -1.
         -5    1    3    3    0  503  0.26638919789E+02  0.42239089189E+02 -0.60800715338E+02  0.78819982800E+02  0.47000000000E+01 0.  1.
         11    1    4    4    0    0 -0.67421495096E+01 -0.36931065452E+02 -0.11090325199E+03  0.11708497546E+03  0.00000000000E+00 0. -1.
        -12    1    4    4    0    0  0.99774409815E+02 -0.78694883402E+02 -0.18588641172E+03  0.22517010368E+03  0.00000000000E+00 0.  1.
</event>
<event>
12    1  0.8453150E-002  0.1881927E+03  0.7818608E-02  0.1160733E+00
         21   -1    0    0  503  502  0.00000000000E+00  0.00000000000E+00  0.36238754233E+02  0.36238754233E+02  0.00000000000E+00 0. -1.
         21   -1    0    0  501  503 -0.00000000000E+00 -0.00000000000E+00 -0.17739962406E+04  0.17739962406E+04  0.00000000000E+00 0. -1.
          6    2    1    2  501    0  0.64250695294E+02 -0.37745941909E+02 -0.14773451227E+04  0.14889390246E+04  0.16981725356E+03 0.  0.
         24    2    3    3    0    0  0.59914721935E+02  0.40972441449E+02 -0.83131770239E+03  0.83810194648E+03  0.77828243704E+02 0.  0.
         -6    2    1    2    0  502 -0.64250695294E+02  0.37745941909E+02 -0.26041236368E+03  0.32129597019E+03  0.17281085997E+03 0.  0.
        -24    2    5    5    0    0 -0.17989242400E+02 -0.42307753317E+02 -0.15425631601E+03  0.18044174554E+03  0.81551539979E+02 0.  0.
          5    1    3    3  501    0  0.43359733597E+01 -0.78718383358E+02 -0.64602742029E+03  0.65083707816E+03  0.47000000000E+01 0. -1.
        -13    1    4    4    0    0  0.17225075124E+02 -0.21404491306E+02 -0.14047893248E+03  0.14314044128E+03  0.00000000000E+00 0.  1.
         14    1    4    4    0    0  0.42689646811E+02  0.62376932755E+02 -0.69083876991E+03  0.69496150519E+03  0.00000000000E+00 0. -1.
         -5    1    5    5    0  502 -0.46261452894E+02  0.80053695227E+02 -0.10615604767E+03  0.14085422465E+03  0.47000000000E+01 0.  1.
         13    1    6    6    0    0  0.14776946582E+02 -0.71409824369E+01  0.23917292859E+01  0.16585299197E+02  0.00000000000E+00 0. -1.
        -14    1    6    6    0    0 -0.32766188983E+02 -0.35166770880E+02 -0.15664804529E+03  0.16385644634E+03  0.00000000000E+00 0.  1.
</event>
<event>
12    1  0.8453150E-002  0.1922447E+03  0.7818608E-02  0.1157483E+00
         21   -1    0    0  503  502  0.00000000000E+00  0.00000000000E+00  0.96841521572E+03  0.96841521572E+03  0.00000000000E+00 0. -1.
         21   -1    0    0  501  503 -0.00000000000E+00 -0.00000000000E+00 -0.11058099971E+03  0.11058099971E+03  0.00000000000E+00 0. -1.
          6    2    1    2  501    0  0.55903673860E+02  0.58311695010E+02 -0.86337488935E+01  0.19243850625E+03  0.17444931225E+03 0.  0.
         24    2    3    3    0    0  0.75724320170E+02  0.97496116745E+02 -0.23715677027E+02  0.14577126418E+03  0.73804896028E+02 0.  0.
         -6    2    1    2    0  502 -0.55903673860E+02 -0.58311695010E+02  0.86646796491E+03  0.88655770917E+03  0.16938820194E+03 0.  0.
        -24    2    5    5    0    0 -0.34862686554E+01 -0.58910591938E+02  0.27103982048E+03  0.28880800551E+03  0.80404401944E+02 0.  0.
          5    1    3    3  501    0 -0.19820646310E+02 -0.39184421735E+02  0.15081928133E+02  0.46667242077E+02  0.47000000000E+01 0. -1.
        -11    1    4    4    0    0  0.52124716169E+01 -0.10830454474E+02  0.55603363840E+01  0.13243335878E+02  0.00000000000E+00 0.  1.
         12    1    4    4    0    0  0.70511848553E+02  0.10832657122E+03 -0.29276013411E+02  0.13252792830E+03  0.00000000000E+00 0. -1.
         -5    1    5    5    0  502 -0.52417405205E+02  0.59889692801E+00  0.59542814443E+03  0.59774970366E+03  0.47000000000E+01 0.  1.
         11    1    6    6    0    0 -0.21426059332E+02 -0.60506926959E+02  0.25972238838E+03  0.26753669516E+03  0.00000000000E+00 0. -1.
        -12    1    6    6    0    0  0.17939790676E+02  0.15963350208E+01  0.11317432095E+02  0.21271310355E+02  0.00000000000E+00 0.  1.
</event>
<event>
12    1  0.8453150E-002  0.2244189E+03  0.7818608E-02  0.1131211E+00
         21   -1    0    0  503  502  0.00000000000E+00  0.00000000000E+00  0.38336103550E+03  0.38336103550E+03  0.00000000000E+00 0. -1.
         21   -1    0    0  501  503 -0.00000000000E+00 -0.00000000000E+00 -0.15860979213E+03  0.15860979213E+03  0.00000000000E+00 0. -1.
          6    2    1    2  501    0  0.10444850904E+03 -0.99318953103E+02  0.22775913099E+03  0.31753180742E+03  0.16786447357E+03 0.  0.
         24    2    3    3    0    0  0.79720434289E+02  0.29790820022E+01  0.88350134823E+02  0.14279393551E+03  0.78867858609E+02 0.  0.
         -6    2    1    2    0  502 -0.10444850904E+03  0.99318953103E+02 -0.30078876227E+01  0.22443902021E+03  0.17201767618E+03 0.  0.
        -24    2    5    5    0    0 -0.50203271293E+01  0.56136574948E+02 -0.46983775307E+02  0.10736361784E+03  0.78376990009E+02 0.  0.
          5    1    3    3  501    0  0.24728074752E+02 -0.10229803510E+03  0.13940899617E+03  0.17473787191E+03  0.47000000000E+01 0. -1.
        -11    1    4    4    0    0  0.37004263156E+02 -0.22740054896E+02  0.81651721518E+02  0.92484751258E+02  0.00000000000E+00 0.  1.
         12    1    4    4    0    0  0.42716171132E+02  0.25719136898E+02  0.66984133051E+01  0.50309184249E+02  0.00000000000E+00 0. -1.
         -5    1    5    5    0  502 -0.99428181911E+02  0.43182378155E+02  0.43975887685E+02  0.11707540236E+03  0.47000000000E+01 0.  1.
         13    1    6    6    0    0 -0.36063137752E+02  0.43812077767E+02 -0.47435642850E+02  0.73960721166E+02  0.00000000000E+00 0. -1.
        -14    1    6    6    0    0  0.31042810623E+02  0.12324497180E+02  0.45186754303E+00  0.33402896677E+02  0.00000000000E+00 0.  1.
</event>
<event>
12    1  0.8453150E-002  0.1945340E+03  0.7818608E-02  0.1154574E+00
         21   -1    0    0  501  502  0.00000000000E+00  0.00000000000E+00  0.32894713980E+03  0.32894713980E+03  0.00000000000E+00 0. -1.
         21   -1    0    0  502  503 -0.00000000000E+00 -0.00000000000E+00 -0.12195422430E+03  0.12195422430E+03  0.00000000000E+00 0. -1.
         -6    2    1    2    0  503 -0.36561846265E+01 -0.91113759439E+02  0.15876164439E+03  0.25109508839E+03  0.17183829270E+03 0.  0.
        -24    2    3    3    0    0  0.37159741756E+02 -0.65493813702E+02  0.30380808619E+02  0.11388703302E+03  0.79855974832E+02 0.  0.
          6    2    1    2  501    0  0.36561846265E+01  0.91113759439E+02  0.48231271116E+02  0.19980627571E+03  0.17111752527E+03 0.  0.
         24    2    5    5    0    0 -0.25026550986E+02  0.59257003207E+02 -0.34741940003E+02  0.10629586986E+03  0.77162742760E+02 0.  0.
          5    1    5    5  501    0  0.28682735613E+02  0.31856756232E+02  0.82973211119E+02  0.93510405855E+02  0.47000000000E+01 0. -1.
        -13    1    6    6    0    0 -0.33372769061E+02 -0.66389891997E+01 -0.12436718520E+02  0.36228301919E+02  0.00000000000E+00 0.  1.
         14    1    6    6    0    0  0.83462180748E+01  0.65895992407E+02 -0.22305221483E+02  0.70067567939E+02  0.00000000000E+00 0. -1.
         -5    1    3    3    0  503 -0.40815926382E+02 -0.25619945737E+02  0.12838083577E+03  0.13720805537E+03  0.47000000000E+01 0.  1.
         13    1    4    4    0    0 -0.17682627251E+02 -0.44911873334E+02  0.26780559244E+02  0.55199185015E+02  0.00000000000E+00 0. -1.
        -14    1    4    4    0    0  0.54842369006E+02 -0.20581940368E+02  0.36002493747E+01  0.58687848002E+02  0.00000000000E+00 0.  1.
</event>
<event>
12    1  0.8453150E-002  0.1811226E+03  0.7818608E-02  0.1167485E+00
         21   -1    0    0  503  502  0.00000000000E+00  0.00000000000E+00  0.18514871806E+04  0.18514871806E+04  0.00000000000E+00 0. -1.
         21   -1    0    0  501  503 -0.00000000000E+00 -0.00000000000E+00 -0.17411712765E+02  0.17411712765E+02  0.00000000000E+00 0.  1.
          6    2    1    2  501    0  0.24722471453E+02  0.40868540321E+02  0.91382963006E+03  0.93099816291E+03  0.17143963482E+03 0.  0.
         24    2    3    3    0    0  0.24782631825E+02 -0.38730294151E+02  0.33734172084E+03  0.34902189403E+03  0.76828584301E+02 0.  0.
         -6    2    1    2    0  502 -0.24722471453E+02 -0.40868540321E+02  0.92024583774E+03  0.93790073042E+03  0.17471101871E+03 0.  0.
        -24    2    5    5    0    0  0.41373374366E+02  0.10934798201E+02  0.60559386401E+03  0.61220117363E+03  0.78835416889E+02 0.  0.
          5    1    3    3  501    0 -0.60160371981E-01  0.79598834473E+02  0.57648790922E+03  0.58197626888E+03  0.47000000000E+01 0. -1.
        -13    1    4    4    0    0 -0.21119576588E+02 -0.18938300724E+02  0.51077692506E+02  0.58426247709E+02  0.00000000000E+00 0.  1.
         14    1    4    4    0    0  0.45902208413E+02 -0.19791993427E+02  0.28626402833E+03  0.29059564632E+03  0.00000000000E+00 0. -1.
         -5    1    5    5    0  502 -0.66095845818E+02 -0.51803338522E+02  0.31465197373E+03  0.32569955678E+03  0.47000000000E+01 0.  1.
         11    1    6    6    0    0  0.38205423683E+01  0.30194231225E+02  0.44867403001E+03  0.44970509598E+03  0.00000000000E+00 0. -1.
        -12    1    6    6    0    0  0.37552831997E+02 -0.19259433024E+02  0.15691983399E+03  0.16249607765E+03  0.00000000000E+00 0.  1.
</event>
<event>
12    1  0.8453150E-002  0.1863249E+03  0.7818608E-02  0.1162488E+00
         21   -1    0    0  501  502  0.00000000000E+00  0.00000000000E+00  0.40399842985E+03  0.40399842985E+03  0.00000000000E+00 0.  1.
         21   -1    0    0  502  503 -0.00000000000E+00 -0.00000000000E+00 -0.84776341820E+02  0.84776341820E+02  0.00000000000E+00 0.  1.
         -6    2    1    2    0  503  0.71614867460E+02  0.13095933989E+02  0.15016884100E+03  0.23930662163E+03  0.17151322288E+03 0.  0.
        -24    2    3    3    0    0 -0.29032016931E+02  0.10812392793E+02  0.70510383741E+02  0.11084429365E+03  0.79718111960E+02 0.  0.
          6    2    1    2  501    0 -0.71614867460E+02 -0.13095933989E+02  0.16905324703E+03  0.24946815004E+03  0.16838991901E+03 0.  0.
         24    2    5    5    0    0 -0.20292307598E+02 -0.59608281331E+02  0.50415979775E+02  0.11201163041E+03  0.77716853897E+02 0.  0.
          5    1    5    5  501    0 -0.51322559861E+02  0.46512347342E+02  0.11863726726E+03  0.13745651963E+03  0.47000000000E+01 0. -1.
        -11    1    6    6    0    0 -0.99772116858E+01 -0.72307212744E+02  0.58705673993E+02  0.93670880891E+02  0.00000000000E+00 0.  1.
         12    1    6    6    0    0 -0.10315095913E+02  0.12698931413E+02 -0.82896942184E+01  0.18340749520E+02  0.00000000000E+00 0. -1.
         -5    1    3    3    0  503  0.10064688439E+03  0.22835411965E+01  0.79658457257E+02  0.12846232798E+03  0.47000000000E+01 0.  1.
         13    1    4    4    0    0 -0.33714822500E+02 -0.29559859428E+02  0.35187615524E+02  0.56996866860E+02  0.00000000000E+00 0. -1.
        -14    1    4    4    0    0  0.46828055695E+01  0.40372252221E+02  0.35322768217E+02  0.53847426790E+02  0.00000000000E+00 0.  1.
</event>
<event>
12    1  0.8453150E-002  0.1810221E+03  0.7818608E-02  0.1168700E+00
         21   -1    0    0  501  502  0.00000000000E+00  0.00000000000E+00  0.12032955384E+04  0.12032955384E+04  0.00000000000E+00 0. -1.
         21   -1    0    0  502  503 -0.00000000000E+00 -0.00000000000E+00 -0.26481938572E+02  0.26481938572E+02  0.00000000000E+00 0. -1.
         -6    2    1    2    0  503 -0.62545776086E+01 -0.26199478508E+02  0.52641448956E+03  0.55666973938E+03  0.17900684765E+03 0.  0.
        -24    2    3    3    0    0 -0.21336377093E+02  0.19546508577E+02  0.11237104278E+03  0.13980738580E+03  0.77984273311E+02 0.  0.
          6    2    1    2  501    0  0.62545776086E+01  0.26199478508E+02  0.65039911031E+03  0.67310773764E+03  0.17125855120E+03 0.  0.
         24    2    5    5    0    0  0.49588296265E+02  0.44437443366E+02  0.26023050557E+03  0.28008857187E+03  0.79347379055E+02 0.  0.
          5    1    5    5  501    0 -0.43333718657E+02 -0.18237964859E+02  0.39016860475E+03  0.39301916577E+03  0.47000000000E+01 0. -1.
        -13    1    6    6    0    0  0.23484780743E+02 -0.21793806125E+02  0.91837284043E+02  0.97265572802E+02  0.00000000000E+00 0.  1.
         14    1    6    6    0    0  0.26103515522E+02  0.66231249492E+02  0.16839322152E+03  0.18282299906E+03  0.00000000000E+00 0. -1.
         -5    1    3    3    0  503  0.15081799484E+02 -0.45745987085E+02  0.41404344678E+03  0.41686235358E+03  0.47000000000E+01 0.  1.
         13    1    4    4    0    0 -0.15532548463E+02 -0.26302225914E+02  0.19973436264E+02  0.36496647873E+02  0.00000000000E+00 0. -1.
        -14    1    4    4    0    0 -0.58038286303E+01  0.45848734491E+02  0.92397606516E+02  0.10331073793E+03  0.00000000000E+00 0.  1.
</event>
<event>
12    1  0.8453150E-002  0.1917312E+03  0.7818608E-02  0.1157287E+00
         21   -1    0    0  501  502  0.00000000000E+00  0.00000000000E+00  0.21485504416E+03  0.21485504416E+03  0.00000000000E+00 0. -1.
         21   -1    0    0  502  503 -0.00000000000E+00 -0.00000000000E+00 -0.42538342886E+03  0.42538342886E+03  0.00000000000E+00 0. -1.
         -6    2    1    2    0  503 -0.82935607352E+02  0.19439665969E+02 -0.35368364322E+03  0.40230955278E+03  0.17176915089E+03 0.  0.
        -24    2    3    3    0    0 -0.11014437018E+03  0.20711700479E+01 -0.18192178568E+03  0.22747761310E+03  0.80712182047E+02 0.  0.
          6    2    1    2  501    0  0.82935607352E+02 -0.19439665969E+02  0.14315525852E+03  0.23792892024E+03  0.16988386464E+03 0.  0.
         24    2    5    5    0    0  0.12132428880E+03  0.43300968075E+01  0.10644922501E+03  0.17954985394E+03  0.78539033308E+02 0.  0.
          5    1    5    5  501    0 -0.38388681450E+02 -0.23769762776E+02  0.36706033508E+02  0.58379066298E+02  0.47000000000E+01 0. -1.
        -13    1    6    6    0    0  0.18724809108E+02 -0.30792579216E+02  0.23589673426E+02  0.43072892905E+02  0.00000000000E+00 0.  1.
         14    1    6    6    0    0  0.10259947969E+03  0.35122676023E+02  0.82859551589E+02  0.13647696104E+03  0.00000000000E+00 0. -1.
         -5    1    3    3    0  503  0.27208762830E+02  0.17368495921E+02 -0.17176185754E+03  0.17483193968E+03  0.47000000000E+01 0.  1.
         11    1    4    4    0    0 -0.92469126457E+02 -0.31901683602E+02 -0.12213681692E+03  0.15647894047E+03  0.00000000000E+00 0. -1.
        -12    1    4    4    0    0 -0.17675243726E+02  0.33972853650E+02 -0.59784968756E+02  0.70998672629E+02  0.00000000000E+00 0.  1.
</event>
<event>
12    1  0.8453150E-002  0.1964897E+03  0.7818608E-02  0.1152782E+00
         21   -1    0    0  501  502  0.00000000000E+00  0.00000000000E+00  0.19979184528E+03  0.19979184528E+03  0.00000000000E+00 0. -1.
         21   -1    0    0  502  503 -0.00000000000E+00 -0.00000000000E+00 -0.50021403162E+03  0.50021403162E+03  0.00000000000E+00 0. -1.
         -6    2    1    2    0  503  0.50167333707E+02 -0.79830643923E+02 -0.42452486686E+03  0.46779222909E+03  0.17239058538E+03 0.  0.
        -24    2    3    3    0    0  0.44421614260E+02 -0.11100907991E+03 -0.40624581671E+03  0.43089613394E+03  0.79621096568E+02 0.  0.
          6    2    1    2  501    0 -0.50167333707E+02  0.79830643923E+02  0.12410268053E+03  0.23221364781E+03  0.17213950690E+03 0.  0.
         24    2    5    5    0    0 -0.29144608727E+02 -0.33501204538E+01  0.11937991627E+03  0.14615907774E+03  0.79058712810E+02 0.  0.
          5    1    5    5  501    0 -0.21022724980E+02  0.83180764377E+02  0.47227642520E+01  0.86054570071E+02  0.47000000000E+01 0. -1.
        -13    1    6    6    0    0 -0.28739363500E+02  0.16644575923E+02  0.95979657780E+01  0.34570418990E+02  0.00000000000E+00 0.  1.
         14    1    6    6    0    0 -0.40524522658E+00 -0.19994696377E+02  0.10978195050E+03  0.11158865875E+03  0.00000000000E+00 0. -1.
         -5    1    3    3    0  503  0.57457194470E+01  0.31178435984E+02 -0.18279050155E+02  0.36896095145E+02  0.47000000000E+01 0.  1.
         13    1    4    4    0    0  0.46013150149E+02 -0.46515799904E+02 -0.11244118348E+03  0.13009208035E+03  0.00000000000E+00 0. -1.
        -14    1    4    4    0    0 -0.15915358887E+01 -0.64493280003E+02 -0.29380463322E+03  0.30080405359E+03  0.00000000000E+00 0.  1.
</event>
<event>
12    1  0.8453150E-002  0.2282527E+03  0.7818608E-02  0.1127993E+00
         21   -1    0    0  501  502  0.00000000000E+00  0.00000000000E+00  0.31009524786E+03  0.31009524786E+03  0.00000000000E+00 0. -1.
         21   -1    0    0  502  503 -0.00000000000E+00 -0.00000000000E+00 -0.21518584512E+03  0.21518584512E+03  0.00000000000E+00 0. -1.
         -6    2    1    2    0  503  0.13151802931E+03  0.69750785788E+02 -0.76199986688E+02  0.24001328692E+03  0.17215625395E+03 0.  0.
        -24    2    3    3    0    0  0.14406030503E+03  0.99344528651E+02 -0.76729537355E+02  0.20752530882E+03  0.80972989574E+02 0.  0.
          6    2    1    2  501    0 -0.13151802931E+03 -0.69750785788E+02  0.17110938943E+03  0.28526780607E+03  0.17302350672E+03 0.  0.
         24    2    5    5    0    0 -0.37108200135E+02  0.25974632685E+02  0.85798185919E+02  0.12596726297E+03  0.80341288101E+02 0.  0.
          5    1    5    5  501    0 -0.94409829178E+02 -0.95725418473E+02  0.85311203507E+02  0.15930054310E+03  0.47000000000E+01 0. -1.
        -13    1    6    6    0    0 -0.14908036671E+02 -0.21006967038E+02  0.11584818636E+00  0.25759573799E+02  0.00000000000E+00 0.  1.
         14    1    6    6    0    0 -0.22200163464E+02  0.46981599723E+02  0.85682337733E+02  0.10020768917E+03  0.00000000000E+00 0. -1.
         -5    1    3    3    0  503 -0.12542275716E+02 -0.29593742864E+02  0.52955066707E+00  0.32487978095E+02  0.47000000000E+01 0.  1.
         11    1    4    4    0    0  0.57151117233E+02 -0.34291064853E+01 -0.13526016237E+02  0.58829942100E+02  0.00000000000E+00 0. -1.
        -12    1    4    4    0    0  0.86909187796E+02  0.10277363514E+03 -0.63203521118E+02  0.14869536672E+03  0.00000000000E+00 0.  1.
</event>
<event>
12    1  0.8453150E-002  0.2414977E+03  0.7818608E-02  0.1118948E+00
         21   -1    0    0  501  502  0.00000000000E+00  0.00000000000E+00  0.34269397522E+03  0.34269397522E+03  0.00000000000E+00 0.  1.
         21   -1    0    0  502  503 -0.00000000000E+00 -0.00000000000E+00 -0.16981155150E+03  0.16981155150E+03  0.00000000000E+00 0. -1.
         -6    2    1    2    0  503 -0.11275971750E+03  0.12482067212E+03  0.76537958108E+02  0.25333616992E+03  0.17328070255E+03 0.  0.
        -24    2    3    3    0    0 -0.79499571588E+02  0.84883340332E+02 -0.19742944129E+02  0.14382210729E+03  0.82277891046E+02 0.  0.
          6    2    1    2  501    0  0.11275971750E+03 -0.12482067212E+03  0.96344465610E+02  0.25916935680E+03  0.17202193282E+03 0.  0.
         24    2    5    5    0    0  0.90958227562E+02 -0.14437252761E+03  0.11677464917E+03  0.22315460404E+03  0.83933501807E+02 0.  0.
          5    1    5    5  501    0  0.21801489939E+02  0.19551855490E+02 -0.20430183556E+02  0.36014752766E+02  0.47000000000E+01 0. -1.
        -11    1    6    6    0    0  0.36533497621E+02 -0.12831990826E+03  0.81778172929E+02  0.15648758696E+03  0.00000000000E+00 0.  1.
         12    1    6    6    0    0  0.54424729940E+02 -0.16052619348E+02  0.34996476236E+02  0.66667017077E+02  0.00000000000E+00 0. -1.
         -5    1    3    3    0  503 -0.33260145913E+02  0.39937331790E+02  0.96280902237E+02  0.10951406262E+03  0.47000000000E+01 0.  1.
         13    1    4    4    0    0 -0.18294447764E+02 -0.16102225246E+02 -0.37707562663E+01  0.24661449262E+02  0.00000000000E+00 0. -1.
        -14    1    4    4    0    0 -0.61205123824E+02  0.10098556558E+03 -0.15972187863E+02  0.11916065803E+03  0.00000000000E+00 0.  1.
</event>
<event>
12    1  0.8453150E-002  0.1904684E+03  0.7818608E-02  0.1158329E+00
         21   -1    0    0  501  502  0.00000000000E+00  0.00000000000E+00  0.13814506888E+03  0.13814506888E+03  0.00000000000E+00 0.  1.
         21   -1    0    0  502  503 -0.00000000000E+00 -0.00000000000E+00 -0.27225875006E+03  0.27225875006E+03  0.00000000000E+00 0.  1.
         -6    2    1    2    0  503  0.77233488634E+02  0.25327160665E+02 -0.24827157848E+02  0.19080930606E+03  0.17083713495E+03 0.  0.
        -24    2    3    3    0    0  0.64396111572E+02  0.63912935423E+02  0.26982227233E+02  0.12477929284E+03  0.81302575820E+02 0.  0.
          6    2    1    2  501    0 -0.77233488634E+02 -0.25327160665E+02 -0.10928652333E+03  0.21959451288E+03  0.17225483759E+03 0.  0.
         24    2    5    5    0    0 -0.39747953061E+02  0.26445319627E+02 -0.12880136348E+03  0.15259843778E+03  0.66462299665E+02 0.  0.
          5    1    5    5  501    0 -0.37485535573E+02 -0.51772480291E+02  0.19514840149E+02  0.66996075099E+02  0.47000000000E+01 0. -1.
        -13    1    6    6    0    0  0.13722145900E+02  0.24245954027E+02 -0.36675870782E+02  0.46057388901E+02  0.00000000000E+00 0.  1.
         14    1    6    6    0    0 -0.53470098961E+02  0.21993656002E+01 -0.92125492698E+02  0.10654104888E+03  0.00000000000E+00 0. -1.
         -5    1    3    3    0  503  0.12837377061E+02 -0.38585774758E+02 -0.51809385081E+02  0.66030013222E+02  0.47000000000E+01 0.  1.
         13    1    4    4    0    0 -0.93737272091E+01  0.39086600960E+02 -0.52457035581E+01  0.40535744007E+02  0.00000000000E+00 0. -1.
        -14    1    4    4    0    0  0.73769838781E+02  0.24826334463E+02  0.32227930791E+02  0.84243548832E+02  0.00000000000E+00 0.  1.
</event>
<event>
12    1  0.8453150E-002  0.1845890E+03  0.7818608E-02  0.1164098E+00
         21   -1    0    0  503  502  0.00000000000E+00  0.00000000000E+00  0.30063241966E+03  0.30063241966E+03  0.00000000000E+00 0.  1.
         21   -1    0    0  501  503 -0.00000000000E+00 -0.00000000000E+00 -0.46454473436E+03  0.46454473436E+03  0.00000000000E+00 0.  1.
          6    2    1    2  501    0  0.37468699898E+02  0.50566534790E+02 -0.41557723867E+03  0.45472798680E+03  0.17352873759E+03 0.  0.
         24    2    3    3    0    0  0.16002726691E+02  0.23921451902E+02 -0.80988040221E+02  0.11836096974E+03  0.81375262685E+02 0.  0.
         -6    2    1    2    0  502 -0.37468699898E+02 -0.50566534790E+02  0.25166492397E+03  0.31044916722E+03  0.17053613563E+03 0.  0.
        -24    2    5    5    0    0  0.20367695857E+01 -0.36466474715E+02  0.41823609965E+02  0.96404870688E+02  0.78808200927E+02 0.  0.
          5    1    3    3  501    0  0.21465973207E+02  0.26645082889E+02 -0.33458919845E+03  0.33636701706E+03  0.47000000000E+01 0. -1.
        -13    1    4    4    0    0 -0.27744802284E+02  0.70482829091E+01 -0.61013260757E+02  0.67394883589E+02  0.00000000000E+00 0.  1.
         14    1    4    4    0    0  0.43747528975E+02  0.16873168992E+02 -0.19974779464E+02  0.50966086154E+02  0.00000000000E+00 0. -1.
         -5    1    5    5    0  502 -0.39505469484E+02 -0.14100060075E+02  0.20984131400E+03  0.21404429653E+03  0.47000000000E+01 0.  1.
         13    1    6    6    0    0  0.17538655100E+02  0.15824646627E+02 -0.54331534293E+01  0.24239286701E+02  0.00000000000E+00 0. -1.
        -14    1    6    6    0    0 -0.15501885514E+02 -0.52291121342E+02  0.47256763394E+02  0.72165583987E+02  0.00000000000E+00 0.  1.
</event>
<event>
12    1  0.8453150E-002  0.1856133E+03  0.7818608E-02  0.1162655E+00
         21   -1    0    0  503  502  0.00000000000E+00  0.00000000000E+00  0.86590765923E+02  0.86590765923E+02  0.00000000000E+00 0. -1.
         21   -1    0    0  501  503 -0.00000000000E+00 -0.00000000000E+00 -0.95365591280E+03  0.95365591280E+03  0.00000000000E+00 0. -1.
          6    2    1    2  501    0  0.67054501264E+02 -0.16392675507E+02 -0.83154354106E+03  0.85200760045E+03  0.17229992628E+03 0.  0.
         24    2    3    3    0    0  0.17701749897E+02 -0.45633014615E+02 -0.23902750455E+03  0.25670260718E+03  0.79789451848E+02 0.  0.
         -6    2    1    2    0  502 -0.67054501264E+02  0.16392675507E+02 -0.35521605815E+02  0.18823907827E+03  0.17148510185E+03 0.  0.
        -24    2    5    5    0    0 -0.71873592538E+02  0.11859034391E+02  0.39916595711E+02  0.11236556648E+03  0.75671896469E+02 0.  0.
          5    1    3    3  501    0  0.49352751367E+02  0.29240339108E+02 -0.59251603651E+03  0.59530499328E+03  0.47000000000E+01 0. -1.
        -13    1    4    4    0    0  0.35480922365E+02  0.32831435989E+01 -0.55634896136E+02  0.66067515103E+02  0.00000000000E+00 0.  1.
         14    1    4    4    0    0 -0.17779172468E+02 -0.48916158214E+02 -0.18339260842E+03  0.19063509207E+03  0.00000000000E+00 0. -1.
         -5    1    5    5    0  502  0.48190912737E+01  0.45336411155E+01 -0.75438201526E+02  0.75873511794E+02  0.47000000000E+01 0.  1.
         11    1    6    6    0    0 -0.19623787804E+02  0.40126299133E+02  0.24697718911E+02  0.51041064343E+02  0.00000000000E+00 0. -1.
        -12    1    6    6    0    0 -0.52249804734E+02 -0.28267264742E+02  0.15218876800E+02  0.61324502132E+02  0.00000000000E+00 0.  1.
</event>
<event>
12    1  0.8453150E-002  0.2031299E+03  0.7818608E-02  0.1147163E+00
         21   -1    0    0  503  502  0.00000000000E+00  0.00000000000E+00  0.25520068426E+04  0.25520068426E+04  0.00000000000E+00 0. -1.
         21   -1    0    0  501  503 -0.00000000000E+00 -0.00000000000E+00 -0.16382013827E+02  0.16382013827E+02  0.00000000000E+00 0. -1.
          6    2    1    2  501    0  0.36882912855E+02  0.10048097226E+03  0.14200623639E+04  0.14345169531E+04  0.17264123527E+03 0.  0.
         24    2    3    3    0    0 -0.17974686776E+02  0.85760854299E+02  0.12426294767E+04  0.12481555902E+04  0.78015045928E+02 0.  0.
         -6    2    1    2    0  502 -0.36882912855E+02 -0.10048097226E+03  0.11155624648E+04  0.11338719034E+04  0.17242130157E+03 0.  0.
        -24    2    5    5    0    0 -0.69289891467E+02 -0.10061685685E+02  0.62471537201E+03  0.63369311714E+03  0.79970895399E+02 0.  0.
          5    1    3    3  501    0  0.54857599631E+02  0.14720117963E+02  0.17743288722E+03  0.18636136288E+03  0.47000000000E+01 0. -1.
        -11    1    4    4    0    0 -0.47107277105E+02  0.68418343849E+02  0.83712760800E+03  0.84123884683E+03  0.00000000000E+00 0.  1.
         12    1    4    4    0    0  0.29132590329E+02  0.17342510450E+02  0.40550186871E+03  0.40691674335E+03  0.00000000000E+00 0. -1.
         -5    1    5    5    0  502  0.32406978612E+02 -0.90419286576E+02  0.49084709284E+03  0.50017878623E+03  0.47000000000E+01 0.  1.
         11    1    6    6    0    0 -0.70193010773E+02  0.17611745770E+02  0.33895395602E+03  0.34659344577E+03  0.00000000000E+00 0. -1.
        -12    1    6    6    0    0  0.90311930592E+00 -0.27673431455E+02  0.28576141599E+03  0.28709967137E+03  0.00000000000E+00 0.  1.
</event>
<event>
12    1  0.8453150E-002  0.2334051E+03  0.7818608E-02  0.1124376E+00
         21   -1    0    0  503  502  0.00000000000E+00  0.00000000000E+00  0.20004051537E+03  0.20004051537E+03  0.00000000000E+00 0.  1.
         21   -1    0    0  501  503 -0.00000000000E+00 -0.00000000000E+00 -0.43189131337E+03  0.43189131337E+03  0.00000000000E+00 0. -1.
          6    2    1    2  501    0  0.12941251320E+03  0.90858547825E+02 -0.30832009554E+03  0.38631932963E+03  0.17081706252E+03 0.  0.
         24    2    3    3    0    0  0.13344699427E+03  0.33793926069E+02 -0.28008088417E+03  0.32234909318E+03  0.80706297607E+02 0.  0.
         -6    2    1    2    0  502 -0.12941251320E+03 -0.90858547825E+02  0.76469297538E+02  0.24561249911E+03  0.17168305673E+03 0.  0.
        -24    2    5    5    0    0 -0.98301284489E+02 -0.11592073559E+03  0.10065493693E+03  0.19867576552E+03  0.78992936425E+02 0.  0.
          5    1    3    3  501    0 -0.40344810712E+01  0.57064621756E+02 -0.28239211371E+02  0.63970236458E+02  0.47000000000E+01 0. -1.
        -11    1    4    4    0    0  0.46730760203E+02  0.56571356407E+01 -0.29141766017E+02  0.55362529380E+02  0.00000000000E+00 0.  1.
         12    1    4    4    0    0  0.86716234064E+02  0.28136790428E+02 -0.25093911816E+03  0.26698656380E+03  0.00000000000E+00 0. -1.
         -5    1    5    5    0  502 -0.31111228706E+02  0.25062187770E+02 -0.24185639387E+02  0.46936733589E+02  0.47000000000E+01 0.  1.
         13    1    6    6    0    0 -0.87143694071E+01 -0.28473233728E+02 -0.10182545850E+02  0.31469819082E+02  0.00000000000E+00 0. -1.
        -14    1    6    6    0    0 -0.89586915082E+02 -0.87447501867E+02  0.11083748278E+03  0.16720594644E+03  0.00000000000E+00 0.  1.
</event>
<event>
12    1  0.8453150E-002  0.2854541E+03  0.7818608E-02  0.1092919E+00
         21   -1    0    0  503  502  0.00000000000E+00  0.00000000000E+00  0.40573981017E+03  0.40573981017E+03  0.00000000000E+00 0. -1.
         21   -1    0    0  501  503 -0.00000000000E+00 -0.00000000000E+00 -0.20310523233E+03  0.20310523233E+03  0.00000000000E+00 0. -1.
          6    2    1    2  501    0 -0.22683697098E+03 -0.11443229586E+02  0.63446026169E+02  0.29242000800E+03  0.17291068196E+03 0.  0.
         24    2    3    3    0    0 -0.57988911723E+02 -0.31450417653E+02  0.64885230972E+02  0.12231969642E+03  0.80001076745E+02 0.  0.
         -6    2    1    2    0  502  0.22683697098E+03  0.11443229586E+02  0.13918855167E+03  0.31642503450E+03  0.17077877688E+03 0.  0.
        -24    2    5    5    0    0  0.34984466922E+02 -0.34223983412E+02  0.52562146096E+02  0.10097410784E+03  0.70977442082E+02 0.  0.
          5    1    3    3  501    0 -0.16884805926E+03  0.20007188066E+02 -0.14392048034E+01  0.17010031158E+03  0.47000000000E+01 0. -1.
        -11    1    4    4    0    0  0.13027146705E+02  0.14176700295E+02  0.10949881175E+02  0.22149159810E+02  0.00000000000E+00 0.  1.
         12    1    4    4    0    0 -0.71016058428E+02 -0.45627117947E+02  0.53935349797E+02  0.10017053661E+03  0.00000000000E+00 0. -1.
         -5    1    5    5    0  502  0.19185250406E+03  0.45667212999E+02  0.86626405578E+02  0.21545092666E+03  0.47000000000E+01 0.  1.
         11    1    6    6    0    0  0.49037869602E+02 -0.39500375095E+01  0.45171030776E+02  0.66788752592E+02  0.00000000000E+00 0. -1.
        -12    1    6    6    0    0 -0.14053402680E+02 -0.30273945903E+02  0.73911153194E+01  0.34185355243E+02  0.00000000000E+00 0.  1.
</event>
<event>
12    1  0.8453150E-002  0.1993355E+03  0.7818608E-02  0.1150419E+00
         21   -1    0    0  501  502  0.00000000000E+00  0.00000000000E+00  0.11563964886E+04  0.11563964886E+04  0.00000000000E+00 0. -1.
         21   -1    0    0  502  503 -0.00000000000E+00 -0.00000000000E+00 -0.88588204687E+02  0.88588204687E+02  0.00000000000E+00 0. -1.
         -6    2    1    2    0  503  0.85510020111E+02  0.51680292991E+02  0.46732912318E+02  0.20474033583E+03  0.17248716995E+03 0.  0.
        -24    2    3    3    0    0  0.48162457329E+02 -0.17605183012E+02 -0.24873386890E+02  0.98228037398E+02  0.80003107382E+02 0.  0.
          6    2    1    2  501    0 -0.85510020111E+02 -0.51680292991E+02  0.10210753716E+04  0.10402443574E+04  0.17184467557E+03 0.  0.
         24    2    5    5    0    0 -0.30320131273E+02  0.69475614310E+01  0.23685224628E+03  0.25188457321E+03  0.79870349203E+02 0.  0.
          5    1    5    5  501    0 -0.55189888839E+02 -0.58627854422E+02  0.78422312527E+03  0.78835978421E+03  0.47000000000E+01 0. -1.
        -11    1    6    6    0    0 -0.27674002374E+02  0.33980647127E+02  0.20673113391E+03  0.21132509675E+03  0.00000000000E+00 0.  1.
         12    1    6    6    0    0 -0.26461288992E+01 -0.27033085696E+02  0.30121112364E+02  0.40559476457E+02  0.00000000000E+00 0. -1.
         -5    1    3    3    0  503  0.37347562782E+02  0.69285476003E+02  0.71606299208E+02  0.10651229843E+03  0.47000000000E+01 0.  1.
         11    1    4    4    0    0  0.18884775887E+02  0.12998969196E+02 -0.45627242439E+02  0.51063227601E+02  0.00000000000E+00 0. -1.
        -12    1    4    4    0    0  0.29277681442E+02 -0.30604152208E+02  0.20753855549E+02  0.47164809797E+02  0.00000000000E+00 0.  1.
</event>
<event>
12    1  0.8453150E-002  0.1954130E+03  0.7818608E-02  0.1153977E+00
         21   -1    0    0  501  502  0.00000000000E+00  0.00000000000E+00  0.62302931847E+03  0.62302931847E+03  0.00000000000E+00 0.  1.
         21   -1    0    0  502  503 -0.00000000000E+00 -0.00000000000E+00 -0.70911455213E+02  0.70911455213E+02  0.00000000000E+00 0.  1.
         -6    2    1    2    0  503 -0.84397475256E+02  0.39395949422E+02  0.40590945529E+03  0.44988513542E+03  0.17017395370E+03 0.  0.
        -24    2    3    3    0    0 -0.72062733255E+02 -0.45752484435E+01  0.38445780224E+03  0.39921092580E+03  0.79671771375E+02 0.  0.
          6    2    1    2  501    0  0.84397475256E+02 -0.39395949422E+02  0.14620840797E+03  0.24405563827E+03  0.17178847851E+03 0.  0.
         24    2    5    5    0    0  0.10367195866E+03 -0.26369006830E+02  0.48657968146E+02  0.14365949664E+03  0.82627196356E+02 0.  0.
          5    1    5    5  501    0 -0.19274483400E+02 -0.13026942592E+02  0.97550439828E+02  0.10039614163E+03  0.47000000000E+01 0. -1.
        -13    1    6    6    0    0  0.11046299214E+02 -0.39318179742E+02  0.77098279781E+01  0.41561778500E+02  0.00000000000E+00 0.  1.
         14    1    6    6    0    0  0.92625659441E+02  0.12949172912E+02  0.40948140168E+02  0.10209771814E+03  0.00000000000E+00 0. -1.
         -5    1    3    3    0  503 -0.12334742001E+02  0.43971197866E+02  0.21451653052E+02  0.50674209620E+02  0.47000000000E+01 0.  1.
         11    1    4    4    0    0 -0.50493773812E+02 -0.39615402682E+02  0.19333671574E+03  0.20371079249E+03  0.00000000000E+00 0. -1.
        -12    1    4    4    0    0 -0.21568959444E+02  0.35040154239E+02  0.19112108649E+03  0.19550013331E+03  0.00000000000E+00 0.  1.
</event>
<event>
12    1  0.8453150E-002  0.2208158E+03  0.7818608E-02  0.1133520E+00
         21   -1    0    0  501  502  0.00000000000E+00  0.00000000000E+00  0.11139161209E+04  0.11139161209E+04  0.00000000000E+00 0.  1.
         21   -1    0    0  502  503 -0.00000000000E+00 -0.00000000000E+00 -0.51153645255E+02  0.51153645255E+02  0.00000000000E+00 0. -1.
         -6    2    1    2    0  503  0.12427233752E+03 -0.58348533948E+02  0.30490479913E+03  0.37569792915E+03  0.17127122392E+03 0.  0.
        -24    2    3    3    0    0  0.14379643893E+03 -0.69243696069E+02  0.30418769826E+03  0.35283968496E+03  0.80582766252E+02 0.  0.
          6    2    1    2  501    0 -0.12427233752E+03  0.58348533948E+02  0.75785767650E+03  0.78937183700E+03  0.17294933918E+03 0.  0.
         24    2    5    5    0    0 -0.80669442536E+01  0.16766034197E+02  0.16640956164E+03  0.18516511717E+03  0.79043044723E+02 0.  0.
          5    1    5    5  501    0 -0.11620539327E+03  0.41582499751E+02  0.59144811486E+03  0.60420671982E+03  0.47000000000E+01 0. -1.
        -11    1    6    6    0    0  0.16493238849E+02 -0.24126985233E+02  0.94140130384E+02  0.98572321130E+02  0.00000000000E+00 0.  1.
         12    1    6    6    0    0 -0.24560183102E+02  0.40893019429E+02  0.72269431257E+02  0.86592796041E+02  0.00000000000E+00 0. -1.
         -5    1    3    3    0  503 -0.19524101410E+02  0.10895162122E+02  0.71710087232E+00  0.22858244184E+02  0.47000000000E+01 0.  1.
         11    1    4    4    0    0  0.49606096230E+02 -0.65083162536E+02  0.11133385256E+03  0.13817311445E+03  0.00000000000E+00 0. -1.
        -12    1    4    4    0    0  0.94190342702E+02 -0.41605335330E+01  0.19285384570E+03  0.21466657052E+03  0.00000000000E+00 0.  1.
</event>
<event>
12    1  0.8453150E-002  0.2547694E+03  0.7818608E-02  0.1110352E+00
         21   -1    0    0  501  502  0.00000000000E+00  0.00000000000E+00  0.14300998292E+03  0.14300998292E+03  0.00000000000E+00 0. -1.
         21   -1    0    0  502  503 -0.00000000000E+00 -0.00000000000E+00 -0.60153345003E+03  0.60153345003E+03  0.00000000000E+00 0.  1.
         -6    2    1    2    0  503 -0.20590443275E+02 -0.18667226519E+03 -0.41393966968E+03  0.48605914122E+03  0.17215381985E+03 0.  0.
        -24    2    3    3    0    0 -0.19536020387E+02 -0.20006309954E+03 -0.41938555104E+03  0.47082188831E+03  0.73362866618E+02 0.  0.
          6    2    1    2  501    0  0.20590443275E+02  0.18667226519E+03 -0.44583797428E+02  0.25848429173E+03  0.17191833275E+03 0.  0.
         24    2    5    5    0    0  0.21125841963E+02  0.17512803864E+03 -0.81437494253E+02  0.21957618476E+03  0.10230104754E+03 0.  0.
          5    1    5    5  501    0 -0.53539868794E+00  0.11544226543E+02  0.36853696826E+02  0.38908106970E+02  0.47000000000E+01 0. -1.
        -13    1    6    6    0    0  0.57547431394E+02  0.10152416503E+03 -0.71483121083E+02  0.13685283901E+03  0.00000000000E+00 0.  1.
         14    1    6    6    0    0 -0.36421589431E+02  0.73603873616E+02 -0.99543731700E+01  0.82723345757E+02  0.00000000000E+00 0. -1.
         -5    1    3    3    0  503 -0.10544228879E+01  0.13390834356E+02  0.54458813660E+01  0.15237252909E+02  0.47000000000E+01 0.  1.
         11    1    4    4    0    0 -0.34866558051E+02 -0.13420969114E+03 -0.21776221951E+03  0.25816332487E+03  0.00000000000E+00 0. -1.
        -12    1    4    4    0    0  0.15330537664E+02 -0.65853408406E+02 -0.20162333153E+03  0.21265856344E+03  0.00000000000E+00 0.  1.
</event>
<event>
12    1  0.8453150E-002  0.1931932E+03  0.7818608E-02  0.1158970E+00
         21   -1    0    0  503  502  0.00000000000E+00  0.00000000000E+00  0.70296456112E+02  0.70296456112E+02  0.00000000000E+00 0. -1.
         21   -1    0    0  501  503 -0.00000000000E+00 -0.00000000000E+00 -0.59211949410E+03  0.59211949410E+03  0.00000000000E+00 0.  1.
          6    2    1    2  501    0  0.72501596660E+02 -0.45627400703E+02 -0.40578569522E+03  0.44942813589E+03  0.17316257585E+03 0.  0.
         24    2    3    3    0    0  0.95023251642E+02  0.17395102838E+02 -0.28187896185E+03  0.30852380853E+03  0.79994895709E+02 0.  0.
         -6    2    1    2    0  502 -0.72501596660E+02  0.45627400703E+02 -0.11603734277E+03  0.21298781432E+03  0.15671886587E+03 0.  0.
        -24    2    5    5    0    0 -0.20473053023E+02  0.50956519272E+00 -0.54978888089E+01  0.82666483312E+02  0.79900657851E+02 0.  0.
          5    1    3    3  501    0 -0.22521654982E+02 -0.63022503541E+02 -0.12390673337E+03  0.14090432736E+03  0.47000000000E+01 0. -1.
        -11    1    4    4    0    0  0.47450763594E+02 -0.61748328977E+01 -0.22768040326E+03  0.23265439939E+03  0.00000000000E+00 0.  1.
         12    1    4    4    0    0  0.47572488047E+02  0.23569935736E+02 -0.54198558590E+02  0.75869409137E+02  0.00000000000E+00 0. -1.
         -5    1    5    5    0  502 -0.52028543637E+02  0.45117835510E+02 -0.11053945396E+03  0.13032133101E+03  0.47000000000E+01 0.  1.
         13    1    6    6    0    0 -0.40807680235E+02  0.12745536688E+02  0.20545089796E+02  0.47432227297E+02  0.00000000000E+00 0. -1.
        -14    1    6    6    0    0  0.20334627212E+02 -0.12235971496E+02 -0.26042978605E+02  0.35234256015E+02  0.00000000000E+00 0.  1.
</event>
<event>
12    1  0.8453150E-002  0.1772670E+03  0.7818608E-02  0.1170876E+00
         21   -1    0    0  503  502  0.00000000000E+00  0.00000000000E+00  0.60189957673E+03  0.60189957673E+03  0.00000000000E+00 0. -1.
         21   -1    0    0  501  503 -0.00000000000E+00 -0.00000000000E+00 -0.53795611749E+02  0.53795611749E+02  0.00000000000E+00 0. -1.
          6    2    1    2  501    0 -0.25832037499E+02  0.23904890602E+02  0.33706064704E+03  0.38008153641E+03  0.17208531775E+03 0.  0.
         24    2    3    3    0    0  0.43536066317E+02  0.46998037434E+01  0.14601634666E+03  0.17587383848E+03  0.87711779960E+02 0.  0.
         -6    2    1    2    0  502  0.25832037499E+02 -0.23904890602E+02  0.21104331794E+03  0.27561365207E+03  0.17373792102E+03 0.  0.
        -24    2    5    5    0    0  0.31941566798E+02 -0.14162779227E+02  0.23430682398E+03  0.24924101861E+03  0.77463214423E+02 0.  0.
          5    1    3    3  501    0 -0.69368103816E+02  0.19205086858E+02  0.19104430037E+03  0.20420769793E+03  0.47000000000E+01 0. -1.
        -13    1    4    4    0    0  0.26324463414E+02 -0.21315717744E+02  0.14008406070E+03  0.14412106459E+03  0.00000000000E+00 0.  1.
         14    1    4    4    0    0  0.17211602902E+02  0.26015521488E+02  0.59322859594E+01  0.31752773886E+02  0.00000000000E+00 0. -1.
         -5    1    5    5    0  502 -0.61095292986E+01 -0.97421113744E+01 -0.23263506038E+02  0.26372633457E+02  0.47000000000E+01 0.  1.
         13    1    6    6    0    0  0.33972666893E+02  0.12384845365E+02  0.21031534581E+03  0.21340119768E+03  0.00000000000E+00 0. -1.
        -14    1    6    6    0    0 -0.20311000952E+01 -0.26547624592E+02  0.23991478173E+02  0.35839820926E+02  0.00000000000E+00 0.  1.
</event>
<event>
12    1  0.8453150E-002  0.2039034E+03  0.7818608E-02  0.1146861E+00
         21   -1    0    0  501  502  0.00000000000E+00  0.00000000000E+00  0.34821253158E+03  0.34821253158E+03  0.00000000000E+00 0.  1.
         21   -1    0    0  502  503 -0.00000000000E+00 -0.00000000000E+00 -0.11864819031E+03  0.11864819031E+03  0.00000000000E+00 0.  1.
         -6    2    1    2    0  503 -0.29462868834E+02 -0.10156826258E+03  0.10342093096E+03  0.22863175834E+03  0.17433421741E+03 0.  0.
        -24    2    3    3    0    0 -0.41668230071E+02  0.64542000017E+01  0.25561259692E+02  0.94833246857E+02  0.81006596136E+02 0.  0.
          6    2    1    2  501    0  0.29462868834E+02  0.10156826258E+03  0.12614341031E+03  0.23822896355E+03  0.17221122642E+03 0.  0.
         24    2    5    5    0    0 -0.27439141387E+00  0.12553354984E+03  0.13255315418E+03  0.19921852319E+03  0.79742923667E+02 0.  0.
          5    1    5    5  501    0  0.29737260248E+02 -0.23965287256E+02 -0.64097438707E+01  0.39010440357E+02  0.47000000000E+01 0. -1.
        -11    1    6    6    0    0 -0.14982526222E+02  0.91239090577E+02  0.13290238531E+03  0.16190148783E+03  0.00000000000E+00 0.  1.
         12    1    6    6    0    0  0.14708134809E+02  0.34294459262E+02 -0.34923113437E+00  0.37317035359E+02  0.00000000000E+00 0. -1.
         -5    1    3    3    0  503  0.12205361236E+02 -0.10802246258E+03  0.77859671270E+02  0.13379851149E+03  0.47000000000E+01 0.  1.
         11    1    4    4    0    0 -0.32720620303E+02  0.21619640597E+02 -0.21401891891E+02  0.44677609930E+02  0.00000000000E+00 0. -1.
        -12    1    4    4    0    0 -0.89476097676E+01 -0.15165440595E+02  0.46963151583E+02  0.50155636927E+02  0.00000000000E+00 0.  1.
</event>
<event>
12    1  0.8453150E-002  0.1946562E+03  0.7818608E-02  0.1154447E+00
         21   -1    0    0  503  502  0.00000000000E+00  0.00000000000E+00  0.26459919036E+03  0.26459919036E+03  0.00000000000E+00 0. -1.
         21   -1    0    0  501  503 -0.00000000000E+00 -0.00000000000E+00 -0.23802665339E+03  0.23802665339E+03  0.00000000000E+00 0. -1.
          6    2    1    2  501    0 -0.67919096455E+02 -0.61257051522E+02 -0.14566095752E+03  0.24312164101E+03  0.17183011307E+03 0.  0.
         24    2    3    3    0    0  0.29269338232E+02 -0.41797119117E+02 -0.77732333765E+02  0.12286912032E+03  0.80316945217E+02 0.  0.
         -6    2    1    2    0  502  0.67919096455E+02  0.61257051522E+02  0.17223349448E+03  0.25950420274E+03  0.17120930054E+03 0.  0.
        -24    2    5    5    0    0  0.78580845505E+02  0.69265465214E+02  0.19323137244E+03  0.23419000788E+03  0.80832806101E+02 0.  0.
          5    1    3    3  501    0 -0.97188434687E+02 -0.19459932406E+02 -0.67928623756E+02  0.12025252069E+03  0.47000000000E+01 0. -1.
        -11    1    4    4    0    0  0.23571237352E+02 -0.27881171772E+02  0.66903218607E+01  0.37117696269E+02  0.00000000000E+00 0.  1.
         12    1    4    4    0    0  0.56981008797E+01 -0.13915947344E+02 -0.84422655626E+02  0.85751424053E+02  0.00000000000E+00 0. -1.
         -5    1    5    5    0  502 -0.10661749050E+02 -0.80084136916E+01 -0.20997877959E+02  0.25314194861E+02  0.47000000000E+01 0.  1.
         13    1    6    6    0    0  0.33686427436E+02  0.35925628891E+02  0.21780074666E+02  0.53849771189E+02  0.00000000000E+00 0. -1.
        -14    1    6    6    0    0  0.44894418069E+02  0.33339836323E+02  0.17145129778E+03  0.18034023669E+03  0.00000000000E+00 0.  1.
</event>
<event>
12    1  0.8453150E-002  0.2613945E+03  0.7818608E-02  0.1106426E+00
         21   -1    0    0  503  502  0.00000000000E+00  0.00000000000E+00  0.39801221088E+03  0.39801221088E+03  0.00000000000E+00 0. -1.
         21   -1    0    0  501  503 -0.00000000000E+00 -0.00000000000E+00 -0.31172479918E+03  0.31172479918E+03  0.00000000000E+00 0.  1.
          6    2    1    2  501    0  0.42171125291E+02  0.19156041405E+03 -0.19519610618E+03  0.32560155040E+03  0.17158395530E+03 0.  0.
         24    2    3    3    0    0 -0.81784556856E+01  0.18916599668E+03 -0.12975242450E+03  0.24286232747E+03  0.79345806463E+02 0.  0.
         -6    2    1    2    0  502 -0.42171125291E+02 -0.19156041405E+03  0.28148351788E+03  0.38413545965E+03  0.17278103044E+03 0.  0.
        -24    2    5    5    0    0 -0.65351436726E+02 -0.19981654303E+03  0.20608950584E+03  0.30468838572E+03  0.78515392283E+02 0.  0.
          5    1    3    3  501    0  0.50349580977E+02  0.23944173678E+01 -0.65443681682E+02  0.82739222931E+02  0.47000000000E+01 0. -1.
        -11    1    4    4    0    0  0.17064987945E+01  0.20507459269E+02 -0.53848758732E+02  0.57646828540E+02  0.00000000000E+00 0.  1.
         12    1    4    4    0    0 -0.98849544800E+01  0.16865853741E+03 -0.75903665770E+02  0.18521549893E+03  0.00000000000E+00 0. -1.
         -5    1    5    5    0  502  0.23180311435E+02  0.82561289764E+01  0.75394012045E+02  0.79447073931E+02  0.47000000000E+01 0.  1.
         13    1    6    6    0    0 -0.39241165895E+02 -0.40536565466E+02  0.88644365807E+02  0.10507571475E+03  0.00000000000E+00 0. -1.
        -14    1    6    6    0    0 -0.26110270831E+02 -0.15927997756E+03  0.11744514003E+03  0.19961267097E+03  0.00000000000E+00 0.  1.
</event>
<event>
12    1  0.8453150E-002  0.1953770E+03  0.7818608E-02  0.1153773E+00
         21   -1    0    0  503  502  0.00000000000E+00  0.00000000000E+00  0.52073101526E+02  0.52073101526E+02  0.00000000000E+00 0.  1.
         21   -1    0    0  501  503 -0.00000000000E+00 -0.00000000000E+00 -0.73393550508E+03  0.73393550508E+03  0.00000000000E+00 0.  1.
          6    2    1    2  501    0  0.38860976773E+02  0.83757454777E+02 -0.36197192394E+03  0.41117250328E+03  0.17179542190E+03 0.  0.
         24    2    3    3    0    0  0.38510805233E+02  0.11908458454E+03 -0.33486340888E+03  0.36639426855E+03  0.80293443200E+02 0.  0.
         -6    2    1    2    0  502 -0.38860976773E+02 -0.83757454777E+02 -0.31989047962E+03  0.37483610333E+03  0.17218216709E+03 0.  0.
        -24    2    5    5    0    0 -0.95791148454E+01  0.67406790597E+00 -0.24604835087E+03  0.25881515937E+03  0.79707477331E+02 0.  0.
          5    1    3    3  501    0  0.35017154005E+00 -0.35327129759E+02 -0.27108515058E+02  0.44778234733E+02  0.47000000000E+01 0. -1.
        -13    1    4    4    0    0  0.52419981255E+02  0.38170071180E+02 -0.12037434525E+03  0.13672889878E+03  0.00000000000E+00 0.  1.
         14    1    4    4    0    0 -0.13909176022E+02  0.80914513356E+02 -0.21448906363E+03  0.22966536976E+03  0.00000000000E+00 0. -1.
         -5    1    5    5    0  502 -0.29281861928E+02 -0.84431522683E+02 -0.73842128744E+02  0.11602094396E+03  0.47000000000E+01 0.  1.
         11    1    6    6    0    0  0.75063195506E+01  0.24317614233E+02 -0.24404777129E+02  0.35260237405E+02  0.00000000000E+00 0. -1.
        -12    1    6    6    0    0 -0.17085434396E+02 -0.23643546327E+02 -0.22164357374E+03  0.22355492196E+03  0.00000000000E+00 0.  1.
</event>
<event>
12    1  0.8453150E-002  0.2225236E+03  0.7818608E-02  0.1132666E+00
         21   -1    0    0  501  502  0.00000000000E+00  0.00000000000E+00  0.13152538738E+03  0.13152538738E+03  0.00000000000E+00 0. -1.
         21   -1    0    0  502  503 -0.00000000000E+00 -0.00000000000E+00 -0.37255940572E+03  0.37255940572E+03  0.00000000000E+00 0. -1.
         -6    2    1    2    0  503  0.13191374411E+03  0.32768043012E+02 -0.13990756557E+03  0.26285144144E+03  0.17618675557E+03 0.  0.
        -24    2    3    3    0    0  0.38714349292E+02  0.75921255976E+02 -0.98893389827E+02  0.15216007053E+03  0.78166147154E+02 0.  0.
          6    2    1    2  501    0 -0.13191374411E+03 -0.32768043012E+02 -0.10112645276E+03  0.24123335165E+03  0.17173232070E+03 0.  0.
         24    2    5    5    0    0 -0.34182725858E+02  0.31930598218E+02 -0.80940821488E+02  0.12220891796E+03  0.78712014310E+02 0.  0.
          5    1    5    5  501    0 -0.97731018250E+02 -0.64698641230E+02 -0.20185631277E+02  0.11902443369E+03  0.47000000000E+01 0. -1.
        -11    1    6    6    0    0  0.41849055059E+01 -0.23463120848E+02 -0.16631631692E+02  0.29062736395E+02  0.00000000000E+00 0.  1.
         12    1    6    6    0    0 -0.38367631364E+02  0.55393719066E+02 -0.64309189796E+02  0.93146181568E+02  0.00000000000E+00 0. -1.
         -5    1    3    3    0  503  0.93199394816E+02 -0.43153212965E+02 -0.41014175744E+02  0.11069137092E+03  0.47000000000E+01 0.  1.
         11    1    4    4    0    0  0.35871455676E+02  0.14836269518E+02 -0.78714064407E+02  0.87765483881E+02  0.00000000000E+00 0. -1.
        -12    1    4    4    0    0  0.28428936159E+01  0.61084986458E+02 -0.20179325421E+02  0.64394586645E+02  0.00000000000E+00 0.  1.
</event>
<event>
12    1  0.8453150E-002  0.2483961E+03  0.7818608E-02  0.1114852E+00
         21   -1    0    0  503  502  0.00000000000E+00  0.00000000000E+00  0.22598672279E+03  0.22598672279E+03  0.00000000000E+00 0.  1.
         21   -1    0    0  501  503 -0.00000000000E+00 -0.00000000000E+00 -0.42485285724E+03  0.42485285724E+03  0.00000000000E+00 0.  1.
          6    2    1    2  501    0 -0.84881486393E+02 -0.15439628925E+03 -0.29669038373E+03  0.38694416184E+03  0.17509288882E+03 0.  0.
         24    2    3    3    0    0 -0.91686494827E+02 -0.10554082814E+03 -0.29622279282E+03  0.33739143375E+03  0.80868763088E+02 0.  0.
         -6    2    1    2    0  502  0.84881486393E+02  0.15439628925E+03  0.97824249281E+02  0.26389541820E+03  0.17037642775E+03 0.  0.
        -24    2    5    5    0    0 -0.19469034144E+02  0.60686561732E+02  0.36785668867E+02  0.11086489031E+03  0.82921266296E+02 0.  0.
          5    1    3    3  501    0  0.68050084336E+01 -0.48855461108E+02 -0.46759091468E+00  0.49552728090E+02  0.47000000000E+01 0. -1.
        -13    1    4    4    0    0 -0.18345231661E+02 -0.79015154863E+02 -0.12196070703E+03  0.14647305651E+03  0.00000000000E+00 0.  1.
         14    1    4    4    0    0 -0.73341263166E+02 -0.26525673274E+02 -0.17426208579E+03  0.19091837724E+03  0.00000000000E+00 0. -1.
         -5    1    5    5    0  502  0.10435052054E+03  0.93709727514E+02  0.61038580414E+02  0.15303052789E+03  0.47000000000E+01 0.  1.
         11    1    6    6    0    0 -0.24288667292E+00  0.48213573907E+02 -0.18011259125E+02  0.51468564756E+02  0.00000000000E+00 0. -1.
        -12    1    6    6    0    0 -0.19226147471E+02  0.12472987825E+02  0.54796927993E+02  0.59396325554E+02  0.00000000000E+00 0.  1.
</event>
<event>
12    1  0.8453150E-002  0.1903778E+03  0.7818608E-02  0.1158560E+00
         21   -1    0    0  501  502  0.00000000000E+00  0.00000000000E+00  0.11272020311E+04  0.11272020311E+04  0.00000000000E+00 0. -1.
         21   -1    0    0  502  503 -0.00000000000E+00 -0.00000000000E+00 -0.48700435562E+02  0.48700435562E+02  0.00000000000E+00 0. -1.
         -6    2    1    2    0  503  0.36244332904E+02 -0.68824995493E+02  0.19136154390E+03  0.26856505877E+03  0.17163163646E+03 0.  0.
        -24    2    3    3    0    0  0.76993840226E+02 -0.89950095078E+02  0.14573138996E+03  0.20367289338E+03  0.78904616101E+02 0.  0.
          6    2    1    2  501    0 -0.36244332904E+02  0.68824995493E+02  0.88714005167E+03  0.90733740793E+03  0.17376181651E+03 0.  0.
         24    2    5    5    0    0  0.17310098673E+02  0.95591192818E+02  0.54622497601E+03  0.56117316183E+03  0.84358031543E+02 0.  0.
          5    1    5    5  501    0 -0.53554431578E+02 -0.26766197326E+02  0.34091507566E+03  0.34616424610E+03  0.47000000000E+01 0. -1.
        -11    1    6    6    0    0 -0.99544806644E+01  0.50909623421E+02  0.10776690696E+03  0.11960178794E+03  0.00000000000E+00 0.  1.
         12    1    6    6    0    0  0.27264579338E+02  0.44681569398E+02  0.43845806905E+03  0.44157137389E+03  0.00000000000E+00 0. -1.
         -5    1    3    3    0  503 -0.40749507321E+02  0.21125099586E+02  0.45630153938E+02  0.64892165381E+02  0.47000000000E+01 0.  1.
         13    1    4    4    0    0 -0.16298084362E+01  0.11553292360E+02  0.24282427019E+02  0.26940139232E+02  0.00000000000E+00 0. -1.
        -14    1    4    4    0    0  0.78623648662E+02 -0.10150338744E+03  0.12144896294E+03  0.17673275415E+03  0.00000000000E+00 0.  1.
</event>
<event>
12    1  0.8453150E-002  0.2276306E+03  0.7818608E-02  0.1128653E+00
         21   -1    0    0  501  502  0.00000000000E+00  0.00000000000E+00  0.63081820259E+03  0.63081820259E+03  0.00000000000E+00 0. -1.
         21   -1    0    0  502  503 -0.00000000000E+00 -0.00000000000E+00 -0.19703666374E+03  0.19703666374E+03  0.00000000000E+00 0.  1.
         -6    2    1    2    0  503 -0.14865029704E+03  0.74899614532E+01 -0.99747066268E+02  0.24852603354E+03  0.17222863230E+03 0.  0.
        -24    2    3    3    0    0 -0.88574908162E+02  0.46346391153E+02 -0.11824711737E+03  0.17447729034E+03  0.80414188726E+02 0.  0.
          6    2    1    2  501    0  0.14865029704E+03 -0.74899614532E+01  0.53352860512E+03  0.57932883280E+03  0.16975309630E+03 0.  0.
         24    2    5    5    0    0  0.18210846988E+02 -0.35761730614E+02  0.16977920752E+03  0.19183759766E+03  0.79788146011E+02 0.  0.
          5    1    5    5  501    0  0.13043945005E+03  0.28271769161E+02  0.36374939760E+03  0.38749123514E+03  0.47000000000E+01 0. -1.
        -11    1    6    6    0    0  0.39918946409E+02 -0.47297655410E+02  0.14101747041E+03  0.15400168003E+03  0.00000000000E+00 0.  1.
         12    1    6    6    0    0 -0.21708099421E+02  0.11535924796E+02  0.28761737107E+02  0.37835917629E+02  0.00000000000E+00 0. -1.
         -5    1    3    3    0  503 -0.60075388878E+02 -0.38856429700E+02  0.18500051106E+02  0.74048743195E+02  0.47000000000E+01 0.  1.
         13    1    4    4    0    0 -0.58196405762E+01 -0.14857731525E+02  0.21259492938E+01  0.16097827894E+02  0.00000000000E+00 0. -1.
        -14    1    4    4    0    0 -0.82755267585E+02  0.61204122678E+02 -0.12037306667E+03  0.15837946245E+03  0.00000000000E+00 0.  1.
</event>
<event>
12    1  0.8453150E-002  0.2295681E+03  0.7818608E-02  0.1127134E+00
         21   -1    0    0  501  502  0.00000000000E+00  0.00000000000E+00  0.14746354499E+03  0.14746354499E+03  0.00000000000E+00 0. -1.
         21   -1    0    0  502  503 -0.00000000000E+00 -0.00000000000E+00 -0.37138934063E+03  0.37138934063E+03  0.00000000000E+00 0. -1.
         -6    2    1    2    0  503  0.11702551254E+03 -0.97151319664E+02 -0.16550418124E+03  0.28300735469E+03  0.17195400345E+03 0.  0.
        -24    2    3    3    0    0  0.11544523329E+03 -0.37437882081E+02 -0.51645005362E+02  0.15434425259E+03  0.80160743655E+02 0.  0.
          6    2    1    2  501    0 -0.11702551254E+03  0.97151319664E+02 -0.58421614400E+02  0.23584553093E+03  0.17051885507E+03 0.  0.
         24    2    5    5    0    0  0.41446368172E+01  0.66821652180E+02 -0.28928075900E+02  0.10741635730E+03  0.78861454632E+02 0.  0.
          5    1    5    5  501    0 -0.12117014936E+03  0.30329667484E+02 -0.29493538500E+02  0.12842917363E+03  0.47000000000E+01 0. -1.
        -13    1    6    6    0    0  0.12764836180E+02 -0.11295502335E+02 -0.22964744503E+02  0.28599106730E+02  0.00000000000E+00 0.  1.
         14    1    6    6    0    0 -0.86201993632E+01  0.78117154515E+02 -0.59633313975E+01  0.78817250573E+02  0.00000000000E+00 0. -1.
         -5    1    3    3    0  503  0.15802792522E+01 -0.59713437583E+02 -0.11385917588E+03  0.12866310210E+03  0.47000000000E+01 0.  1.
         11    1    4    4    0    0 -0.67086249257E+01 -0.10246926262E+02 -0.22857878788E+02  0.25932369134E+02  0.00000000000E+00 0. -1.
        -12    1    4    4    0    0  0.12215385822E+03 -0.27190955818E+02 -0.28787126574E+02  0.12841188345E+03  0.00000000000E+00 0.  1.
</event>
<event>
12    1  0.8453150E-002  0.2997025E+03  0.7818608E-02  0.1086475E+00
         21   -1    0    0  503  502  0.00000000000E+00  0.00000000000E+00  0.94857218522E+03  0.94857218522E+03  0.00000000000E+00 0.  1.
         21   -1    0    0  501  503 -0.00000000000E+00 -0.00000000000E+00 -0.23574901721E+03  0.23574901721E+03  0.00000000000E+00 0.  1.
          6    2    1    2  501    0  0.14802962216E+03  0.19539459333E+03 -0.10393803293E+03  0.31721396767E+03  0.17242323061E+03 0.  0.
         24    2    3    3    0    0  0.95175615574E+02  0.13191740602E+03  0.40016692640E+01  0.18121408300E+03  0.79761712045E+02 0.  0.
         -6    2    1    2    0  502 -0.14802962216E+03 -0.19539459333E+03  0.81676120094E+03  0.86710723476E+03  0.15711231993E+03 0.  0.
        -24    2    5    5    0    0 -0.78419924632E+02 -0.66908280960E+02  0.25712838283E+03  0.28869110120E+03  0.81247424669E+02 0.  0.
          5    1    3    3  501    0  0.52854006591E+02  0.63477187311E+02 -0.10793970219E+03  0.13599988467E+03  0.47000000000E+01 0. -1.
        -11    1    4    4    0    0 -0.13537753836E+02  0.22847986092E+02 -0.47101625158E+01  0.26971964673E+02  0.00000000000E+00 0.  1.
         12    1    4    4    0    0  0.10871336941E+03  0.10906941993E+03  0.87118317797E+01  0.15424211832E+03  0.00000000000E+00 0. -1.
         -5    1    5    5    0  502 -0.69609697533E+02 -0.12848631237E+03  0.55963281811E+03  0.57841613356E+03  0.47000000000E+01 0.  1.
         13    1    6    6    0    0 -0.77361466150E+02 -0.68813349805E+02  0.26288296739E+03  0.28253765785E+03  0.00000000000E+00 0. -1.
        -14    1    6    6    0    0 -0.10584584823E+01  0.19050688445E+01 -0.57545845610E+01  0.61534433556E+01  0.00000000000E+00 0.  1.
</event>
<event>
12    1  0.8453150E-002  0.2444541E+03  0.7818608E-02  0.1116878E+00
         21   -1    0    0  503  502  0.00000000000E+00  0.00000000000E+00  0.45936264399E+03  0.45936264399E+03  0.00000000000E+00 0. -1.
         21   -1    0    0  501  503 -0.00000000000E+00 -0.00000000000E+00 -0.16991845720E+03  0.16991845720E+03  0.00000000000E+00 0. -1.
          6    2    1    2  501    0 -0.17199318193E+03  0.10887573723E+02  0.29713918730E+03  0.38470594687E+03  0.17322463748E+03 0.  0.
         24    2    3    3    0    0 -0.16427049515E+03 -0.42421680926E+01  0.31203024808E+03  0.36163252776E+03  0.80077573953E+02 0.  0.
         -6    2    1    2    0  502  0.17199318193E+03 -0.10887573723E+02 -0.76950005162E+01  0.24457515432E+03  0.17337127555E+03 0.  0.
        -24    2    5    5    0    0  0.16086973323E+03  0.40751703475E+02 -0.31388486130E+02  0.18649058390E+03  0.79080518565E+02 0.  0.
          5    1    3    3  501    0 -0.77226867812E+01  0.15129741815E+02 -0.14891060771E+02  0.23073419110E+02  0.47000000000E+01 0. -1.
        -13    1    4    4    0    0 -0.94075264518E+02 -0.19646697939E+02  0.10431794177E+03  0.14183927915E+03  0.00000000000E+00 0.  1.
         14    1    4    4    0    0 -0.70195230635E+02  0.15404529846E+02  0.20771230630E+03  0.21979324861E+03  0.00000000000E+00 0. -1.
         -5    1    5    5    0  502  0.11123448706E+02 -0.51639277197E+02  0.23693485613E+02  0.58084570422E+02  0.47000000000E+01 0.  1.
         11    1    6    6    0    0  0.65791069469E+01  0.18324809434E+02 -0.23306800554E+02  0.30369231816E+02  0.00000000000E+00 0. -1.
        -12    1    6    6    0    0  0.15429062628E+03  0.22426894041E+02 -0.80816855755E+01  0.15612135208E+03  0.00000000000E+00 0.  1.
</event>
<event>
12    1  0.8453150E-002  0.2032885E+03  0.7818608E-02  0.1147176E+00
         21   -1    0    0  501  502  0.00000000000E+00  0.00000000000E+00  0.18202941962E+03  0.18202941962E+03  0.00000000000E+00 0.  1.
         21   -1    0    0  502  503 -0.00000000000E+00 -0.00000000000E+00 -0.25295274691E+03  0.25295274691E+03  0.00000000000E+00 0.  1.
         -6    2    1    2    0  503  0.10272872774E+03 -0.29079154240E+02 -0.10646188109E+03  0.22947843392E+03  0.17299546466E+03 0.  0.
        -24    2    3    3    0    0  0.13918630413E+03 -0.26892093028E+02 -0.70584624435E+02  0.17806631805E+03  0.81421204204E+02 0.  0.
          6    2    1    2  501    0 -0.10272872774E+03  0.29079154240E+02  0.35538553799E+02  0.20550373261E+03  0.17195931669E+03 0.  0.
         24    2    5    5    0    0 -0.51554330072E+02  0.67924053087E+02  0.74056610778E+02  0.13044724817E+03  0.65273095671E+02 0.  0.
          5    1    5    5  501    0 -0.51174397670E+02 -0.38844898848E+02 -0.38518056980E+02  0.75056484443E+02  0.47000000000E+01 0. -1.
        -13    1    6    6    0    0 -0.39455878109E+01  0.22865785444E+02 -0.87826496432E+01  0.24810214467E+02  0.00000000000E+00 0.  1.
         14    1    6    6    0    0 -0.47608742261E+02  0.45058267644E+02  0.82839260421E+02  0.10563703370E+03  0.00000000000E+00 0. -1.
         -5    1    3    3    0  503 -0.36457576386E+02 -0.21870612119E+01 -0.35877256653E+02  0.51412115864E+02  0.47000000000E+01 0.  1.
         13    1    4    4    0    0  0.25117058939E+02 -0.32546755463E+02  0.45441262234E+01  0.41361903052E+02  0.00000000000E+00 0. -1.
        -14    1    4    4    0    0  0.11406924519E+03  0.56546624358E+01 -0.75128750659E+02  0.13670441500E+03  0.00000000000E+00 0.  1.
</event>
<event>
12    1  0.8453150E-002  0.2510826E+03  0.7818608E-02  0.1112625E+00
         21   -1    0    0  501  502  0.00000000000E+00  0.00000000000E+00  0.29406015745E+03  0.29406015745E+03  0.00000000000E+00 0. -1.
         21   -1    0    0  502  503 -0.00000000000E+00 -0.00000000000E+00 -0.23696868062E+03  0.23696868062E+03  0.00000000000E+00 0. -1.
         -6    2    1    2    0  503 -0.33025833039E+01 -0.18310866947E+03 -0.53442529838E+02  0.25670715222E+03  0.17176369265E+03 0.  0.
        -24    2    3    3    0    0 -0.82410829142E+01 -0.80861051653E+02 -0.93986584795E+02  0.14650336589E+03  0.77610134486E+02 0.  0.
          6    2    1    2  501    0  0.33025833039E+01  0.18310866947E+03  0.11053400667E+03  0.27432168585E+03  0.17174087692E+03 0.  0.
         24    2    5    5    0    0 -0.43078393948E+02  0.66434282757E+02  0.96661139341E+01  0.11319897066E+03  0.80320055087E+02 0.  0.
          5    1    5    5  501    0  0.46380977252E+02  0.11667438671E+03  0.10086789273E+03  0.16112271519E+03  0.47000000000E+01 0. -1.
        -13    1    6    6    0    0  0.23413257573E+02  0.21840627278E+02 -0.29336622260E+01  0.32152760444E+02  0.00000000000E+00 0.  1.
         14    1    6    6    0    0 -0.66491651521E+02  0.44593655480E+02  0.12599776160E+02  0.81046210216E+02  0.00000000000E+00 0. -1.
         -5    1    3    3    0  503  0.49384996103E+01 -0.10224761782E+03  0.40544054957E+02  0.11020378633E+03  0.47000000000E+01 0.  1.
         13    1    4    4    0    0  0.18410309327E+02 -0.65426275387E+02 -0.27669114579E+02  0.73383355757E+02  0.00000000000E+00 0. -1.
        -14    1    4    4    0    0 -0.26651392241E+02 -0.15434776266E+02 -0.66317470216E+02  0.73120010138E+02  0.00000000000E+00 0.  1.
</event>
<event>
12    1  0.8453150E-002  0.1805599E+03  0.7818608E-02  0.1167620E+00
         21   -1    0    0  501  502  0.00000000000E+00  0.00000000000E+00  0.26914962476E+02  0.26914962476E+02  0.00000000000E+00 0.  1.
         21   -1    0    0  502  503 -0.00000000000E+00 -0.00000000000E+00 -0.21549931128E+04  0.21549931128E+04  0.00000000000E+00 0.  1.
         -6    2    1    2    0  503 -0.44513533076E+02  0.23864278586E+02 -0.17873135156E+04  0.17962626289E+04  0.17181056493E+03 0.  0.
        -24    2    3    3    0    0 -0.93025040590E+02  0.13264677595E+02 -0.14544024676E+04  0.14596358714E+04  0.80129455155E+02 0.  0.
          6    2    1    2  501    0  0.44513533076E+02 -0.23864278586E+02 -0.34076463463E+03  0.38564544637E+03  0.17335199932E+03 0.  0.
         24    2    5    5    0    0  0.20679853467E+02 -0.27244635434E+02 -0.34952835553E+03  0.35960002642E+03  0.77279888629E+02 0.  0.
          5    1    5    5  501    0  0.23833679609E+02  0.33803568486E+01  0.87637208958E+01  0.26045419944E+02  0.47000000000E+01 0. -1.
        -11    1    6    6    0    0  0.42493303375E+02 -0.10274520011E+01 -0.26604073239E+03  0.26941493608E+03  0.00000000000E+00 0.  1.
         12    1    6    6    0    0 -0.21813449908E+02 -0.26217183433E+02 -0.83487623134E+02  0.90185090346E+02  0.00000000000E+00 0. -1.
         -5    1    3    3    0  503  0.48511507514E+02  0.10599600991E+02 -0.33291104805E+03  0.33662675743E+03  0.47000000000E+01 0.  1.
         11    1    4    4    0    0  0.75655302432E+01 -0.10323654184E+02 -0.57010919400E+02  0.58429958193E+02  0.00000000000E+00 0. -1.
        -12    1    4    4    0    0 -0.10059057083E+03  0.23588331779E+02 -0.13973915482E+04  0.14012059132E+04  0.00000000000E+00 0.  1.
</event>
<event>
12    1  0.8453150E-002  0.1847978E+03  0.7818608E-02  0.1163279E+00
         21   -1    0    0  501  502  0.00000000000E+00  0.00000000000E+00  0.12918247601E+03  0.12918247601E+03  0.00000000000E+00 0. -1.
         21   -1    0    0  502  503 -0.00000000000E+00 -0.00000000000E+00 -0.44630559953E+03  0.44630559953E+03  0.00000000000E+00 0. -1.
         -6    2    1    2    0  503  0.64227597021E+02 -0.16540167849E+02 -0.34245202859E+03  0.38913186953E+03  0.17248611141E+03 0.  0.
        -24    2    3    3    0    0  0.18403649683E+02  0.48428137894E+02 -0.24849850484E+03  0.26596503339E+03  0.79384590545E+02 0.  0.
          6    2    1    2  501    0 -0.64227597021E+02  0.16540167849E+02  0.25328905076E+02  0.18635620601E+03  0.17230299102E+03 0.  0.
         24    2    5    5    0    0 -0.47291038150E+02  0.35122079186E+02  0.72156503043E+02  0.13299846630E+03  0.94931703719E+02 0.  0.
          5    1    5    5  501    0 -0.16936558871E+02 -0.18581911337E+02 -0.46827597967E+02  0.53357739708E+02  0.47000000000E+01 0. -1.
        -11    1    6    6    0    0  0.20353941757E+02 -0.40673710703E+01  0.46160604323E+02  0.50612526551E+02  0.00000000000E+00 0.  1.
         12    1    6    6    0    0 -0.67644979906E+02  0.39189450256E+02  0.25995898720E+02  0.82385939748E+02  0.00000000000E+00 0. -1.
         -5    1    3    3    0  503  0.45823947338E+02 -0.64968305744E+02 -0.93953523754E+02  0.12316683615E+03  0.47000000000E+01 0.  1.
         13    1    4    4    0    0 -0.26943701744E+02  0.17978419643E+02 -0.14879389781E+03  0.15227872689E+03  0.00000000000E+00 0. -1.
        -14    1    4    4    0    0  0.45347351428E+02  0.30449718251E+02 -0.99704607025E+02  0.11368630650E+03  0.00000000000E+00 0.  1.
</event>
<event>
12    1  0.8453150E-002  0.2125394E+03  0.7818608E-02  0.1140144E+00
         21   -1    0    0  503  502  0.00000000000E+00  0.00000000000E+00  0.79788883141E+03  0.79788883141E+03  0.00000000000E+00 0.  1.
         21   -1    0    0  501  503 -0.00000000000E+00 -0.00000000000E+00 -0.58221350555E+02  0.58221350555E+02  0.00000000000E+00 0. -1.
          6    2    1    2  501    0 -0.56548783125E+02  0.11436606617E+03  0.28082227695E+03  0.35043052104E+03  0.16632208778E+03 0.  0.
         24    2    3    3    0    0  0.18211848722E+02  0.85275718832E+02  0.22624837510E+03  0.25329246905E+03  0.73247033968E+02 0.  0.
         -6    2    1    2    0  502  0.56548783125E+02 -0.11436606617E+03  0.45884520390E+03  0.50567966092E+03  0.16998716527E+03 0.  0.
        -24    2    5    5    0    0 -0.11459298765E+02 -0.11782826320E+03  0.27501444067E+03  0.30958548578E+03  0.78710960450E+02 0.  0.
          5    1    3    3  501    0 -0.74760631847E+02  0.29090347335E+02  0.54573901844E+02  0.97138051992E+02  0.47000000000E+01 0. -1.
        -11    1    4    4    0    0 -0.12887305599E+02  0.76423987031E+02  0.12569674637E+03  0.14766983608E+03  0.00000000000E+00 0.  1.
         12    1    4    4    0    0  0.31099154320E+02  0.88517318016E+01  0.10055162874E+03  0.10562263298E+03  0.00000000000E+00 0. -1.
         -5    1    5    5    0  502  0.68008081891E+02  0.34621970278E+01  0.18383076324E+03  0.19609417514E+03  0.47000000000E+01 0.  1.
         13    1    6    6    0    0 -0.31997833836E+02 -0.11757572957E+02  0.68809096404E+02  0.76790583017E+02  0.00000000000E+00 0. -1.
        -14    1    6    6    0    0  0.20538535071E+02 -0.10607069024E+03  0.20620534426E+03  0.23279490276E+03  0.00000000000E+00 0.  1.
</event>
<event>
12    1  0.8453150E-002  0.2876793E+03  0.7818608E-02  0.1091719E+00
         21   -1    0    0  501  502  0.00000000000E+00  0.00000000000E+00  0.24088172956E+04  0.24088172956E+04  0.00000000000E+00 0.  1.
         21   -1    0    0  502  503 -0.00000000000E+00 -0.00000000000E+00 -0.99148858395E+02  0.99148858395E+02  0.00000000000E+00 0. -1.
         -6    2    1    2    0  503 -0.65901467643E+02 -0.22195813881E+03  0.14086330000E+03  0.32031526409E+03  0.17073658162E+03 0.  0.
        -24    2    3    3    0    0 -0.64727621950E+01 -0.19971844589E+03  0.72501643467E+02  0.22692478783E+03  0.79429319194E+02 0.  0.
          6    2    1    2  501    0  0.65901467643E+02  0.22195813881E+03  0.21688051372E+04  0.21876508899E+04  0.16879654653E+03 0.  0.
         24    2    5    5    0    0  0.73478932350E+02  0.10122692862E+03  0.15449731669E+04  0.15521810950E+04  0.81719156888E+02 0.  0.
          5    1    5    5  501    0 -0.75774647063E+01  0.12073121019E+03  0.62383197026E+03  0.63546979488E+03  0.47000000000E+01 0. -1.
        -13    1    6    6    0    0  0.39585815178E+02  0.32566065159E+02  0.10565123639E+04  0.10577551514E+04  0.00000000000E+00 0.  1.
         14    1    6    6    0    0  0.33893117172E+02  0.68660863458E+02  0.48846080305E+03  0.49442594357E+03  0.00000000000E+00 0. -1.
         -5    1    3    3    0  503 -0.59428705448E+02 -0.22239692921E+02  0.68361656535E+02  0.93390476263E+02  0.47000000000E+01 0.  1.
         11    1    4    4    0    0  0.32099828344E+02 -0.14217430136E+03  0.48680664538E+02  0.15366762198E+03  0.00000000000E+00 0. -1.
        -12    1    4    4    0    0 -0.38572590539E+02 -0.57544144529E+02  0.23820978929E+02  0.73257165844E+02  0.00000000000E+00 0.  1.
</event>
<event>
12    1  0.8453150E-002  0.2363505E+03  0.7818608E-02  0.1122301E+00
         21   -1    0    0  501  502  0.00000000000E+00  0.00000000000E+00  0.19586962992E+03  0.19586962992E+03  0.00000000000E+00 0. -1.
         21   -1    0    0  502  503 -0.00000000000E+00 -0.00000000000E+00 -0.35547526640E+03  0.35547526640E+03  0.00000000000E+00 0. -1.
         -6    2    1    2    0  503  0.15764365683E+03  0.40344746411E+02 -0.20266222879E+03  0.31110453822E+03  0.17098196870E+03 0.  0.
        -24    2    3    3    0    0  0.10918529621E+03  0.26986871463E+02 -0.21859503331E+03  0.25816504637E+03  0.78839599439E+02 0.  0.
          6    2    1    2  501    0 -0.15764365683E+03 -0.40344746411E+02  0.43056592311E+02  0.24024035809E+03  0.17141277202E+03 0.  0.
         24    2    5    5    0    0 -0.77901729247E+02 -0.26710139936E+02  0.90513337659E+02  0.14633130534E+03  0.80237619818E+02 0.  0.
          5    1    5    5  501    0 -0.79741927588E+02 -0.13634606475E+02 -0.47456745348E+02  0.93909052749E+02  0.47000000000E+01 0. -1.
        -11    1    6    6    0    0  0.14854643606E+02 -0.13946264796E+02  0.23988655517E+02  0.31474026306E+02  0.00000000000E+00 0.  1.
         12    1    6    6    0    0 -0.92756372853E+02 -0.12763875140E+02  0.66524682142E+02  0.11485727904E+03  0.00000000000E+00 0. -1.
         -5    1    3    3    0  503  0.48458360626E+02  0.13357874948E+02  0.15932804520E+02  0.52939491852E+02  0.47000000000E+01 0.  1.
         13    1    4    4    0    0  0.81443174441E+02 -0.97235686223E+01 -0.18110185844E+03  0.19881001379E+03  0.00000000000E+00 0. -1.
        -14    1    4    4    0    0  0.27742121767E+02  0.36710440086E+02 -0.37493174866E+02  0.59355032583E+02  0.00000000000E+00 0.  1.
</event>
<event>
12    1  0.8453150E-002  0.2194632E+03  0.7818608E-02  0.1134389E+00
         21   -1    0    0  501  502  0.00000000000E+00  0.00000000000E+00  0.11053686908E+03  0.11053686908E+03  0.00000000000E+00 0.  1.
         21   -1    0    0  502  503 -0.00000000000E+00 -0.00000000000E+00 -0.56883054110E+03  0.56883054110E+03  0.00000000000E+00 0.  1.
         -6    2    1    2    0  503  0.79072242055E+02  0.11103406370E+03 -0.39392134521E+03  0.45065818932E+03  0.17128279137E+03 0.  0.
        -24    2    3    3    0    0  0.10274767637E+03  0.99884907764E+02 -0.19352390853E+03  0.24850465238E+03  0.61392013187E+02 0.  0.
          6    2    1    2  501    0 -0.79072242055E+02 -0.11103406370E+03 -0.64372326807E+02  0.22870922087E+03  0.17199746651E+03 0.  0.
         24    2    5    5    0    0 -0.11434314450E+03 -0.97447961625E+02 -0.22664571268E+02  0.17222696170E+03  0.81104769431E+02 0.  0.
          5    1    5    5  501    0  0.35270902449E+02 -0.13586102071E+02 -0.41707755539E+02  0.56482259172E+02  0.47000000000E+01 0. -1.
        -13    1    6    6    0    0 -0.10016399418E+03 -0.92909158231E+02 -0.46335520199E+02  0.14426336280E+03  0.00000000000E+00 0.  1.
         14    1    6    6    0    0 -0.14179150325E+02 -0.45388033946E+01  0.23670948931E+02  0.27963598901E+02  0.00000000000E+00 0. -1.
         -5    1    3    3    0  503 -0.23675434312E+02  0.11149155932E+02 -0.20039743668E+03  0.20215353694E+03  0.47000000000E+01 0.  1.
         13    1    4    4    0    0  0.32101051497E+02 -0.14854006369E+01 -0.45182001582E+02  0.55444541564E+02  0.00000000000E+00 0. -1.
        -14    1    4    4    0    0  0.70646624871E+02  0.10137030840E+03 -0.14834190695E+03  0.19306011082E+03  0.00000000000E+00 0.  1.
</event>
<event>
12    1  0.8453150E-002  0.2011197E+03  0.7818608E-02  0.1149338E+00
         21   -1    0    0  501  502  0.00000000000E+00  0.00000000000E+00  0.52140627840E+02  0.52140627840E+02  0.00000000000E+00 0.  1.
         21   -1    0    0  502  503 -0.00000000000E+00 -0.00000000000E+00 -0.78047423798E+03  0.78047423798E+03  0.00000000000E+00 0.  1.
         -6    2    1    2    0  503  0.61681733445E+02  0.80847214416E+02 -0.30961976656E+03  0.36920663811E+03  0.17351724254E+03 0.  0.
        -24    2    3    3    0    0  0.64651249841E+02  0.38420062916E+02 -0.93409609966E+02  0.14880291076E+03  0.88096910714E+02 0.  0.
          6    2    1    2  501    0 -0.61681733445E+02 -0.80847214416E+02 -0.41871384358E+03  0.46340822771E+03  0.17054323319E+03 0.  0.
         24    2    5    5    0    0 -0.57744238692E+02 -0.94575929702E+02 -0.18582547966E+03  0.23003500402E+03  0.78140838245E+02 0.  0.
          5    1    5    5  501    0 -0.39374947531E+01  0.13728715285E+02 -0.23288836392E+03  0.23337322369E+03  0.47000000000E+01 0. -1.
        -11    1    6    6    0    0 -0.62992863105E+02 -0.92350616469E+02 -0.19165916995E+03  0.22187828779E+03  0.00000000000E+00 0.  1.
         12    1    6    6    0    0  0.52486244129E+01 -0.22253132327E+01  0.58336902938E+01  0.81567162300E+01  0.00000000000E+00 0. -1.
         -5    1    3    3    0  503 -0.29695163962E+01  0.42427151500E+02 -0.21621015660E+03  0.22040372734E+03  0.47000000000E+01 0.  1.
         13    1    4    4    0    0  0.46848309135E+02 -0.80601849871E+00 -0.94752949779E+02  0.10570494419E+03  0.00000000000E+00 0. -1.
        -14    1    4    4    0    0  0.17802940706E+02  0.39226081415E+02  0.13433398122E+01  0.43097966574E+02  0.00000000000E+00 0.  1.
</event>
<event>
12    1  0.8453150E-002  0.1725287E+03  0.7818608E-02  0.1175554E+00
         21   -1    0    0  501  502  0.00000000000E+00  0.00000000000E+00  0.53748970191E+03  0.53748970191E+03  0.00000000000E+00 0.  1.
         21   -1    0    0  502  503 -0.00000000000E+00 -0.00000000000E+00 -0.81365359018E+02  0.81365359018E+02  0.00000000000E+00 0.  1.
         -6    2    1    2    0  503 -0.23238119411E+01 -0.15559077902E+00  0.51313198306E+02  0.17881163910E+03  0.17127502342E+03 0.  0.
        -24    2    3    3    0    0  0.50608356074E+02 -0.31886297600E+02  0.58682272159E+02  0.11648150662E+03  0.80909768502E+02 0.  0.
          6    2    1    2  501    0  0.23238119411E+01  0.15559077902E+00  0.40481114458E+03  0.44004342182E+03  0.17251297342E+03 0.  0.
         24    2    5    5    0    0  0.64871254179E+02  0.36441570315E+01  0.23739033546E+03  0.26122460304E+03  0.87536063206E+02 0.  0.
          5    1    5    5  501    0 -0.62547442238E+02 -0.34885662524E+01  0.16742080912E+03  0.17881881878E+03  0.47000000000E+01 0. -1.
        -13    1    6    6    0    0  0.17569027134E+02  0.42420135108E+02  0.12664784911E+03  0.13471383099E+03  0.00000000000E+00 0.  1.
         14    1    6    6    0    0  0.47302227045E+02 -0.38775978077E+02  0.11074248636E+03  0.12651077204E+03  0.00000000000E+00 0. -1.
         -5    1    3    3    0  503 -0.52932168015E+02  0.31730706821E+02 -0.73690738529E+01  0.62330132485E+02  0.47000000000E+01 0.  1.
         13    1    4    4    0    0  0.15682082880E+02 -0.62564654621E+01  0.69753570353E+02  0.71767901325E+02  0.00000000000E+00 0. -1.
        -14    1    4    4    0    0  0.34926273194E+02 -0.25629832138E+02 -0.11071298194E+02  0.44713605293E+02  0.00000000000E+00 0.  1.
</event>
<event>
12    1  0.8453150E-002  0.1798791E+03  0.7818608E-02  0.1168643E+00
         21   -1    0    0  501  502  0.00000000000E+00  0.00000000000E+00  0.12514399558E+03  0.12514399558E+03  0.00000000000E+00 0.  1.
         21   -1    0    0  502  503 -0.00000000000E+00 -0.00000000000E+00 -0.25623261219E+03  0.25623261219E+03  0.00000000000E+00 0. -1.
         -6    2    1    2    0  503 -0.48959742066E+02  0.25479206303E+02 -0.82563405744E+02  0.19792226626E+03  0.17120239840E+03 0.  0.
        -24    2    3    3    0    0 -0.91459111928E+02  0.41005171883E+02 -0.56524775989E+02  0.14550707490E+03  0.89056528507E+02 0.  0.
          6    2    1    2  501    0  0.48959742066E+02 -0.25479206303E+02 -0.48525210872E+02  0.18345434151E+03  0.16809090704E+03 0.  0.
         24    2    5    5    0    0  0.72022341073E+01  0.21496180430E+02  0.25688585559E+02  0.86088259063E+02  0.78976749561E+02 0.  0.
          5    1    5    5  501    0  0.41757507958E+02 -0.46975386734E+02 -0.74213796432E+02  0.97366082444E+02  0.47000000000E+01 0. -1.
        -11    1    6    6    0    0 -0.31462619796E+02 -0.91706183206E+01  0.11638461281E+02  0.34777154366E+02  0.00000000000E+00 0.  1.
         12    1    6    6    0    0  0.38664853903E+02  0.30666798751E+02  0.14050124278E+02  0.51311104697E+02  0.00000000000E+00 0. -1.
         -5    1    3    3    0  503  0.42499369862E+02 -0.15525965580E+02 -0.26038629754E+02  0.52415191361E+02  0.47000000000E+01 0.  1.
         11    1    4    4    0    0 -0.51932320483E+02  0.37367183746E+01 -0.72153436400E+02  0.88977791383E+02  0.00000000000E+00 0. -1.
        -12    1    4    4    0    0 -0.39526791446E+02  0.37268453508E+02  0.15628660411E+02  0.56529283519E+02  0.00000000000E+00 0.  1.
</event>
<event>
12    1  0.8453150E-002  0.2451159E+03  0.7818608E-02  0.1116608E+00
         21   -1    0    0  503  502  0.00000000000E+00  0.00000000000E+00  0.12040910891E+03  0.12040910891E+03  0.00000000000E+00 0.  1.
         21   -1    0    0  501  503 -0.00000000000E+00 -0.00000000000E+00 -0.69604978549E+03  0.69604978549E+03  0.00000000000E+00 0.  1.
          6    2    1    2  501    0 -0.17035002597E+03  0.36967112648E+02 -0.50579544987E+03  0.56158608596E+03  0.17077527945E+03 0.  0.
         24    2    3    3    0    0 -0.15467514524E+03  0.28381609142E+02 -0.51254137206E+03  0.54191351056E+03  0.79004294603E+02 0.  0.
         -6    2    1    2    0  502  0.17035002597E+03 -0.36967112648E+02 -0.69845226706E+02  0.25487280844E+03  0.17232554664E+03 0.  0.
        -24    2    5    5    0    0  0.10108706847E+03 -0.36185173196E+02 -0.11149763751E+03  0.17390996489E+03  0.79277932269E+02 0.  0.
          5    1    3    3  501    0 -0.15674880734E+02  0.85855035061E+01  0.67459221936E+01  0.19672575396E+02  0.47000000000E+01 0. -1.
        -11    1    4    4    0    0 -0.87706304586E+02  0.42152833066E+02 -0.38606824603E+03  0.39814312476E+03  0.00000000000E+00 0.  1.
         12    1    4    4    0    0 -0.66968840651E+02 -0.13771223924E+02 -0.12647312603E+03  0.14377038580E+03  0.00000000000E+00 0. -1.
         -5    1    5    5    0  502  0.69262957499E+02 -0.78193945144E+00  0.41652410804E+02  0.80962843556E+02  0.47000000000E+01 0.  1.
         13    1    6    6    0    0  0.11304388490E+02 -0.37605537315E+02 -0.14837245074E+02  0.41977487744E+02  0.00000000000E+00 0. -1.
        -14    1    6    6    0    0  0.89782679983E+02  0.14203641188E+01 -0.96660392435E+02  0.13193247714E+03  0.00000000000E+00 0.  1.
</event>
<event>
12    1  0.8453150E-002  0.1951846E+03  0.7818608E-02  0.1154537E+00
         21   -1    0    0  501  502  0.00000000000E+00  0.00000000000E+00  0.19217563852E+03  0.19217563852E+03  0.00000000000E+00 0. -1.
         21   -1    0    0  502  503 -0.00000000000E+00 -0.00000000000E+00 -0.19533264699E+03  0.19533264699E+03  0.00000000000E+00 0. -1.
         -6    2    1    2    0  503 -0.77297521009E+02  0.43057880431E+02 -0.74538989683E+01  0.19532684102E+03  0.17397737322E+03 0.  0.
        -24    2    3    3    0    0  0.61115467669E+01  0.28895134389E+02  0.45305872333E+02  0.95510312178E+02  0.78723045351E+02 0.  0.
          6    2    1    2  501    0  0.77297521009E+02 -0.43057880431E+02  0.42968904904E+01  0.19218144449E+03  0.17054722665E+03 0.  0.
         24    2    5    5    0    0  0.43814736222E+02 -0.68206390720E+02  0.54662086035E+02  0.12651343577E+03  0.80286131651E+02 0.  0.
          5    1    5    5  501    0  0.33482784786E+02  0.25148510290E+02 -0.50365195545E+02  0.65668008719E+02  0.47000000000E+01 0. -1.
        -13    1    6    6    0    0  0.47539635455E+02 -0.15235794658E+02  0.53816274178E+02  0.73405297796E+02  0.00000000000E+00 0.  1.
         14    1    6    6    0    0 -0.37248992330E+01 -0.52970596062E+02  0.84581185707E+00  0.53108137975E+02  0.00000000000E+00 0. -1.
         -5    1    3    3    0  503 -0.83409067776E+02  0.14162746042E+02 -0.52759771302E+02  0.99816528844E+02  0.47000000000E+01 0.  1.
         13    1    4    4    0    0 -0.30430891392E+02  0.34058324707E+02  0.33911931241E+02  0.56886094200E+02  0.00000000000E+00 0. -1.
        -14    1    4    4    0    0  0.36542438159E+02 -0.51631903178E+01  0.11393941092E+02  0.38624217979E+02  0.00000000000E+00 0.  1.
</event>
<event>
12    1  0.8453150E-002  0.1753663E+03  0.7818608E-02  0.1172617E+00
         21   -1    0    0  503  502  0.00000000000E+00  0.00000000000E+00  0.25183459474E+03  0.25183459474E+03  0.00000000000E+00 0. -1.
         21   -1    0    0  501  503 -0.00000000000E+00 -0.00000000000E+00 -0.15311909597E+03  0.15311909597E+03  0.00000000000E+00 0. -1.
          6    2    1    2  501    0 -0.33984747769E+02  0.31418653251E+00  0.14137429686E+03  0.22447349627E+03  0.17101636448E+03 0.  0.
         24    2    3    3    0    0  0.42979246255E+01  0.23551546734E+02  0.15643454432E+03  0.17699256358E+03  0.79255620602E+02 0.  0.
         -6    2    1    2    0  502  0.33984747769E+02 -0.31418653251E+00 -0.42658798097E+02  0.18048019444E+03  0.17204146517E+03 0.  0.
        -24    2    5    5    0    0 -0.35260569576E+02  0.20357286462E+02 -0.55899084726E+02  0.10686213307E+03  0.81468281759E+02 0.  0.
          5    1    3    3  501    0 -0.38282672394E+02 -0.23237360202E+02 -0.15060247460E+02  0.47480932682E+02  0.47000000000E+01 0. -1.
        -13    1    4    4    0    0  0.32844262846E+02  0.14350980474E+02  0.29084696779E+02  0.46158594315E+02  0.00000000000E+00 0.  1.
         14    1    4    4    0    0 -0.28546338220E+02  0.92005662602E+01  0.12734984754E+03  0.13083396927E+03  0.00000000000E+00 0. -1.
         -5    1    5    5    0  502  0.69245317345E+02 -0.20671472995E+02  0.13240286629E+02  0.73618061371E+02  0.47000000000E+01 0.  1.
         11    1    6    6    0    0 -0.44406810725E+02  0.26157525311E+02 -0.16732358244E+01  0.51565305073E+02  0.00000000000E+00 0. -1.
        -12    1    6    6    0    0  0.91462411482E+01 -0.58002388483E+01 -0.54225848901E+02  0.55296828000E+02  0.00000000000E+00 0.  1.
</event>
<event>
12    1  0.8453150E-002  0.1863400E+03  0.7818608E-02  0.1162922E+00
         21   -1    0    0  503  502  0.00000000000E+00  0.00000000000E+00  0.10453010762E+03  0.10453010762E+03  0.00000000000E+00 0.  1.
         21   -1    0    0  501  503 -0.00000000000E+00 -0.00000000000E+00 -0.33370616944E+03  0.33370616944E+03  0.00000000000E+00 0.  1.
          6    2    1    2  501    0  0.23994975376E+02 -0.67933628007E+02 -0.78158618202E+02  0.20206776339E+03  0.17184840629E+03 0.  0.
         24    2    3    3    0    0  0.41709418545E+02 -0.61169691955E+02 -0.11613858806E+03  0.15935804039E+03  0.80158633909E+02 0.  0.
         -6    2    1    2    0  502 -0.23994975376E+02  0.67933628007E+02 -0.15101744362E+03  0.23616851367E+03  0.16666901905E+03 0.  0.
        -24    2    5    5    0    0 -0.61198459140E+02  0.78008406051E+02 -0.15137293006E+03  0.19733789781E+03  0.78726864181E+02 0.  0.
          5    1    3    3  501    0 -0.17714443169E+02 -0.67639360525E+01  0.37979969862E+02  0.42709722996E+02  0.47000000000E+01 0. -1.
        -13    1    4    4    0    0  0.13015117865E+02 -0.68699052124E+02 -0.10789167898E+03  0.12856736541E+03  0.00000000000E+00 0.  1.
         14    1    4    4    0    0  0.28694300680E+02  0.75293601698E+01 -0.82469090818E+01  0.30790674976E+02  0.00000000000E+00 0. -1.
         -5    1    5    5    0  502  0.37203483763E+02 -0.10074778044E+02  0.35548644064E+00  0.38830615851E+02  0.47000000000E+01 0.  1.
         11    1    6    6    0    0  0.10670486547E+02 -0.83995449407E+01 -0.10745820747E+02  0.17317167837E+02  0.00000000000E+00 0. -1.
        -12    1    6    6    0    0 -0.71868945686E+02  0.86407950992E+02 -0.14062710931E+03  0.18002072998E+03  0.00000000000E+00 0.  1.
</event>
<event>
12    1  0.8453150E-002  0.2200665E+03  0.7818608E-02  0.1134562E+00
         21   -1    0    0  503  502  0.00000000000E+00  0.00000000000E+00  0.21660293754E+02  0.21660293754E+02  0.00000000000E+00 0. -1.
         21   -1    0    0  501  503 -0.00000000000E+00 -0.00000000000E+00 -0.29017489213E+04  0.29017489213E+04  0.00000000000E+00 0. -1.
          6    2    1    2  501    0  0.11907973165E+03  0.68230285085E+02 -0.70985213567E+03  0.74204365647E+03  0.16704304622E+03 0.  0.
         24    2    3    3    0    0  0.31957051991E+01  0.18205617972E+02 -0.21248501334E+03  0.22888898263E+03  0.83057982255E+02 0.  0.
         -6    2    1    2    0  502 -0.11907973165E+03 -0.68230285085E+02 -0.21702364918E+04  0.21813655586E+04  0.17202882095E+03 0.  0.
        -24    2    5    5    0    0 -0.10484263110E+03 -0.61233590289E+01 -0.18692613795E+04  0.18736837854E+04  0.74319242977E+02 0.  0.
          5    1    3    3  501    0  0.11588402645E+03  0.50024667113E+02 -0.49736712233E+03  0.51315467384E+03  0.47000000000E+01 0. -1.
        -11    1    4    4    0    0 -0.43473743059E+01  0.50797659062E+02 -0.14180953702E+03  0.15069587459E+03  0.00000000000E+00 0.  1.
         12    1    4    4    0    0  0.75430795050E+01 -0.32592041091E+02 -0.70675476323E+02  0.78193108036E+02  0.00000000000E+00 0. -1.
         -5    1    5    5    0  502 -0.14237100552E+02 -0.62106926056E+02 -0.30097511230E+03  0.30768177314E+03  0.47000000000E+01 0.  1.
         13    1    6    6    0    0 -0.38533066956E+02  0.20215790282E+01 -0.24245915339E+03  0.24551033603E+03  0.00000000000E+00 0. -1.
        -14    1    6    6    0    0 -0.66309564141E+02 -0.81449380571E+01 -0.16268022261E+04  0.16281734494E+04  0.00000000000E+00 0.  1.
</event>
<event>
12    1  0.8453150E-002  0.1795207E+03  0.7818608E-02  0.1169149E+00
         21   -1    0    0  501  502  0.00000000000E+00  0.00000000000E+00  0.14380656458E+03  0.14380656458E+03  0.00000000000E+00 0.  1.
         21   -1    0    0  502  503 -0.00000000000E+00 -0.00000000000E+00 -0.27362431973E+03  0.27362431973E+03  0.00000000000E+00 0.  1.
         -6    2    1    2    0  503 -0.37622520171E+02 -0.78943249533E+01 -0.15813386313E+03  0.23923628951E+03  0.17535652016E+03 0.  0.
        -24    2    3    3    0    0  0.24953860631E+02  0.27053087853E+02 -0.40070687713E+02  0.10104031097E+03  0.85140587881E+02 0.  0.
          6    2    1    2  501    0  0.37622520171E+02  0.78943249533E+01  0.28316107980E+02  0.17819459480E+03  0.17167916954E+03 0.  0.
         24    2    5    5    0    0  0.15598100543E+02  0.51574894835E+02  0.65148842129E+02  0.11677955144E+03  0.80559428293E+02 0.  0.
          5    1    5    5  501    0  0.22024419628E+02 -0.43680569882E+02 -0.36832734149E+02  0.61415043353E+02  0.47000000000E+01 0. -1.
        -13    1    6    6    0    0 -0.14022081882E+02 -0.11763215504E+02  0.37237918133E+02  0.41492825479E+02  0.00000000000E+00 0.  1.
         14    1    6    6    0    0  0.29620182426E+02  0.63338110339E+02  0.27910923996E+02  0.75286725965E+02  0.00000000000E+00 0. -1.
         -5    1    3    3    0  503 -0.62576380803E+02 -0.34947412806E+02 -0.11806317541E+03  0.13819597854E+03  0.47000000000E+01 0.  1.
         11    1    4    4    0    0  0.20914343541E+02 -0.26410372424E+02  0.68070396540E+00  0.33695413564E+02  0.00000000000E+00 0. -1.
        -12    1    4    4    0    0  0.40395170902E+01  0.53463460277E+02 -0.40751391678E+02  0.67344897408E+02  0.00000000000E+00 0.  1.
</event>
<event>
12    1  0.8453150E-002  0.1888294E+03  0.7818608E-02  0.1162805E+00
         21   -1    0    0  503  502  0.00000000000E+00  0.00000000000E+00  0.36228644254E+03  0.36228644254E+03  0.00000000000E+00 0.  1.
         21   -1    0    0  501  503 -0.00000000000E+00 -0.00000000000E+00 -0.33778378970E+03  0.33778378970E+03  0.00000000000E+00 0.  1.
          6    2    1    2  501    0 -0.22535639200E+02 -0.31305822032E+02 -0.28655875477E+03  0.34317991234E+03  0.18484756630E+03 0.  0.
         24    2    3    3    0    0  0.61903885257E+02 -0.17725366729E+02 -0.14507271500E+03  0.17778689100E+03  0.80098728693E+02 0.  0.
         -6    2    1    2    0  502  0.22535639200E+02  0.31305822032E+02  0.31106140761E+03  0.35689031990E+03  0.17065635530E+03 0.  0.
        -24    2    5    5    0    0 -0.27885745641E+02  0.66943685149E+02  0.23913283927E+03  0.26197887548E+03  0.78672387731E+02 0.  0.
          5    1    3    3  501    0 -0.84439524457E+02 -0.13580455303E+02 -0.14148603977E+03  0.16539302134E+03  0.47000000000E+01 0. -1.
        -13    1    4    4    0    0 -0.10226323230E+02 -0.23220521792E+02 -0.65524082932E+02  0.70265039409E+02  0.00000000000E+00 0.  1.
         14    1    4    4    0    0  0.72130208487E+02  0.54951550631E+01 -0.79548632066E+02  0.10752185159E+03  0.00000000000E+00 0. -1.
         -5    1    5    5    0  502  0.50421384841E+02 -0.35637863118E+02  0.71928568342E+02  0.94911444413E+02  0.47000000000E+01 0.  1.
         13    1    6    6    0    0 -0.17513349284E+02 -0.11545778021E+02  0.97391910679E+02  0.99625331412E+02  0.00000000000E+00 0. -1.
        -14    1    6    6    0    0 -0.10372396357E+02  0.78489463170E+02  0.14174092859E+03  0.16235354407E+03  0.00000000000E+00 0.  1.
</event>
<event>
12    1  0.8453150E-002  0.1751137E+03  0.7818608E-02  0.1172982E+00
         21   -1    0    0  503  502  0.00000000000E+00  0.00000000000E+00  0.30991501910E+03  0.30991501910E+03  0.00000000000E+00 0.  1.
         21   -1    0    0  501  503 -0.00000000000E+00 -0.00000000000E+00 -0.10501881255E+03  0.10501881255E+03  0.00000000000E+00 0. -1.
          6    2    1    2  501    0  0.27321213535E+02  0.15773206072E+01  0.15518941456E+03  0.23290201006E+03  0.17149535052E+03 0.  0.
         24    2    3    3    0    0 -0.45915854210E+01  0.64253156083E+02  0.10039887543E+03  0.14362278365E+03  0.79987618249E+02 0.  0.
         -6    2    1    2    0  502 -0.27321213535E+02 -0.15773206072E+01  0.49706791988E+02  0.18203182159E+03  0.17296208328E+03 0.  0.
        -24    2    5    5    0    0 -0.43374382046E+02  0.42272205487E+02 -0.15473803548E+02  0.10171317374E+03  0.80236243319E+02 0.  0.
          5    1    3    3  501    0  0.31912798956E+02 -0.62675835476E+02  0.54790539135E+02  0.89279226411E+02  0.47000000000E+01 0. -1.
        -11    1    4    4    0    0  0.16661538558E+02  0.11950859078E+02 -0.75112122314E+01  0.21836854375E+02  0.00000000000E+00 0.  1.
         12    1    4    4    0    0 -0.21253123979E+02  0.52302297005E+02  0.10791008766E+03  0.12178592928E+03  0.00000000000E+00 0. -1.
         -5    1    5    5    0  502  0.16053168511E+02 -0.43849526095E+02  0.65180595536E+02  0.80318647850E+02  0.47000000000E+01 0.  1.
         11    1    6    6    0    0 -0.40988163917E+02 -0.45957089295E+01 -0.31741529667E+02  0.52044930853E+02  0.00000000000E+00 0. -1.
        -12    1    6    6    0    0 -0.23862181287E+01  0.46867914417E+02  0.16267726119E+02  0.49668242890E+02  0.00000000000E+00 0.  1.
</event>
<event>
12    1  0.8453150E-002  0.2440474E+03  0.7818608E-02  0.1117502E+00
         21   -1    0    0  503  502  0.00000000000E+00  0.00000000000E+00  0.16338814155E+02  0.16338814155E+02  0.00000000000E+00 0. -1.
         21   -1    0    0  501  503 -0.00000000000E+00 -0.00000000000E+00 -0.40313040090E+04  0.40313040090E+04  0.00000000000E+00 0. -1.
          6    2    1    2  501    0  0.14183877620E+03  0.93439447708E+02 -0.13454887458E+04  0.13670340038E+04  0.17202567676E+03 0.  0.
         24    2    3    3    0    0  0.15114943863E+01  0.46217962280E+02 -0.57572699609E+03  0.58314826204E+03  0.80386173217E+02 0.  0.
         -6    2    1    2    0  502 -0.14183877620E+03 -0.93439447708E+02 -0.26694764490E+04  0.26806088194E+04  0.17524258028E+03 0.  0.
        -24    2    5    5    0    0 -0.96750056462E+02  0.69396440752E+01 -0.10623820118E+04  0.10697445872E+04  0.79304543224E+02 0.  0.
          5    1    3    3  501    0  0.14032728181E+03  0.47221485428E+02 -0.76976174975E+03  0.78388574173E+03  0.47000000000E+01 0. -1.
        -11    1    4    4    0    0 -0.19262616024E+02 -0.83890652119E+01 -0.50706046093E+02  0.54886500177E+02  0.00000000000E+00 0.  1.
         12    1    4    4    0    0  0.20774110411E+02  0.54607027492E+02 -0.52502094999E+03  0.52826176186E+03  0.00000000000E+00 0. -1.
         -5    1    5    5    0  502 -0.45088719735E+02 -0.10037909178E+03 -0.16070944372E+04  0.16108642322E+04  0.47000000000E+01 0.  1.
         11    1    6    6    0    0 -0.79943076816E+02 -0.24117665936E+02 -0.56825071747E+03  0.57435305801E+03  0.00000000000E+00 0. -1.
        -12    1    6    6    0    0 -0.16806979647E+02  0.31057310011E+02 -0.49413129437E+03  0.49539152915E+03  0.00000000000E+00 0.  1.
</event>
<event>
12    1  0.8453150E-002  0.2310722E+03  0.7818608E-02  0.1125998E+00
         21   -1    0    0  503  502  0.00000000000E+00  0.00000000000E+00  0.40591447671E+03  0.40591447671E+03  0.00000000000E+00 0. -1.
         21   -1    0    0  501  503 -0.00000000000E+00 -0.00000000000E+00 -0.17541207641E+03  0.17541207641E+03  0.00000000000E+00 0.  1.
          6    2    1    2  501    0  0.14905453666E+03  0.36977188951E+02 -0.30585966400E+02  0.23308764016E+03  0.17265508753E+03 0.  0.
         24    2    3    3    0    0  0.60028451596E+02  0.43611379188E+02 -0.75570712671E+02  0.13301080118E+03  0.80470946447E+02 0.  0.
         -6    2    1    2    0  502 -0.14905453666E+03 -0.36977188951E+02  0.26108836670E+03  0.34823891297E+03  0.17180988877E+03 0.  0.
        -24    2    5    5    0    0 -0.69061595012E+01 -0.27787157570E+01  0.12799529213E+03  0.15047250228E+03  0.78763969144E+02 0.  0.
          5    1    3    3  501    0  0.89026085063E+02 -0.66341902369E+01  0.44984746271E+02  0.10007683897E+03  0.47000000000E+01 0. -1.
        -13    1    4    4    0    0  0.58069725438E+02  0.46476619543E+02 -0.19579953776E+02  0.76912572226E+02  0.00000000000E+00 0.  1.
         14    1    4    4    0    0  0.19587261581E+01 -0.28652403552E+01 -0.55990758895E+02  0.56098228956E+02  0.00000000000E+00 0. -1.
         -5    1    5    5    0  502 -0.14214837716E+03 -0.34198473194E+02  0.13309307457E+03  0.19776641069E+03  0.47000000000E+01 0.  1.
         13    1    6    6    0    0 -0.39427540794E+02  0.26869060090E+01  0.98867539133E+02  0.10647319255E+03  0.00000000000E+00 0. -1.
        -14    1    6    6    0    0  0.32521381293E+02 -0.54656217659E+01  0.29127752997E+02  0.43999309735E+02  0.00000000000E+00 0.  1.
</event>
<event>
12    1  0.8453150E-002  0.2418361E+03  0.7818608E-02  0.1119142E+00
         21   -1    0    0  503  502  0.00000000000E+00  0.00000000000E+00  0.12063360636E+04  0.12063360636E+04  0.00000000000E+00 0. -1.
         21   -1    0    0  501  503 -0.00000000000E+00 -0.00000000000E+00 -0.49809212424E+02  0.49809212424E+02  0.00000000000E+00 0.  1.
          6    2    1    2  501    0  0.14526179320E+03 -0.79496118753E+02  0.44820516664E+03  0.50767731247E+03  0.17154521484E+03 0.  0.
         24    2    3    3    0    0  0.13447827689E+02 -0.68596013659E+02  0.16981806163E+03  0.19943194912E+03  0.77773203053E+02 0.  0.
         -6    2    1    2    0  502 -0.14526179320E+03  0.79496118753E+02  0.70832168453E+03  0.74846796354E+03  0.17624999920E+03 0.  0.
        -24    2    5    5    0    0 -0.57392118431E+02  0.38761373251E+02  0.16345617157E+03  0.19504144047E+03  0.80789505261E+02 0.  0.
          5    1    3    3  501    0  0.13181396551E+03 -0.10900105094E+02  0.27838710501E+03  0.30824536335E+03  0.47000000000E+01 0. -1.
        -11    1    4    4    0    0  0.24625789593E+02  0.61622738296E+01  0.22804806113E+02  0.34124218873E+02  0.00000000000E+00 0.  1.
         12    1    4    4    0    0 -0.11177961904E+02 -0.74758287489E+02  0.14701325552E+03  0.16530773025E+03  0.00000000000E+00 0. -1.
         -5    1    5    5    0  502 -0.87869674767E+02  0.40734745502E+02  0.54486551296E+03  0.55342652308E+03  0.47000000000E+01 0.  1.
         11    1    6    6    0    0 -0.60948860412E+02 -0.54464539282E+01  0.10683342794E+03  0.12311705313E+03  0.00000000000E+00 0. -1.
        -12    1    6    6    0    0  0.35567419813E+01  0.44207827179E+02  0.56622743627E+02  0.71924387333E+02  0.00000000000E+00 0.  1.
</event>
<event>
12    1  0.8453150E-002  0.2607075E+03  0.7818608E-02  0.1106818E+00
         21   -1    0    0  503  502  0.00000000000E+00  0.00000000000E+00  0.27615936487E+03  0.27615936487E+03  0.00000000000E+00 0.  1.
         21   -1    0    0  501  503 -0.00000000000E+00 -0.00000000000E+00 -0.30551772638E+03  0.30551772638E+03  0.00000000000E+00 0. -1.
          6    2    1    2  501    0 -0.31743935597E+02  0.19307853604E+03 -0.14360412280E+03  0.29764167029E+03  0.17228296863E+03 0.  0.
         24    2    3    3    0    0  0.22749317301E+02  0.18445972715E+03 -0.13138384574E+03  0.24093872813E+03  0.79036911721E+02 0.  0.
         -6    2    1    2    0  502  0.31743935597E+02 -0.19307853604E+03  0.11424576129E+03  0.28403542096E+03  0.17128055306E+03 0.  0.
        -24    2    5    5    0    0 -0.30259609605E+02 -0.49305848385E+02  0.56976686788E+02  0.11725154215E+03  0.84586468431E+02 0.  0.
          5    1    3    3  501    0 -0.54493252898E+02  0.86188088937E+01 -0.12220277063E+02  0.56702942160E+02  0.47000000000E+01 0. -1.
        -13    1    4    4    0    0  0.10418191873E+02 -0.52283895762E+01 -0.50858200482E+01  0.12717717760E+02  0.00000000000E+00 0.  1.
         14    1    4    4    0    0  0.12331125428E+02  0.18968811673E+03 -0.12629802569E+03  0.22822101037E+03  0.00000000000E+00 0. -1.
         -5    1    5    5    0  502  0.62003545202E+02 -0.14377268766E+03  0.57269074501E+02  0.16678387880E+03  0.47000000000E+01 0.  1.
         13    1    6    6    0    0 -0.26350102252E+02 -0.60896696163E+02  0.80744337104E+01  0.66842591003E+02  0.00000000000E+00 0. -1.
        -14    1    6    6    0    0 -0.39095073528E+01  0.11590847778E+02  0.48902253078E+02  0.50408951150E+02  0.00000000000E+00 0.  1.
</event>
<event>
12    1  0.8453150E-002  0.1779680E+03  0.7818608E-02  0.1169923E+00
         21   -1    0    0  503  502  0.00000000000E+00  0.00000000000E+00  0.90155088004E+02  0.90155088004E+02  0.00000000000E+00 0.  1.
         21   -1    0    0  501  503 -0.00000000000E+00 -0.00000000000E+00 -0.40014433218E+03  0.40014433218E+03  0.00000000000E+00 0.  1.
          6    2    1    2  501    0  0.92703071239E+01  0.44808236619E+02 -0.24182382265E+03  0.30025218183E+03  0.17198515875E+03 0.  0.
         24    2    3    3    0    0  0.42035427491E+02  0.86016624667E+02 -0.16427856537E+03  0.20640634397E+03  0.80313728005E+02 0.  0.
         -6    2    1    2    0  502 -0.92703071239E+01 -0.44808236619E+02 -0.68165421525E+02  0.19004723835E+03  0.17139927494E+03 0.  0.
        -24    2    5    5    0    0  0.44257030615E+02  0.16028989403E+02 -0.17624185539E+02  0.94428984389E+02  0.79941277928E+02 0.  0.
          5    1    3    3  501    0 -0.32765120367E+02 -0.41208388048E+02 -0.77545257277E+02  0.93845837864E+02  0.47000000000E+01 0. -1.
        -11    1    4    4    0    0 -0.82137452520E+00  0.39607500992E+02 -0.11762170429E+02  0.41325263994E+02  0.00000000000E+00 0.  1.
         12    1    4    4    0    0  0.42856802016E+02  0.46409123676E+02 -0.15251639494E+03  0.16508107997E+03  0.00000000000E+00 0. -1.
         -5    1    5    5    0  502 -0.53527337739E+02 -0.60837226023E+02 -0.50541235986E+02  0.95618253961E+02  0.47000000000E+01 0.  1.
         11    1    6    6    0    0  0.13971925425E+02 -0.74384669526E+01 -0.44762024138E+02  0.47478250764E+02  0.00000000000E+00 0. -1.
        -12    1    6    6    0    0  0.30285105190E+02  0.23467456356E+02  0.27137838598E+02  0.46950733626E+02  0.00000000000E+00 0.  1.
</event>
<event>
12    1  0.8453150E-002  0.1748635E+03  0.7818608E-02  0.1173199E+00
         21   -1    0    0  503  502  0.00000000000E+00  0.00000000000E+00  0.33863256804E+03  0.33863256804E+03  0.00000000000E+00 0.  1.
         21   -1    0    0  501  503 -0.00000000000E+00 -0.00000000000E+00 -0.22774476769E+03  0.22774476769E+03  0.00000000000E+00 0.  1.
          6    2    1    2  501    0  0.19835509054E+01 -0.30107847627E+02 -0.16501218866E+03  0.24042930343E+03  0.17224056019E+03 0.  0.
         24    2    3    3    0    0 -0.76419527251E+00 -0.69189490578E+02 -0.17012167332E+03  0.20064084080E+03  0.80793524883E+02 0.  0.
         -6    2    1    2    0  502 -0.19835509054E+01  0.30107847627E+02  0.27589998902E+03  0.32594803231E+03  0.17091196231E+03 0.  0.
        -24    2    5    5    0    0 -0.23253085010E+02  0.83745828590E+02  0.19192434498E+03  0.22395085159E+03  0.75927333436E+02 0.  0.
          5    1    3    3  501    0  0.27477461779E+01  0.39081642951E+02  0.51094846539E+01  0.39788462628E+02  0.47000000000E+01 0. -1.
        -13    1    4    4    0    0 -0.13871033843E+02 -0.18123743481E+02 -0.13586329360E+03  0.13776686904E+03  0.00000000000E+00 0.  1.
         14    1    4    4    0    0  0.13106838570E+02 -0.51065747097E+02 -0.34258379723E+02  0.62873971762E+02  0.00000000000E+00 0. -1.
         -5    1    5    5    0  502  0.21269534105E+02 -0.53637980963E+02  0.83975644038E+02  0.10199718072E+03  0.47000000000E+01 0.  1.
         13    1    6    6    0    0 -0.25685026958E+02  0.56090433681E+02  0.50207260471E+02  0.79540092811E+02  0.00000000000E+00 0. -1.
        -14    1    6    6    0    0  0.24319419476E+01  0.27655394909E+02  0.14171708451E+03  0.14441075878E+03  0.00000000000E+00 0.  1.
</event>
<event>
12    1  0.8453150E-002  0.2128949E+03  0.7818608E-02  0.1139489E+00
         21   -1    0    0  501  502  0.00000000000E+00  0.00000000000E+00  0.17018406852E+03  0.17018406852E+03  0.00000000000E+00 0. -1.
         21   -1    0    0  502  503 -0.00000000000E+00 -0.00000000000E+00 -0.27404609223E+03  0.27404609223E+03  0.00000000000E+00 0. -1.
         -6    2    1    2    0  503 -0.12302212923E+03  0.22208620904E+02 -0.11626278815E+02  0.21221359079E+03  0.17108994895E+03 0.  0.
        -24    2    3    3    0    0 -0.97899913811E+02 -0.84135622181E+01  0.52158393889E+02  0.13698448552E+03  0.79931658730E+02 0.  0.
          6    2    1    2  501    0  0.12302212923E+03 -0.22208620904E+02 -0.92235744899E+02  0.23201656997E+03  0.17232698273E+03 0.  0.
         24    2    5    5    0    0  0.10330054710E+02 -0.38971608339E+02 -0.74602840275E+02  0.11663238243E+03  0.80075168233E+02 0.  0.
          5    1    5    5  501    0  0.11269207452E+03  0.16762987435E+02 -0.17632904624E+02  0.11538418753E+03  0.47000000000E+01 0. -1.
        -13    1    6    6    0    0  0.16809665327E+01  0.12766361993E+02  0.10531590508E+02  0.16634904438E+02  0.00000000000E+00 0.  1.
         14    1    6    6    0    0  0.86490881775E+01 -0.51737970332E+02 -0.85134430782E+02  0.99997477993E+02  0.00000000000E+00 0. -1.
         -5    1    3    3    0  503 -0.25122215420E+02  0.30622183122E+02 -0.63784672704E+02  0.75229105263E+02  0.47000000000E+01 0.  1.
         11    1    4    4    0    0 -0.95815074208E+02  0.14941953739E+02  0.23175566229E+02  0.99704048548E+02  0.00000000000E+00 0. -1.
        -12    1    4    4    0    0 -0.20848396035E+01 -0.23355515957E+02  0.28982827660E+02  0.37280436974E+02  0.00000000000E+00 0.  1.
</event>
<event>
12    1  0.8453150E-002  0.2452900E+03  0.7818608E-02  0.1117264E+00
         21   -1    0    0  501  502  0.00000000000E+00  0.00000000000E+00  0.15481455134E+03  0.15481455134E+03  0.00000000000E+00 0.  1.
         21   -1    0    0  502  503 -0.00000000000E+00 -0.00000000000E+00 -0.56378901965E+03  0.56378901965E+03  0.00000000000E+00 0.  1.
         -6    2    1    2    0  503 -0.16119302759E+03 -0.45151591910E+02 -0.40823410661E+03  0.47331249413E+03  0.17131191702E+03 0.  0.
        -24    2    3    3    0    0 -0.49667120274E+02 -0.48525681366E+02 -0.29762993478E+03  0.31613493432E+03  0.80846484367E+02 0.  0.
          6    2    1    2  501    0  0.16119302759E+03  0.45151591910E+02 -0.74036171162E+00  0.24529107686E+03  0.17929112040E+03 0.  0.
         24    2    5    5    0    0  0.56106968614E+02  0.44406194234E+02 -0.63854311587E+02  0.12261631956E+03  0.76403446918E+02 0.  0.
          5    1    5    5  501    0  0.10508605898E+03  0.74539767613E+00  0.63113949876E+02  0.12267475730E+03  0.47000000000E+01 0. -1.
        -13    1    6    6    0    0  0.35675287517E+02 -0.11089322060E+02 -0.25629629011E+01  0.37446868788E+02  0.00000000000E+00 0.  1.
         14    1    6    6    0    0  0.20431681097E+02  0.55495516294E+02 -0.61291348686E+02  0.85169450773E+02  0.00000000000E+00 0. -1.
         -5    1    3    3    0  503 -0.11152590732E+03  0.33740894560E+01 -0.11060417182E+03  0.15717755981E+03  0.47000000000E+01 0.  1.
         11    1    4    4    0    0 -0.59713805701E+02 -0.28338364418E+02 -0.11931299340E+03  0.13639791745E+03  0.00000000000E+00 0. -1.
        -12    1    4    4    0    0  0.10046685427E+02 -0.20187316948E+02 -0.17831694138E+03  0.17973701688E+03  0.00000000000E+00 0.  1.
</event>
<event>
12    1  0.8453150E-002  0.1789259E+03  0.7818608E-02  0.1169072E+00
         21   -1    0    0  501  502  0.00000000000E+00  0.00000000000E+00  0.57224355634E+03  0.57224355634E+03  0.00000000000E+00 0.  1.
         21   -1    0    0  502  503 -0.00000000000E+00 -0.00000000000E+00 -0.80224332472E+02  0.80224332472E+02  0.00000000000E+00 0.  1.
         -6    2    1    2    0  503 -0.39652985840E+02  0.23889953911E+02  0.65042395473E+02  0.18951680863E+03  0.17188082604E+03 0.  0.
        -24    2    3    3    0    0 -0.71677229428E+02 -0.12557771600E+02  0.84063411977E+02  0.13719207316E+03  0.80372164707E+02 0.  0.
          6    2    1    2  501    0  0.39652985840E+02 -0.23889953911E+02  0.42697682839E+03  0.46295108018E+03  0.17283345011E+03 0.  0.
         24    2    5    5    0    0  0.33552590812E+02 -0.81893263518E+02  0.25925998993E+03  0.28532048977E+03  0.79748081780E+02 0.  0.
          5    1    5    5  501    0  0.61003950278E+01  0.58003309607E+02  0.16771683846E+03  0.17763059041E+03  0.47000000000E+01 0. -1.
        -13    1    6    6    0    0  0.54222863248E+02 -0.78557001121E+02  0.23258072465E+03  0.25140627439E+03  0.00000000000E+00 0.  1.
         14    1    6    6    0    0 -0.20670272435E+02 -0.33362623976E+01  0.26679265274E+02  0.33914215380E+02  0.00000000000E+00 0. -1.
         -5    1    3    3    0  503  0.32024243588E+02  0.36447725511E+02 -0.19021016504E+02  0.52324735462E+02  0.47000000000E+01 0.  1.
         13    1    4    4    0    0 -0.82757862818E+01 -0.27713654617E+02  0.61927025957E+02  0.68348312596E+02  0.00000000000E+00 0. -1.
        -14    1    4    4    0    0 -0.63401443147E+02  0.15155883017E+02  0.22136386020E+02  0.68843760568E+02  0.00000000000E+00 0.  1.
</event>
<event>
12    1  0.8453150E-002  0.1837995E+03  0.7818608E-02  0.1164377E+00
         21   -1    0    0  503  502  0.00000000000E+00  0.00000000000E+00  0.10174972374E+03  0.10174972374E+03  0.00000000000E+00 0.  1.
         21   -1    0    0  501  503 -0.00000000000E+00 -0.00000000000E+00 -0.33972951244E+03  0.33972951244E+03  0.00000000000E+00 0.  1.
          6    2    1    2  501    0 -0.45767346698E+02  0.41274329710E+02 -0.82832136855E+02  0.20160208512E+03  0.17315893714E+03 0.  0.
         24    2    3    3    0    0  0.20856167181E+02  0.54604681522E+02 -0.56584078550E+01  0.98673637504E+02  0.79295764106E+02 0.  0.
         -6    2    1    2    0  502  0.45767346698E+02 -0.41274329710E+02 -0.15514765184E+03  0.23987715106E+03  0.17225572099E+03 0.  0.
        -24    2    5    5    0    0  0.41700770446E+02  0.10349085808E+02 -0.16337645754E+03  0.18723384840E+03  0.80737780954E+02 0.  0.
          5    1    3    3  501    0 -0.66623513879E+02 -0.13330351812E+02 -0.77173729000E+02  0.10292844762E+03  0.47000000000E+01 0. -1.
        -13    1    4    4    0    0  0.26863936327E+02  0.18927267025E+02 -0.37934788569E+02  0.50189248807E+02  0.00000000000E+00 0.  1.
         14    1    4    4    0    0 -0.60077691461E+01  0.35677414497E+02  0.32276380714E+02  0.48484388697E+02  0.00000000000E+00 0. -1.
         -5    1    5    5    0  502  0.40665762522E+01 -0.51623415518E+02  0.82288057017E+01  0.52643302664E+02  0.47000000000E+01 0.  1.
         13    1    6    6    0    0  0.44391755207E+02  0.34972345647E+02 -0.66638012784E+02  0.87374582335E+02  0.00000000000E+00 0. -1.
        -14    1    6    6    0    0 -0.26909847610E+01 -0.24623259839E+02 -0.96738444759E+02  0.99859266062E+02  0.00000000000E+00 0.  1.
</event>
<event>
12    1  0.8453150E-002  0.2083519E+03  0.7818608E-02  0.1142891E+00
         21   -1    0    0  503  502  0.00000000000E+00  0.00000000000E+00  0.32851180739E+03  0.32851180739E+03  0.00000000000E+00 0.  1.
         21   -1    0    0  501  503 -0.00000000000E+00 -0.00000000000E+00 -0.27104234423E+03  0.27104234423E+03  0.00000000000E+00 0.  1.
          6    2    1    2  501    0  0.10562361376E+03 -0.62419080074E+02 -0.18589541220E+03  0.27922679713E+03  0.16839836881E+03 0.  0.
         24    2    3    3    0    0  0.96722800167E+02 -0.92764799783E+02 -0.18879297665E+03  0.24712425724E+03  0.86411818261E+02 0.  0.
         -6    2    1    2    0  502 -0.10562361376E+03  0.62419080074E+02  0.24336487536E+03  0.32032735448E+03  0.16831714747E+03 0.  0.
        -24    2    5    5    0    0 -0.74175108394E+02  0.18830278915E+02  0.51995184837E+02  0.12149717437E+03  0.78749844595E+02 0.  0.
          5    1    3    3  501    0  0.89008135927E+01  0.30345719709E+02  0.28975644547E+01  0.32102539884E+02  0.47000000000E+01 0. -1.
        -11    1    4    4    0    0  0.16965422237E+02 -0.74210976158E+02 -0.10761885705E+03  0.13182151921E+03  0.00000000000E+00 0.  1.
         12    1    4    4    0    0  0.79757377931E+02 -0.18553823625E+02 -0.81174119602E+02  0.11530273804E+03  0.00000000000E+00 0. -1.
         -5    1    5    5    0  502 -0.31448505366E+02  0.43588801160E+02  0.19136969052E+03  0.19883018012E+03  0.47000000000E+01 0.  1.
         11    1    6    6    0    0 -0.22486936380E+01  0.20069700474E+02 -0.13434207328E+02  0.24255461792E+02  0.00000000000E+00 0. -1.
        -12    1    6    6    0    0 -0.71926414756E+02 -0.12394215592E+01  0.65429392166E+02  0.97241712576E+02  0.00000000000E+00 0.  1.
</event>
<event>
12    1  0.8453150E-002  0.1876883E+03  0.7818608E-02  0.1161443E+00
         21   -1    0    0  503  502  0.00000000000E+00  0.00000000000E+00  0.23551867048E+03  0.23551867048E+03  0.00000000000E+00 0.  1.
         21   -1    0    0  501  503 -0.00000000000E+00 -0.00000000000E+00 -0.15019132819E+03  0.15019132819E+03  0.00000000000E+00 0. -1.
          6    2    1    2  501    0  0.40933057989E+02 -0.58832159460E+02  0.72225891487E+02  0.19756502377E+03  0.16934763356E+03 0.  0.
         24    2    3    3    0    0  0.68185975402E+02 -0.83447669059E+02  0.23057936053E+02  0.13601648470E+03  0.79724368808E+02 0.  0.
         -6    2    1    2    0  502 -0.40933057989E+02  0.58832159460E+02  0.13101450800E+02  0.18814497490E+03  0.17346511276E+03 0.  0.
        -24    2    5    5    0    0 -0.10018427299E+02  0.94049325849E+02 -0.26586723458E+02  0.12655597933E+03  0.79774165378E+02 0.  0.
          5    1    3    3  501    0 -0.27252917413E+02  0.24615509598E+02  0.49167955434E+02  0.61548539072E+02  0.47000000000E+01 0. -1.
        -11    1    4    4    0    0 -0.11658448289E+01 -0.45977157431E+00  0.27735935302E+02  0.27764234028E+02  0.00000000000E+00 0.  1.
         12    1    4    4    0    0  0.69351820231E+02 -0.82987897484E+02 -0.46779992492E+01  0.10825225067E+03  0.00000000000E+00 0. -1.
         -5    1    5    5    0  502 -0.30914630690E+02 -0.35217166389E+02  0.39688174258E+02  0.61588995568E+02  0.47000000000E+01 0.  1.
         13    1    6    6    0    0  0.27689692884E+02  0.98562369765E+01  0.33180796796E+01  0.29578271622E+02  0.00000000000E+00 0. -1.
        -14    1    6    6    0    0 -0.37708120183E+02  0.84193088873E+02 -0.29904803138E+02  0.96977707709E+02  0.00000000000E+00 0.  1.
</event>
<event>
12    1  0.8453150E-002  0.2498733E+03  0.7818608E-02  0.1113753E+00
         21   -1    0    0  501  502  0.00000000000E+00  0.00000000000E+00  0.77486437618E+03  0.77486437618E+03  0.00000000000E+00 0. -1.
         21   -1    0    0  502  503 -0.00000000000E+00 -0.00000000000E+00 -0.23512922553E+03  0.23512922553E+03  0.00000000000E+00 0. -1.
         -6    2    1    2    0  503  0.16000542782E+03  0.85108119528E+02 -0.14011296933E+03  0.28647569580E+03  0.17202194966E+03 0.  0.
        -24    2    3    3    0    0  0.10672080640E+03  0.12250667635E+03 -0.81185058136E+02  0.19854110846E+03  0.80189412114E+02 0.  0.
          6    2    1    2  501    0 -0.16000542782E+03 -0.85108119528E+02  0.67984811999E+03  0.72351790591E+03  0.16864034209E+03 0.  0.
         24    2    5    5    0    0 -0.61958964860E+02 -0.96428567513E+02  0.29689182761E+03  0.32801964635E+03  0.79465395820E+02 0.  0.
          5    1    5    5  501    0 -0.98046462958E+02  0.11320447985E+02  0.38295629238E+03  0.39549825956E+03  0.47000000000E+01 0. -1.
        -11    1    6    6    0    0 -0.14317789889E+02 -0.22234334013E+01  0.17845873528E+01  0.14598887472E+02  0.00000000000E+00 0.  1.
         12    1    6    6    0    0 -0.47641174972E+02 -0.94205134112E+02  0.29510724026E+03  0.31342075888E+03  0.00000000000E+00 0. -1.
         -5    1    3    3    0  503  0.53284621422E+02 -0.37398556820E+02 -0.58927911197E+02  0.87934587338E+02  0.47000000000E+01 0.  1.
         13    1    4    4    0    0  0.62045356037E+02  0.23316103102E+02 -0.56249672617E+02  0.86932689704E+02  0.00000000000E+00 0. -1.
        -14    1    4    4    0    0  0.44675450360E+02  0.99190573246E+02 -0.24935385519E+02  0.11160841875E+03  0.00000000000E+00 0.  1.
</event>
<event>
12    1  0.8453150E-002  0.2392287E+03  0.7818608E-02  0.1120567E+00
         21   -1    0    0  501  502  0.00000000000E+00  0.00000000000E+00  0.56726675054E+03  0.56726675054E+03  0.00000000000E+00 0.  1.
         21   -1    0    0  502  503 -0.00000000000E+00 -0.00000000000E+00 -0.10128309012E+03  0.10128309012E+03  0.00000000000E+00 0. -1.
         -6    2    1    2    0  503  0.15500917165E+03  0.59381544389E+02  0.19829493239E+03  0.30954062457E+03  0.17011909634E+03 0.  0.
        -24    2    3    3    0    0  0.78680260100E+02  0.13401998021E+00  0.28533886215E+02  0.11415056678E+03  0.77624531832E+02 0.  0.
          6    2    1    2  501    0 -0.15500917165E+03 -0.59381544389E+02  0.26768872804E+03  0.35900921609E+03  0.17226825305E+03 0.  0.
         24    2    5    5    0    0 -0.29804041371E+02 -0.72168697626E+02  0.12119963367E+03  0.16582282758E+03  0.81922262829E+02 0.  0.
          5    1    5    5  501    0 -0.12520513027E+03  0.12787153237E+02  0.14648909437E+03  0.19318638850E+03  0.47000000000E+01 0. -1.
        -13    1    6    6    0    0 -0.46263423567E+02 -0.50870418262E+02  0.12068700539E+03  0.13890088943E+03  0.00000000000E+00 0.  1.
         14    1    6    6    0    0  0.16459382197E+02 -0.21298279364E+02  0.51262827868E+00  0.26921938153E+02  0.00000000000E+00 0. -1.
         -5    1    3    3    0  503  0.76328911545E+02  0.59247524409E+02  0.16976104618E+03  0.19539005780E+03  0.47000000000E+01 0.  1.
         11    1    4    4    0    0  0.21370708261E+02 -0.34905349814E+02  0.22507145766E+02  0.46708267231E+02  0.00000000000E+00 0. -1.
        -12    1    4    4    0    0  0.57309551839E+02  0.35039369794E+02  0.60267404490E+01  0.67442299545E+02  0.00000000000E+00 0.  1.
</event>
<event>
12    1  0.8453150E-002  0.1879848E+03  0.7818608E-02  0.1160742E+00
         21   -1    0    0  501  502  0.00000000000E+00  0.00000000000E+00  0.38375460775E+02  0.38375460775E+02  0.00000000000E+00 0.  1.
         21   -1    0    0  502  503 -0.00000000000E+00 -0.00000000000E+00 -0.10471430313E+04  0.10471430313E+04  0.00000000000E+00 0.  1.
         -6    2    1    2    0  503  0.67143222273E+02  0.38520931161E+02 -0.69757993467E+03  0.72195826384E+03  0.16915642180E+03 0.  0.
        -24    2    3    3    0    0  0.71233327069E+01  0.28731244017E+02 -0.16993076197E+03  0.19079542198E+03  0.81548776408E+02 0.  0.
          6    2    1    2  501    0 -0.67143222273E+02 -0.38520931161E+02 -0.31118763588E+03  0.36356022827E+03  0.17130738576E+03 0.  0.
         24    2    5    5    0    0 -0.11259994988E+03 -0.21894114386E+02 -0.24420232590E+03  0.28078410324E+03  0.77761402374E+02 0.  0.
          5    1    5    5  501    0  0.45456727607E+02 -0.16626816775E+02 -0.66985309980E+02  0.82776125023E+02  0.47000000000E+01 0. -1.
        -13    1    6    6    0    0 -0.79921539838E+01 -0.16338940707E+02 -0.38449747198E+01  0.18590840200E+02  0.00000000000E+00 0.  1.
         14    1    6    6    0    0 -0.10460779590E+03 -0.55551736789E+01 -0.24035735118E+03  0.26219326304E+03  0.00000000000E+00 0. -1.
         -5    1    3    3    0  503  0.60019889566E+02  0.97896871441E+01 -0.52764917271E+03  0.53116284186E+03  0.47000000000E+01 0.  1.
         13    1    4    4    0    0 -0.30362674205E+02 -0.79072563110E+01 -0.89038925641E+02  0.94405227432E+02  0.00000000000E+00 0. -1.
        -14    1    4    4    0    0  0.37486006912E+02  0.36638500328E+02 -0.80891836327E+02  0.96390194547E+02  0.00000000000E+00 0.  1.
</event>
<event>
12    1  0.8453150E-002  0.4260577E+03  0.7818608E-02  0.1035259E+00
         21   -1    0    0  501  502  0.00000000000E+00  0.00000000000E+00  0.10694456169E+03  0.10694456169E+03  0.00000000000E+00 0.  1.
         21   -1    0    0  502  503 -0.00000000000E+00 -0.00000000000E+00 -0.26587788510E+04  0.26587788510E+04  0.00000000000E+00 0. -1.
         -6    2    1    2    0  503 -0.38783232265E+03  0.99523944786E+01 -0.21088667251E+04  0.21511134395E+04  0.17163101273E+03 0.  0.
        -24    2    3    3    0    0 -0.24544856427E+03 -0.55683004309E+02 -0.14440483128E+04  0.14680418828E+04  0.80782703530E+02 0.  0.
          6    2    1    2  501    0  0.38783232265E+03 -0.99523944786E+01 -0.44296756424E+03  0.61460997327E+03  0.17610279846E+03 0.  0.
         24    2    5    5    0    0  0.31005315404E+03  0.45318891786E+01 -0.42732172135E+03  0.53382460366E+03  0.78812166485E+02 0.  0.
          5    1    5    5  501    0  0.77779168610E+02 -0.14484283657E+02 -0.15645842887E+02  0.80785369606E+02  0.47000000000E+01 0. -1.
        -11    1    6    6    0    0  0.48423143923E+02  0.29636859434E+02 -0.66781111717E+02  0.87651932019E+02  0.00000000000E+00 0.  1.
         12    1    6    6    0    0  0.26163001012E+03 -0.25104970255E+02 -0.36054060963E+03  0.44617267164E+03  0.00000000000E+00 0. -1.
         -5    1    3    3    0  503 -0.14238375838E+03  0.65635398788E+02 -0.66481841230E+03  0.68307155669E+03  0.47000000000E+01 0.  1.
         13    1    4    4    0    0 -0.69981915457E+02 -0.10747760101E+02 -0.63671158161E+03  0.64063610653E+03  0.00000000000E+00 0. -1.
        -14    1    4    4    0    0 -0.17546664881E+03 -0.44935244208E+02 -0.80733673119E+03  0.82740577624E+03  0.00000000000E+00 0.  1.
</event>
<event>
12    1  0.8453150E-002  0.1888994E+03  0.7818608E-02  0.1159576E+00
         21   -1    0    0  501  502  0.00000000000E+00  0.00000000000E+00  0.32669184994E+03  0.32669184994E+03  0.00000000000E+00 0.  1.
         21   -1    0    0  502  503 -0.00000000000E+00 -0.00000000000E+00 -0.20012532785E+03  0.20012532785E+03  0.00000000000E+00 0. -1.
         -6    2    1    2    0  503  0.69413815593E+02  0.39272755863E+02 -0.11448858313E+03  0.22088596234E+03  0.17123768728E+03 0.  0.
        -24    2    3    3    0    0  0.96834561960E+02  0.33282076948E+02 -0.12949270446E+03  0.18871455854E+03  0.91434102294E+02 0.  0.
          6    2    1    2  501    0 -0.69413815593E+02 -0.39272755863E+02  0.24105510522E+03  0.30593121546E+03  0.17066258434E+03 0.  0.
         24    2    5    5    0    0 -0.94898874877E+02  0.10461347461E+02  0.13159595836E+03  0.18294193092E+03  0.83875011710E+02 0.  0.
          5    1    5    5  501    0  0.25485059284E+02 -0.49734103324E+02  0.10945914686E+03  0.12298928454E+03  0.47000000000E+01 0. -1.
        -13    1    6    6    0    0 -0.34445629758E+01 -0.27293486291E+02  0.36538135041E+02  0.45736579674E+02  0.00000000000E+00 0.  1.
         14    1    6    6    0    0 -0.91454311901E+02  0.37754833752E+02  0.95057823318E+02  0.13720535125E+03  0.00000000000E+00 0. -1.
         -5    1    3    3    0  503 -0.27420746367E+02  0.59906789153E+01  0.15004121331E+02  0.32171403795E+02  0.47000000000E+01 0.  1.
         13    1    4    4    0    0 -0.15824323191E+02 -0.22271695125E+01 -0.31161821483E+02  0.35020402720E+02  0.00000000000E+00 0. -1.
        -14    1    4    4    0    0  0.11265888515E+03  0.35509246460E+02 -0.98330882975E+02  0.15369415582E+03  0.00000000000E+00 0.  1.
</event>
<event>
12    1  0.8453150E-002  0.2156713E+03  0.7818608E-02  0.1137293E+00
         21   -1    0    0  501  502  0.00000000000E+00  0.00000000000E+00  0.33405720128E+03  0.33405720128E+03  0.00000000000E+00 0. -1.
         21   -1    0    0  502  503 -0.00000000000E+00 -0.00000000000E+00 -0.16153831960E+03  0.16153831960E+03  0.00000000000E+00 0.  1.
         -6    2    1    2    0  503  0.58194069177E+02 -0.11487233441E+03  0.17942631516E+03  0.28054929886E+03  0.17300839176E+03 0.  0.
        -24    2    3    3    0    0 -0.91134518963E+01 -0.64908950791E+02  0.16590878783E+03  0.19551133298E+03  0.80017051592E+02 0.  0.
          6    2    1    2  501    0 -0.58194069177E+02  0.11487233441E+03 -0.69074334829E+01  0.21504622203E+03  0.17208998249E+03 0.  0.
         24    2    5    5    0    0  0.11495545739E+02  0.11180825415E+02  0.13304218978E+02  0.88400367935E+02  0.85909629143E+02 0.  0.
          5    1    5    5  501    0 -0.69689614916E+02  0.10369150899E+03 -0.20211652461E+02  0.12664585409E+03  0.47000000000E+01 0. -1.
        -13    1    6    6    0    0  0.24129131418E+02  0.57761238219E+01 -0.32323832526E+02  0.40748113313E+02  0.00000000000E+00 0.  1.
         14    1    6    6    0    0 -0.12633585678E+02  0.54047015932E+01  0.45628051505E+02  0.47652254622E+02  0.00000000000E+00 0. -1.
         -5    1    3    3    0  503  0.67307521073E+02 -0.49963383615E+02  0.13517527326E+02  0.85037965876E+02  0.47000000000E+01 0.  1.
         13    1    4    4    0    0 -0.95890632226E+01 -0.81098832985E+02  0.10811630231E+03  0.13549208711E+03  0.00000000000E+00 0. -1.
        -14    1    4    4    0    0  0.47561132631E+00  0.16189882195E+02  0.57792485523E+02  0.60019245868E+02  0.00000000000E+00 0.  1.
</event>
<event>
12    1  0.8453150E-002  0.1916201E+03  0.7818608E-02  0.1157047E+00
         21   -1    0    0  501  502  0.00000000000E+00  0.00000000000E+00  0.36161141349E+03  0.36161141349E+03  0.00000000000E+00 0.  1.
         21   -1    0    0  502  503 -0.00000000000E+00 -0.00000000000E+00 -0.11547428953E+03  0.11547428953E+03  0.00000000000E+00 0.  1.
         -6    2    1    2    0  503  0.55144685853E+02 -0.63524177733E+02  0.39984109413E+02  0.19574724128E+03  0.17216851027E+03 0.  0.
        -24    2    3    3    0    0  0.39614480009E+01 -0.62329244137E+02  0.81382124907E+02  0.12973938273E+03  0.79426881042E+02 0.  0.
          6    2    1    2  501    0 -0.55144685853E+02  0.63524177733E+02  0.20615301454E+03  0.28133846175E+03  0.17197676331E+03 0.  0.
         24    2    5    5    0    0 -0.66371478078E+02  0.81594774641E+02  0.83022155152E+02  0.15629492585E+03  0.80452130164E+02 0.  0.
          5    1    5    5  501    0  0.11226792225E+02 -0.18070596908E+02  0.12313085939E+03  0.12504353590E+03  0.47000000000E+01 0. -1.
        -13    1    6    6    0    0 -0.21124307219E+02  0.36473349296E+02 -0.10113892040E+02  0.43345500072E+02  0.00000000000E+00 0.  1.
         14    1    6    6    0    0 -0.45247170860E+02  0.45121425345E+02  0.93136047191E+02  0.11294942577E+03  0.00000000000E+00 0. -1.
         -5    1    3    3    0  503  0.51183237853E+02 -0.11949335956E+01 -0.41398015494E+02  0.66007858549E+02  0.47000000000E+01 0.  1.
         13    1    4    4    0    0 -0.91933258561E+01 -0.27335147738E+02  0.87253536012E+02  0.91896175594E+02  0.00000000000E+00 0. -1.
        -14    1    4    4    0    0  0.13154773857E+02 -0.34994096399E+02 -0.58714111058E+01  0.37843207137E+02  0.00000000000E+00 0.  1.
</event>
<event>
12    1  0.8453150E-002  0.2216032E+03  0.7818608E-02  0.1132794E+00
         21   -1    0    0  501  502  0.00000000000E+00  0.00000000000E+00  0.31251590296E+03  0.31251590296E+03  0.00000000000E+00 0.  1.
         21   -1    0    0  502  503 -0.00000000000E+00 -0.00000000000E+00 -0.18946862230E+03  0.18946862230E+03  0.00000000000E+00 0.  1.
         -6    2    1    2    0  503  0.13086882075E+03 -0.46067005248E+02 -0.42837263975E+02  0.22517112659E+03  0.17209935458E+03 0.  0.
        -24    2    3    3    0    0  0.13463583142E+03 -0.43865403012E+02 -0.84378600191E+02  0.18313768709E+03  0.79804032337E+02 0.  0.
          6    2    1    2  501    0 -0.13086882075E+03  0.46067005248E+02  0.16588454463E+03  0.27681339867E+03  0.17279802753E+03 0.  0.
         24    2    5    5    0    0 -0.25441614951E+02 -0.30302036333E+02  0.64853489150E+02  0.11196046297E+03  0.82241601622E+02 0.  0.
          5    1    5    5  501    0 -0.10542720580E+03  0.76369041582E+02  0.10103105548E+03  0.16485293569E+03  0.47000000000E+01 0. -1.
        -11    1    6    6    0    0  0.15033603406E+02 -0.21342411876E+02 -0.87101036266E+01  0.27520422984E+02  0.00000000000E+00 0.  1.
         12    1    6    6    0    0 -0.40475218356E+02 -0.89596244578E+01  0.73563592777E+02  0.84440039991E+02  0.00000000000E+00 0. -1.
         -5    1    3    3    0  503 -0.37670106686E+01 -0.22016022365E+01  0.41541336216E+02  0.42033439502E+02  0.47000000000E+01 0.  1.
         13    1    4    4    0    0  0.21362844963E+02 -0.43048929740E+02 -0.35590617980E+02  0.59801953019E+02  0.00000000000E+00 0. -1.
        -14    1    4    4    0    0  0.11327298646E+03 -0.81647327215E+00 -0.48787982211E+02  0.12333573407E+03  0.00000000000E+00 0.  1.
</event>
<event>
12    1  0.8453150E-002  0.1856266E+03  0.7818608E-02  0.1162571E+00
         21   -1    0    0  501  502  0.00000000000E+00  0.00000000000E+00  0.27923150461E+03  0.27923150461E+03  0.00000000000E+00 0.  1.
         21   -1    0    0  502  503 -0.00000000000E+00 -0.00000000000E+00 -0.12319220898E+03  0.12319220898E+03  0.00000000000E+00 0.  1.
         -6    2    1    2    0  503 -0.66198195836E+02  0.15505230752E+02  0.72441710233E+02  0.19884128536E+03  0.17224239336E+03 0.  0.
        -24    2    3    3    0    0 -0.41099602489E+02  0.48795314100E+02  0.10429698949E+03  0.14616284714E+03  0.80097165151E+02 0.  0.
          6    2    1    2  501    0  0.66198195836E+02 -0.15505230752E+02  0.83597585393E+02  0.20358242823E+03  0.17272705488E+03 0.  0.
         24    2    5    5    0    0  0.30175707548E+02 -0.45141261751E+02  0.11242393804E+03  0.14854641636E+03  0.80489683381E+02 0.  0.
          5    1    5    5  501    0  0.36022488289E+02  0.29636030999E+02 -0.28826352644E+02  0.55036011871E+02  0.47000000000E+01 0. -1.
        -11    1    6    6    0    0  0.25854395544E+02 -0.50203475568E+02  0.26523622280E+02  0.62388630911E+02  0.00000000000E+00 0.  1.
         12    1    6    6    0    0  0.43213120036E+01  0.50622138167E+01  0.85900315757E+02  0.86157785448E+02  0.00000000000E+00 0. -1.
         -5    1    3    3    0  503 -0.25098593347E+02 -0.33290083347E+02 -0.31855279255E+02  0.52678438224E+02  0.47000000000E+01 0.  1.
         11    1    4    4    0    0 -0.22982786105E+02 -0.13858176147E+02  0.49039097187E+01  0.27281969023E+02  0.00000000000E+00 0. -1.
        -12    1    4    4    0    0 -0.18116816385E+02  0.62653490247E+02  0.99393079769E+02  0.11888087812E+03  0.00000000000E+00 0.  1.
</event>
<event>
12    1  0.8453150E-002  0.1900164E+03  0.7818608E-02  0.1158753E+00
         21   -1    0    0  503  502  0.00000000000E+00  0.00000000000E+00  0.75370972558E+02  0.75370972558E+02  0.00000000000E+00 0. -1.
         21   -1    0    0  501  503 -0.00000000000E+00 -0.00000000000E+00 -0.47574791421E+03  0.47574791421E+03  0.00000000000E+00 0. -1.
          6    2    1    2  501    0  0.77898421043E+02  0.19956997176E+02 -0.20366130892E+03  0.27761703862E+03  0.17066588893E+03 0.  0.
         24    2    3    3    0    0 -0.15026076491E+02 -0.24370150155E+02 -0.74785261950E+02  0.11259890715E+03  0.79158014706E+02 0.  0.
         -6    2    1    2    0  502 -0.77898421043E+02 -0.19956997176E+02 -0.19671563274E+03  0.27350184816E+03  0.17216206041E+03 0.  0.
        -24    2    5    5    0    0 -0.68962534846E+02 -0.62878354340E+02 -0.73615095507E+02  0.14274281317E+03  0.79036762136E+02 0.  0.
          5    1    3    3  501    0  0.92924497535E+02  0.44327147331E+02 -0.12887604696E+03  0.16501813147E+03  0.47000000000E+01 0. -1.
        -13    1    4    4    0    0  0.13849561638E+02 -0.22643781901E+02 -0.79024073013E+02  0.83362793451E+02  0.00000000000E+00 0.  1.
         14    1    4    4    0    0 -0.28875638130E+02 -0.17263682540E+01  0.42388110630E+01  0.29236113695E+02  0.00000000000E+00 0. -1.
         -5    1    5    5    0  502 -0.89358861973E+01  0.42921357164E+02 -0.12310053723E+03  0.13075903499E+03  0.47000000000E+01 0.  1.
         13    1    6    6    0    0 -0.77213713609E+02 -0.21574665065E+02 -0.48876678598E+02  0.93895438935E+02  0.00000000000E+00 0. -1.
        -14    1    6    6    0    0  0.82511787634E+01 -0.41303689275E+02 -0.24738416909E+02  0.48847374237E+02  0.00000000000E+00 0.  1.
</event>
<event>
12    1  0.8453150E-002  0.2505347E+03  0.7818608E-02  0.1113635E+00
         21   -1    0    0  501  502  0.00000000000E+00  0.00000000000E+00  0.45012854340E+03  0.45012854340E+03  0.00000000000E+00 0. -1.
         21   -1    0    0  502  503 -0.00000000000E+00 -0.00000000000E+00 -0.17043155161E+03  0.17043155161E+03  0.00000000000E+00 0.  1.
         -6    2    1    2    0  503 -0.48913082978E+02 -0.17283475447E+03  0.27797912322E+03  0.37421921763E+03  0.17465190483E+03 0.  0.
        -24    2    3    3    0    0 -0.61061556686E+01 -0.51580097948E+02  0.19971675028E+03  0.22361306313E+03  0.86129147340E+02 0.  0.
          6    2    1    2  501    0  0.48913082978E+02  0.17283475447E+03  0.17178685707E+01  0.24634087737E+03  0.16857204618E+03 0.  0.
         24    2    5    5    0    0  0.22750575466E+01  0.18050687277E+03  0.14138061656E+02  0.19724588769E+03  0.78218593823E+02 0.  0.
          5    1    5    5  501    0  0.46638025431E+02 -0.76721183009E+01 -0.12420193086E+02  0.49094989679E+02  0.47000000000E+01 0. -1.
        -11    1    6    6    0    0  0.29593287688E+02  0.12019184395E+03  0.33546706247E+02  0.12824672911E+03  0.00000000000E+00 0.  1.
         12    1    6    6    0    0 -0.27318230141E+02  0.60315028825E+02 -0.19408644590E+02  0.68999158582E+02  0.00000000000E+00 0. -1.
         -5    1    3    3    0  503 -0.42806927309E+02 -0.12125465652E+03  0.78262372941E+02  0.15060615450E+03  0.47000000000E+01 0.  1.
         13    1    4    4    0    0  0.31753439001E+02 -0.23554910397E+02  0.15001171513E+03  0.15513423017E+03  0.00000000000E+00 0. -1.
        -14    1    4    4    0    0 -0.37859594670E+02 -0.28025187551E+02  0.49705035142E+02  0.68478832966E+02  0.00000000000E+00 0.  1.
</event>
<event>
12    1  0.8453150E-002  0.2792781E+03  0.7818608E-02  0.1096260E+00
         21   -1    0    0  501  502  0.00000000000E+00  0.00000000000E+00  0.11560051232E+04  0.11560051232E+04  0.00000000000E+00 0.  1.
         21   -1    0    0  502  503 -0.00000000000E+00 -0.00000000000E+00 -0.92530564893E+02  0.92530564893E+02  0.00000000000E+00 0. -1.
         -6    2    1    2    0  503 -0.16539167479E+03 -0.13852273259E+03  0.85949820872E+03  0.90373304904E+03  0.17735078122E+03 0.  0.
        -24    2    3    3    0    0 -0.22947556630E+02 -0.85206335512E+02  0.29361854239E+03  0.31775109389E+03  0.83469750607E+02 0.  0.
          6    2    1    2  501    0  0.16539167479E+03  0.13852273259E+03  0.20397634954E+03  0.34480263900E+03  0.17532699495E+03 0.  0.
         24    2    5    5    0    0  0.42612966044E+02 -0.23752654471E+01  0.60279412963E+02  0.10901087334E+03  0.80176406243E+02 0.  0.
          5    1    5    5  501    0  0.12277870875E+03  0.14089799804E+03  0.14369693658E+03  0.23579176566E+03  0.47000000000E+01 0. -1.
        -11    1    6    6    0    0  0.19155863496E+02 -0.40642357442E+02  0.38274006949E+02  0.59022435841E+02  0.00000000000E+00 0.  1.
         12    1    6    6    0    0  0.23457102548E+02  0.38267091995E+02  0.22005406014E+02  0.49988437499E+02  0.00000000000E+00 0. -1.
         -5    1    3    3    0  503 -0.14244411816E+03 -0.53316397079E+02  0.56587966633E+03  0.58598195515E+03  0.47000000000E+01 0.  1.
         11    1    4    4    0    0 -0.38279390934E+02 -0.90283871726E+02  0.19997670878E+03  0.22272667851E+03  0.00000000000E+00 0. -1.
        -12    1    4    4    0    0  0.15331834303E+02  0.50775362144E+01  0.93641833611E+02  0.95024415385E+02  0.00000000000E+00 0.  1.
</event>
<event>
12    1  0.8453150E-002  0.1723810E+03  0.7818608E-02  0.1175456E+00
         21   -1    0    0  501  502  0.00000000000E+00  0.00000000000E+00  0.48713358976E+03  0.48713358976E+03  0.00000000000E+00 0.  1.
         21   -1    0    0  502  503 -0.00000000000E+00 -0.00000000000E+00 -0.16523700210E+03  0.16523700210E+03  0.00000000000E+00 0.  1.
         -6    2    1    2    0  503  0.14927450691E+01 -0.83491549768E+01 -0.98288869842E+02  0.19819987503E+03  0.17190273951E+03 0.  0.
        -24    2    3    3    0    0 -0.91379765988E+00  0.27154363802E+02  0.54138843037E+01  0.88460900590E+02  0.84010870073E+02 0.  0.
          6    2    1    2  501    0 -0.14927450691E+01  0.83491549768E+01  0.42018545750E+03  0.45417071683E+03  0.17217225285E+03 0.  0.
         24    2    5    5    0    0 -0.30696736958E+01 -0.47078468150E+02  0.15030758580E+03  0.17861516210E+03  0.84173634362E+02 0.  0.
          5    1    5    5  501    0  0.15769286267E+01  0.55427623127E+02  0.26987787170E+03  0.27555555473E+03  0.47000000000E+01 0. -1.
        -11    1    6    6    0    0  0.25452826240E+02 -0.23491156604E+02  0.13358203293E+03  0.13799942146E+03  0.00000000000E+00 0.  1.
         12    1    6    6    0    0 -0.28522499935E+02 -0.23587311546E+02  0.16725552872E+02  0.40615740636E+02  0.00000000000E+00 0. -1.
         -5    1    3    3    0  503  0.24065427290E+01 -0.35503518779E+02 -0.10370275415E+03  0.10973897444E+03  0.47000000000E+01 0.  1.
         11    1    4    4    0    0  0.17087628206E+02  0.42368014002E+02 -0.23324302606E+02  0.51293847002E+02  0.00000000000E+00 0. -1.
        -12    1    4    4    0    0 -0.18001425866E+02 -0.15213650200E+02  0.28738186910E+02  0.37167053589E+02  0.00000000000E+00 0.  1.
</event>
<event>
12    1  0.8453150E-002  0.2050430E+03  0.7818608E-02  0.1145838E+00
         21   -1    0    0  503  502  0.00000000000E+00  0.00000000000E+00  0.39991499747E+03  0.39991499747E+03  0.00000000000E+00 0. -1.
         21   -1    0    0  501  503 -0.00000000000E+00 -0.00000000000E+00 -0.13257067323E+03  0.13257067323E+03  0.00000000000E+00 0.  1.
          6    2    1    2  501    0  0.10522929082E+03  0.15049223223E+02  0.11338031014E+02  0.20535621916E+03  0.17533665628E+03 0.  0.
         24    2    3    3    0    0  0.25450874619E+02 -0.51594144180E+02  0.18344897982E+02  0.10106278555E+03  0.81039796445E+02 0.  0.
         -6    2    1    2    0  502 -0.10522929082E+03 -0.15049223223E+02  0.25600629322E+03  0.32712945154E+03  0.17370887464E+03 0.  0.
        -24    2    5    5    0    0 -0.19415028788E+02  0.28055607259E+02  0.19370844705E+03  0.21256407450E+03  0.80600638131E+02 0.  0.
          5    1    3    3  501    0  0.79778416204E+02  0.66643367403E+02 -0.70068669685E+01  0.10429343362E+03  0.47000000000E+01 0. -1.
        -13    1    4    4    0    0 -0.16235145666E+02 -0.37837795411E+02 -0.17157792043E+02  0.44605700803E+02  0.00000000000E+00 0.  1.
         14    1    4    4    0    0  0.41686020284E+02 -0.13756348769E+02  0.35502690026E+02  0.56457084742E+02  0.00000000000E+00 0. -1.
         -5    1    5    5    0  502 -0.85814262034E+02 -0.43104830482E+02  0.62297846170E+02  0.11456537704E+03  0.47000000000E+01 0.  1.
         11    1    6    6    0    0 -0.36297492279E+02  0.79029887608E+01  0.17822170943E+03  0.18205203347E+03  0.00000000000E+00 0. -1.
        -12    1    6    6    0    0  0.16882463491E+02  0.20152618498E+02  0.15486737622E+02  0.30512041034E+02  0.00000000000E+00 0.  1.
</event>
<event>
12    1  0.8453150E-002  0.2125427E+03  0.7818608E-02  0.1140598E+00
         21   -1    0    0  503  502  0.00000000000E+00  0.00000000000E+00  0.82902200083E+03  0.82902200083E+03  0.00000000000E+00 0.  1.
         21   -1    0    0  501  503 -0.00000000000E+00 -0.00000000000E+00 -0.57058932082E+02  0.57058932082E+02  0.00000000000E+00 0.  1.
          6    2    1    2  501    0 -0.12129982674E+03  0.38362203040E+02  0.27467757582E+03  0.34730700700E+03  0.17026179800E+03 0.  0.
         24    2    3    3    0    0 -0.11306165530E+03 -0.22090581452E+02  0.13294560676E+03  0.19292939309E+03  0.79223005958E+02 0.  0.
         -6    2    1    2    0  502  0.12129982674E+03 -0.38362203040E+02  0.49728549293E+03  0.53877392592E+03  0.16370453623E+03 0.  0.
        -24    2    5    5    0    0  0.10837414794E+03 -0.81882399456E+02  0.34191703731E+03  0.37684021210E+03  0.81557352652E+02 0.  0.
          5    1    3    3  501    0 -0.82381714418E+01  0.60452784492E+02  0.14173196906E+03  0.15437761390E+03  0.47000000000E+01 0. -1.
        -11    1    4    4    0    0 -0.40110476432E+01  0.95258997291E+01  0.53167236327E+02  0.54162591218E+02  0.00000000000E+00 0.  1.
         12    1    4    4    0    0 -0.10905060766E+03 -0.31616481181E+02  0.79778370438E+02  0.13876680188E+03  0.00000000000E+00 0. -1.
         -5    1    5    5    0  502  0.12925678801E+02  0.43520196416E+02  0.15536845562E+03  0.16193371382E+03  0.47000000000E+01 0.  1.
         11    1    6    6    0    0  0.26818105386E+02  0.82878013662E+01  0.12558613424E+03  0.12868479142E+03  0.00000000000E+00 0. -1.
        -12    1    6    6    0    0  0.81556042557E+02 -0.90170200822E+02  0.21633090307E+03  0.24815542069E+03  0.00000000000E+00 0.  1.
</event>
<event>
12    1  0.8453150E-002  0.2013289E+03  0.7818608E-02  0.1148783E+00
         21   -1    0    0  501  502  0.00000000000E+00  0.00000000000E+00  0.12749792600E+04  0.12749792600E+04  0.00000000000E+00 0. -1.
         21   -1    0    0  502  503 -0.00000000000E+00 -0.00000000000E+00 -0.65666584765E+02  0.65666584765E+02  0.00000000000E+00 0. -1.
         -6    2    1    2    0  503  0.81208687655E+02  0.58708102868E+02  0.12290374593E+03  0.23587845347E+03  0.17461907616E+03 0.  0.
        -24    2    3    3    0    0 -0.19795946779E+02 -0.10188756901E+02  0.58662179146E+01  0.66560449629E+02  0.62451506516E+02 0.  0.
          6    2    1    2  501    0 -0.81208687655E+02 -0.58708102868E+02  0.10864089293E+04  0.11047673913E+04  0.17373869714E+03 0.  0.
         24    2    5    5    0    0 -0.11503967864E+03 -0.66047494823E+02  0.72884062506E+03  0.74549648399E+03  0.83426324841E+02 0.  0.
          5    1    5    5  501    0  0.33830990987E+02  0.73393919552E+01  0.35756830426E+03  0.35927090731E+03  0.47000000000E+01 0. -1.
        -11    1    6    6    0    0  0.10609818202E+02  0.48391494478E+01  0.77332105521E+02  0.78206394584E+02  0.00000000000E+00 0.  1.
         12    1    6    6    0    0 -0.12564949684E+03 -0.70886644271E+02  0.65150851954E+03  0.66729008941E+03  0.00000000000E+00 0. -1.
         -5    1    3    3    0  503  0.10100463443E+03  0.68896859769E+02  0.11703752801E+03  0.16931800385E+03  0.47000000000E+01 0.  1.
         11    1    4    4    0    0  0.10544201415E+02  0.10041730827E+02 -0.17868762764E+02  0.23050145861E+02  0.00000000000E+00 0. -1.
        -12    1    4    4    0    0 -0.30340148194E+02 -0.20230487728E+02  0.23734980679E+02  0.43510303768E+02  0.00000000000E+00 0.  1.
</event>
<event>
12    1  0.8453150E-002  0.2540174E+03  0.7818608E-02  0.1111677E+00
         21   -1    0    0  501  502  0.00000000000E+00  0.00000000000E+00  0.39518030308E+03  0.39518030308E+03  0.00000000000E+00 0.  1.
         21   -1    0    0  502  503 -0.00000000000E+00 -0.00000000000E+00 -0.50601514134E+03  0.50601514134E+03  0.00000000000E+00 0.  1.
         -6    2    1    2    0  503  0.81483918041E+02  0.16744510364E+03 -0.42800261389E+03  0.49484557615E+03  0.16434237162E+03 0.  0.
        -24    2    3    3    0    0  0.75911016115E+01  0.98216892865E+02 -0.33095737037E+03  0.35451538419E+03  0.80275735789E+02 0.  0.
          6    2    1    2  501    0 -0.81483918041E+02 -0.16744510364E+03  0.31716777562E+03  0.40634986827E+03  0.17276378647E+03 0.  0.
         24    2    5    5    0    0  0.11894355570E+02 -0.27523476676E+02  0.12161073322E+03  0.14835333630E+03  0.79501726356E+02 0.  0.
          5    1    5    5  501    0 -0.93378273611E+02 -0.13992162696E+03  0.19555704240E+03  0.25799653197E+03  0.47000000000E+01 0. -1.
        -11    1    6    6    0    0 -0.23035973874E+02 -0.28587917481E+02  0.10171939207E+03  0.10814231291E+03  0.00000000000E+00 0.  1.
         12    1    6    6    0    0  0.34930329444E+02  0.10644408045E+01  0.19891341152E+02  0.40211023391E+02  0.00000000000E+00 0. -1.
         -5    1    3    3    0  503  0.73892816429E+02  0.69228210774E+02 -0.97045243519E+02  0.14033019196E+03  0.47000000000E+01 0.  1.
         13    1    4    4    0    0 -0.49316904683E+01  0.15021088823E+02 -0.31980063828E+01  0.16130155768E+02  0.00000000000E+00 0. -1.
        -14    1    4    4    0    0  0.12522792080E+02  0.83195804042E+02 -0.32775936399E+03  0.33838522842E+03  0.00000000000E+00 0.  1.
</event>
<event>
12    1  0.8453150E-002  0.2318076E+03  0.7818608E-02  0.1125957E+00
         21   -1    0    0  501  502  0.00000000000E+00  0.00000000000E+00  0.19190102735E+03  0.19190102735E+03  0.00000000000E+00 0.  1.
         21   -1    0    0  502  503 -0.00000000000E+00 -0.00000000000E+00 -0.27942191144E+03  0.27942191144E+03  0.00000000000E+00 0. -1.
         -6    2    1    2    0  503 -0.81394301467E+02  0.12744430139E+03 -0.70084237344E+02  0.24217049155E+03  0.17569195880E+03 0.  0.
        -24    2    3    3    0    0 -0.65674905932E+02  0.15035735386E+03 -0.94282675631E+02  0.20502534671E+03  0.78902742276E+02 0.  0.
          6    2    1    2  501    0  0.81394301467E+02 -0.12744430139E+03 -0.17436646741E+02  0.22915244724E+03  0.17128842680E+03 0.  0.
         24    2    5    5    0    0  0.88744437710E+02 -0.14733811233E+03 -0.44390885370E+02  0.19453439997E+03  0.79303136731E+02 0.  0.
          5    1    5    5  501    0 -0.73501362430E+01  0.19893810946E+02  0.26954238628E+02  0.34618047270E+02  0.47000000000E+01 0. -1.
        -11    1    6    6    0    0  0.22044183631E+02 -0.96831198601E+02  0.10728292594E+01  0.99314540814E+02  0.00000000000E+00 0.  1.
         12    1    6    6    0    0  0.66700254078E+02 -0.50506913734E+02 -0.45463714629E+02  0.95219859152E+02  0.00000000000E+00 0. -1.
         -5    1    3    3    0  503 -0.15719395534E+02 -0.22913052476E+02  0.24198438287E+02  0.37145144841E+02  0.47000000000E+01 0.  1.
         13    1    4    4    0    0 -0.60122574027E+02  0.13213759971E+03 -0.44681881780E+02  0.15189318525E+03  0.00000000000E+00 0. -1.
        -14    1    4    4    0    0 -0.55523319056E+01  0.18219754154E+02 -0.49600793852E+02  0.53132161463E+02  0.00000000000E+00 0.  1.
</event>
<event>
12    1  0.8453150E-002  0.1906223E+03  0.7818608E-02  0.1158242E+00
         21   -1    0    0  501  502  0.00000000000E+00  0.00000000000E+00  0.14242107855E+02  0.14242107855E+02  0.00000000000E+00 0. -1.
         21   -1    0    0  502  503 -0.00000000000E+00 -0.00000000000E+00 -0.28118199629E+04  0.28118199629E+04  0.00000000000E+00 0. -1.
         -6    2    1    2    0  503 -0.57071826718E+02  0.55324243327E+02 -0.18401906708E+04  0.18498822224E+04  0.17159419157E+03 0.  0.
        -24    2    3    3    0    0 -0.36856646012E+02 -0.33628617936E+02 -0.10993048939E+04  0.11033870185E+04  0.80637252708E+02 0.  0.
          6    2    1    2  501    0  0.57071826718E+02 -0.55324243327E+02 -0.95738718422E+03  0.97617984832E+03  0.17325966194E+03 0.  0.
         24    2    5    5    0    0 -0.12523261726E+00 -0.51950304073E+02 -0.83686216820E+03  0.84264612019E+03  0.83757659514E+02 0.  0.
          5    1    5    5  501    0  0.57197059336E+02 -0.33739392544E+01 -0.12052501602E+03  0.13353372813E+03  0.47000000000E+01 0. -1.
        -13    1    6    6    0    0  0.92837219808E+01  0.58769939909E+01 -0.53709019116E+03  0.53720256886E+03  0.00000000000E+00 0.  1.
         14    1    6    6    0    0 -0.94089545981E+01 -0.57827298063E+02 -0.29977197704E+03  0.30544355133E+03  0.00000000000E+00 0. -1.
         -5    1    3    3    0  503 -0.20215180707E+02  0.88952861263E+02 -0.74088577688E+03  0.74649520389E+03  0.47000000000E+01 0.  1.
         13    1    4    4    0    0  0.88981106852E+01  0.17051140014E+02 -0.10546016972E+03  0.10719965087E+03  0.00000000000E+00 0. -1.
        -14    1    4    4    0    0 -0.45754756697E+02 -0.50679757950E+02 -0.99384472419E+03  0.99618736763E+03  0.00000000000E+00 0.  1.
</event>
<event>
12    1  0.8453150E-002  0.2043010E+03  0.7818608E-02  0.1146203E+00
         21   -1    0    0  503  502  0.00000000000E+00  0.00000000000E+00  0.10284209609E+04  0.10284209609E+04  0.00000000000E+00 0.  1.
         21   -1    0    0  501  503 -0.00000000000E+00 -0.00000000000E+00 -0.40602677490E+02  0.40602677490E+02  0.00000000000E+00 0. -1.
          6    2    1    2  501    0  0.49969529713E+02 -0.97705732896E+02  0.51399091071E+03  0.55302820869E+03  0.17207608543E+03 0.  0.
         24    2    3    3    0    0  0.95097861226E+02 -0.88904137633E+02  0.43942492508E+03  0.46530015960E+03  0.80389208517E+02 0.  0.
         -6    2    1    2    0  502 -0.49969529713E+02  0.97705732896E+02  0.47382737274E+03  0.51599542973E+03  0.17232393975E+03 0.  0.
        -24    2    5    5    0    0  0.14119856615E+02  0.28718640777E+02  0.35014864315E+03  0.36047955765E+03  0.79481497853E+02 0.  0.
          5    1    3    3  501    0 -0.45128331513E+02 -0.88015952629E+01  0.74565985623E+02  0.87728049085E+02  0.47000000000E+01 0. -1.
        -11    1    4    4    0    0 -0.43732036755E+01  0.65627249198E+01  0.45751390229E+01  0.91173551998E+01  0.00000000000E+00 0.  1.
         12    1    4    4    0    0  0.99471064902E+02 -0.95466862553E+02  0.43484978606E+03  0.45618280440E+03  0.00000000000E+00 0. -1.
         -5    1    5    5    0  502 -0.64089386329E+02  0.68987092119E+02  0.12367872959E+03  0.15551587209E+03  0.47000000000E+01 0.  1.
         13    1    6    6    0    0  0.26139479802E+02  0.52711519407E+02  0.24302310044E+03  0.25004400419E+03  0.00000000000E+00 0. -1.
        -14    1    6    6    0    0 -0.12019623187E+02 -0.23992878630E+02  0.10712554271E+03  0.11043555346E+03  0.00000000000E+00 0.  1.
</event>
<event>
12    1  0.8453150E-002  0.2288024E+03  0.7818608E-02  0.1127592E+00
         21   -1    0    0  503  502  0.00000000000E+00  0.00000000000E+00  0.65494835855E+03  0.65494835855E+03  0.00000000000E+00 0.  1.
         21   -1    0    0  501  503 -0.00000000000E+00 -0.00000000000E+00 -0.11961959366E+03  0.11961959366E+03  0.00000000000E+00 0. -1.
          6    2    1    2  501    0 -0.12847966598E+03  0.78020428270E+02  0.43757743047E+02  0.23235708258E+03  0.17169991832E+03 0.  0.
         24    2    3    3    0    0 -0.61236695179E+02 -0.23790401838E+02  0.26863729579E+02  0.10909086685E+03  0.82844681220E+02 0.  0.
         -6    2    1    2    0  502  0.12847966598E+03 -0.78020428270E+02  0.49157102185E+03  0.54221086963E+03  0.17250027777E+03 0.  0.
        -24    2    5    5    0    0  0.30284061350E+02 -0.72447768801E+02  0.16382567521E+03  0.19999378422E+03  0.83623311908E+02 0.  0.
          5    1    3    3  501    0 -0.67242970798E+02  0.10181083011E+03  0.16894013467E+02  0.12326621573E+03  0.47000000000E+01 0. -1.
        -11    1    4    4    0    0  0.14739558528E+02 -0.24598694074E+02  0.54715340375E+00  0.28681870800E+02  0.00000000000E+00 0.  1.
         12    1    4    4    0    0 -0.75976253707E+02  0.80829223530E+00  0.26316576175E+02  0.80408996047E+02  0.00000000000E+00 0. -1.
         -5    1    5    5    0  502  0.98195604627E+02 -0.55726594684E+01  0.32774534664E+03  0.34221708541E+03  0.47000000000E+01 0.  1.
         11    1    6    6    0    0  0.16659480328E+02 -0.70701063641E+02  0.17004945233E+03  0.18491347956E+03  0.00000000000E+00 0. -1.
        -12    1    6    6    0    0  0.13624581022E+02 -0.17467051609E+01 -0.62237771266E+01  0.15080304661E+02  0.00000000000E+00 0.  1.
</event>
<event>
12    1  0.8453150E-002  0.2143054E+03  0.7818608E-02  0.1138259E+00
         21   -1    0    0  501  502  0.00000000000E+00  0.00000000000E+00  0.36950377247E+02  0.36950377247E+02  0.00000000000E+00 0. -1.
         21   -1    0    0  502  503 -0.00000000000E+00 -0.00000000000E+00 -0.12416582820E+04  0.12416582820E+04  0.00000000000E+00 0. -1.
         -6    2    1    2    0  503  0.11001218248E+03 -0.63727607301E+02 -0.58980442004E+03  0.62743041944E+03  0.17215048390E+03 0.  0.
        -24    2    3    3    0    0  0.11706797912E+03  0.24263425974E+01 -0.45962011826E+03  0.48115611621E+03  0.80930563991E+02 0.  0.
          6    2    1    2  501    0 -0.11001218248E+03  0.63727607301E+02 -0.61490348473E+03  0.65117823982E+03  0.17251932142E+03 0.  0.
         24    2    5    5    0    0 -0.72008453139E+02  0.10257717172E+03 -0.34390878351E+03  0.37474779615E+03  0.80345291494E+02 0.  0.
          5    1    5    5  501    0 -0.38003729345E+02 -0.38849564420E+02 -0.27099470122E+03  0.27643044367E+03  0.47000000000E+01 0. -1.
        -13    1    6    6    0    0  0.15981167470E+02  0.32705314040E+02 -0.90552197136E+02  0.97594752350E+02  0.00000000000E+00 0.  1.
         14    1    6    6    0    0 -0.87989620609E+02  0.69871857681E+02 -0.25335658637E+03  0.27715304380E+03  0.00000000000E+00 0. -1.
         -5    1    3    3    0  503 -0.70557966352E+01 -0.66153949898E+02 -0.13018430179E+03  0.14627430323E+03  0.47000000000E+01 0.  1.
         11    1    4    4    0    0  0.41141787726E+02 -0.18210927141E-01 -0.31614896836E+03  0.31881470673E+03  0.00000000000E+00 0. -1.
        -12    1    4    4    0    0  0.75926191393E+02  0.24445535246E+01 -0.14347114990E+03  0.16234140949E+03  0.00000000000E+00 0.  1.
</event>
<event>
12    1  0.8453150E-002  0.2454963E+03  0.7818608E-02  0.1116331E+00
         21   -1    0    0  503  502  0.00000000000E+00  0.00000000000E+00  0.60232216861E+03  0.60232216861E+03  0.00000000000E+00 0.  1.
         21   -1    0    0  501  503 -0.00000000000E+00 -0.00000000000E+00 -0.99693118121E+02  0.99693118121E+02  0.00000000000E+00 0. -1.
          6    2    1    2  501    0 -0.13127944454E+03  0.11414353494E+03  0.25142236283E+03  0.35077000941E+03  0.17193997745E+03 0.  0.
         24    2    3    3    0    0 -0.19523323099E+02  0.10184186246E+03  0.12063100574E+03  0.17823238768E+03  0.80386686563E+02 0.  0.
         -6    2    1    2    0  502  0.13127944454E+03 -0.11414353494E+03  0.25120668766E+03  0.35124527732E+03  0.17322068521E+03 0.  0.
        -24    2    5    5    0    0  0.73999540401E+01 -0.19545122259E+02  0.53943100577E+02  0.99789514533E+02  0.81310011603E+02 0.  0.
          5    1    3    3  501    0 -0.11175612144E+03  0.12301672478E+02  0.13079135709E+03  0.17253762174E+03  0.47000000000E+01 0. -1.
        -13    1    4    4    0    0  0.12705815232E+02 -0.73543671830E+01  0.39390041060E+01  0.15200006931E+02  0.00000000000E+00 0.  1.
         14    1    4    4    0    0 -0.32229138330E+02  0.10919622965E+03  0.11669200163E+03  0.16303238075E+03  0.00000000000E+00 0. -1.
         -5    1    5    5    0  502  0.12387949050E+03 -0.94598412682E+02  0.19726358709E+03  0.25145576279E+03  0.47000000000E+01 0.  1.
         13    1    6    6    0    0  0.53906367405E+01  0.31953727573E+02  0.20089897687E+02  0.38127465945E+02  0.00000000000E+00 0. -1.
        -14    1    6    6    0    0  0.20093172996E+01 -0.51498849833E+02  0.33853202890E+02  0.61662048588E+02  0.00000000000E+00 0.  1.
</event>
<event>
12    1  0.8453150E-002  0.1933312E+03  0.7818608E-02  0.1155570E+00
         21   -1    0    0  503  502  0.00000000000E+00  0.00000000000E+00  0.10403657211E+04  0.10403657211E+04  0.00000000000E+00 0.  1.
         21   -1    0    0  501  503 -0.00000000000E+00 -0.00000000000E+00 -0.52146217641E+02  0.52146217641E+02  0.00000000000E+00 0. -1.
          6    2    1    2  501    0 -0.63931354142E+02  0.61132234358E+02  0.18851411066E+03  0.26976915834E+03  0.17150352986E+03 0.  0.
         24    2    3    3    0    0 -0.69856174266E+02  0.10114796782E+03  0.11985336378E+03  0.18993964889E+03  0.81249276521E+02 0.  0.
         -6    2    1    2    0  502  0.63931354142E+02 -0.61132234358E+02  0.79970539284E+03  0.82274278044E+03  0.17190869466E+03 0.  0.
        -24    2    5    5    0    0  0.40538115174E+02 -0.73225800944E+02  0.28387310498E+03  0.30621733364E+03  0.78611443112E+02 0.  0.
          5    1    3    3  501    0  0.59248201245E+01 -0.40015733457E+02  0.68660746875E+02  0.79829509450E+02  0.47000000000E+01 0. -1.
        -11    1    4    4    0    0 -0.34155525980E+02  0.59335671081E+02  0.11616092458E+03  0.13483576016E+03  0.00000000000E+00 0.  1.
         12    1    4    4    0    0 -0.35700648286E+02  0.41812296734E+02  0.36924391976E+01  0.55103888733E+02  0.00000000000E+00 0. -1.
         -5    1    5    5    0  502  0.23393238968E+02  0.12093566585E+02  0.51583228786E+03  0.51652544679E+03  0.47000000000E+01 0.  1.
         11    1    6    6    0    0  0.10659954312E+02 -0.75177532929E+02  0.24866458194E+03  0.25999878922E+03  0.00000000000E+00 0. -1.
        -12    1    6    6    0    0  0.29878160862E+02  0.19517319846E+01  0.35208523032E+02  0.46218544420E+02  0.00000000000E+00 0.  1.
</event>
<event>
12    1  0.8453150E-002  0.2129384E+03  0.7818608E-02  0.1140104E+00
         21   -1    0    0  501  502  0.00000000000E+00  0.00000000000E+00  0.62789073233E+03  0.62789073233E+03  0.00000000000E+00 0. -1.
         21   -1    0    0  502  503 -0.00000000000E+00 -0.00000000000E+00 -0.24406139996E+03  0.24406139996E+03  0.00000000000E+00 0. -1.
         -6    2    1    2    0  503  0.11539803486E+03 -0.14373520328E+02 -0.17488641053E+03  0.27555039237E+03  0.17838009308E+03 0.  0.
        -24    2    3    3    0    0 -0.37812783441E+01  0.29467583546E+02 -0.95316687933E+02  0.12561980229E+03  0.76239275858E+02 0.  0.
          6    2    1    2  501    0 -0.11539803486E+03  0.14373520328E+02  0.55871574290E+03  0.59640173993E+03  0.17322947062E+03 0.  0.
         24    2    5    5    0    0 -0.93009799929E+02 -0.43128257921E+02  0.24706895861E+03  0.27866994152E+03  0.78121677420E+02 0.  0.
          5    1    5    5  501    0 -0.22388234934E+02  0.57501778249E+02  0.31164678428E+03  0.31773179841E+03  0.47000000000E+01 0. -1.
        -13    1    6    6    0    0  0.12897064524E+02 -0.74586749518E+01  0.15244280551E+02  0.21315585727E+02  0.00000000000E+00 0.  1.
         14    1    6    6    0    0 -0.10590686445E+03 -0.35669582969E+02  0.23182467806E+03  0.25735435579E+03  0.00000000000E+00 0. -1.
         -5    1    3    3    0  503  0.11917931321E+03 -0.43841103874E+02 -0.79569722599E+02  0.14993059007E+03  0.47000000000E+01 0.  1.
         11    1    4    4    0    0  0.23522295665E+02  0.42320611065E+02 -0.40836474751E+02  0.63339957250E+02  0.00000000000E+00 0. -1.
        -12    1    4    4    0    0 -0.27303574009E+02 -0.12853027519E+02 -0.54480213182E+02  0.62279845042E+02  0.00000000000E+00 0.  1.
</event>
<event>
12    1  0.8453150E-002  0.1752884E+03  0.7818608E-02  0.1172732E+00
         21   -1    0    0  501  502  0.00000000000E+00  0.00000000000E+00  0.47192871494E+03  0.47192871494E+03  0.00000000000E+00 0. -1.
         21   -1    0    0  502  503 -0.00000000000E+00 -0.00000000000E+00 -0.65014970345E+02  0.65014970345E+02  0.00000000000E+00 0. -1.
         -6    2    1    2    0  503  0.19526482015E+02  0.22250936934E+02  0.18486694988E+03  0.25475834315E+03  0.17277047361E+03 0.  0.
        -24    2    3    3    0    0 -0.32100371376E+02 -0.15219800809E+02  0.44760571414E+02  0.10074121597E+03  0.82965099061E+02 0.  0.
          6    2    1    2  501    0 -0.19526482015E+02 -0.22250936934E+02  0.22204679471E+03  0.28218534213E+03  0.17160244922E+03 0.  0.
         24    2    5    5    0    0  0.43857922804E+02 -0.40838066827E+02  0.13323474782E+03  0.17140297059E+03  0.89644939652E+02 0.  0.
          5    1    5    5  501    0 -0.63384404819E+02  0.18587129893E+02  0.88812046886E+02  0.11078237154E+03  0.47000000000E+01 0. -1.
        -11    1    6    6    0    0  0.62411359612E+01 -0.24725459161E+02 -0.60686846007E+01  0.26213146350E+02  0.00000000000E+00 0.  1.
         12    1    6    6    0    0  0.37616786843E+02 -0.16112607666E+02  0.13930343242E+03  0.14518982424E+03  0.00000000000E+00 0. -1.
         -5    1    3    3    0  503  0.51626853391E+02  0.37470737743E+02  0.14010637847E+03  0.15401712718E+03  0.47000000000E+01 0.  1.
         13    1    4    4    0    0  0.12682495157E+02 -0.37647769751E+02  0.24756485013E+02  0.46809014098E+02  0.00000000000E+00 0. -1.
        -14    1    4    4    0    0 -0.44782866533E+02  0.22427968943E+02  0.20004086401E+02  0.53932201870E+02  0.00000000000E+00 0.  1.
</event>
<event>
12    1  0.8453150E-002  0.1883791E+03  0.7818608E-02  0.1160137E+00
         21   -1    0    0  501  502  0.00000000000E+00  0.00000000000E+00  0.38749241909E+03  0.38749241909E+03  0.00000000000E+00 0.  1.
         21   -1    0    0  502  503 -0.00000000000E+00 -0.00000000000E+00 -0.92482316847E+02  0.92482316847E+02  0.00000000000E+00 0. -1.
         -6    2    1    2    0  503 -0.38822889155E+02 -0.64601402794E+02  0.17602156296E+03  0.25716323311E+03  0.17166473100E+03 0.  0.
        -24    2    3    3    0    0  0.18767183834E+02 -0.84154035167E+02  0.73780949902E+02  0.13810797326E+03  0.78715150286E+02 0.  0.
          6    2    1    2  501    0  0.38822889155E+02  0.64601402794E+02  0.11898853928E+03  0.22281150283E+03  0.17264453466E+03 0.  0.
         24    2    5    5    0    0  0.36173606027E+02 -0.17701049581E+02  0.97479291497E+02  0.13757389312E+03  0.88331799870E+02 0.  0.
          5    1    5    5  501    0  0.26492831275E+01  0.82302452376E+02  0.21509247782E+02  0.85237609705E+02  0.47000000000E+01 0. -1.
        -11    1    6    6    0    0  0.34924689209E+01 -0.35345384786E+02  0.25163393554E+01  0.35606537723E+02  0.00000000000E+00 0.  1.
         12    1    6    6    0    0  0.32681137106E+02  0.17644335205E+02  0.94962952141E+02  0.10196735540E+03  0.00000000000E+00 0. -1.
         -5    1    3    3    0  503 -0.57590072988E+02  0.19552632373E+02  0.10224061306E+03  0.11905525985E+03  0.47000000000E+01 0.  1.
         11    1    4    4    0    0 -0.21767179378E+02 -0.60940912587E+02  0.21946479585E+02  0.68331931710E+02  0.00000000000E+00 0. -1.
        -12    1    4    4    0    0  0.40534363211E+02 -0.23213122580E+02  0.51834470317E+02  0.69776041547E+02  0.00000000000E+00 0.  1.
</event>
<event>
12    1  0.8453150E-002  0.1901874E+03  0.7818608E-02  0.1158582E+00
         21   -1    0    0  503  502  0.00000000000E+00  0.00000000000E+00  0.86442508352E+02  0.86442508352E+02  0.00000000000E+00 0.  1.
         21   -1    0    0  501  503 -0.00000000000E+00 -0.00000000000E+00 -0.46828672612E+03  0.46828672612E+03  0.00000000000E+00 0. -1.
          6    2    1    2  501    0  0.72214461233E+02  0.36047855590E+02 -0.28335936400E+03  0.34055520872E+03  0.17079503716E+03 0.  0.
         24    2    3    3    0    0  0.99770493152E+02  0.68452842337E+02 -0.22785986467E+03  0.27047166938E+03  0.81208762335E+02 0.  0.
         -6    2    1    2    0  502 -0.72214461233E+02 -0.36047855590E+02 -0.98484853765E+02  0.21417402575E+03  0.17221170280E+03 0.  0.
        -24    2    5    5    0    0 -0.35599385532E+02 -0.79651137171E+02 -0.10318184210E+03  0.15684984557E+03  0.79647734513E+02 0.  0.
          5    1    3    3  501    0 -0.27556031919E+02 -0.32404986747E+02 -0.55499499326E+02  0.70083539342E+02  0.47000000000E+01 0. -1.
        -11    1    4    4    0    0  0.41093180198E+01  0.42584206927E+02 -0.42607798823E+02  0.60379845103E+02  0.00000000000E+00 0.  1.
         12    1    4    4    0    0  0.95661175133E+02  0.25868635410E+02 -0.18525206585E+03  0.21009182428E+03  0.00000000000E+00 0. -1.
         -5    1    5    5    0  502 -0.36615075701E+02  0.43603281581E+02  0.46969883394E+01  0.57324180175E+02  0.47000000000E+01 0.  1.
         13    1    6    6    0    0  0.55768787499E+01  0.14353800380E+02 -0.11288524896E+02  0.19093557978E+02  0.00000000000E+00 0. -1.
        -14    1    6    6    0    0 -0.41176264282E+02 -0.94004937551E+02 -0.91893317208E+02  0.13775628759E+03  0.00000000000E+00 0.  1.
</event>
<event>
12    1  0.8453150E-002  0.1748723E+03  0.7818608E-02  0.1173177E+00
         21   -1    0    0  501  502  0.00000000000E+00  0.00000000000E+00  0.25707354347E+02  0.25707354347E+02  0.00000000000E+00 0. -1.
         21   -1    0    0  502  503 -0.00000000000E+00 -0.00000000000E+00 -0.14200175784E+04  0.14200175784E+04  0.00000000000E+00 0. -1.
         -6    2    1    2    0  503  0.20817151538E+02  0.11581821423E+02 -0.99579689844E+03  0.10110350075E+04  0.17324211678E+03 0.  0.
        -24    2    3    3    0    0 -0.65110664136E+01  0.11818897708E+02 -0.96901949697E+03  0.97248624705E+03  0.80923635985E+02 0.  0.
          6    2    1    2  501    0 -0.20817151538E+02 -0.11581821423E+02 -0.39851332559E+03  0.43468992524E+03  0.17197374232E+03 0.  0.
         24    2    5    5    0    0  0.68038970837E+01 -0.30988946635E+02 -0.93240855617E+02  0.12752070517E+03  0.81000402849E+02 0.  0.
          5    1    5    5  501    0 -0.27621048622E+02  0.19407125212E+02 -0.30527246997E+03  0.30716922007E+03  0.47000000000E+01 0. -1.
        -11    1    6    6    0    0  0.16479628291E+01 -0.49596452885E+02 -0.95950142232E+02  0.10802293143E+03  0.00000000000E+00 0.  1.
         12    1    6    6    0    0  0.51559342546E+01  0.18607506249E+02  0.27092866151E+01  0.19497773740E+02  0.00000000000E+00 0. -1.
         -5    1    3    3    0  503  0.27328217952E+02 -0.23707628504E+00 -0.26777401471E+02  0.38548760435E+02  0.47000000000E+01 0.  1.
         11    1    4    4    0    0  0.27537137369E+02 -0.20040965889E+02 -0.32457072974E+03  0.32635271234E+03  0.00000000000E+00 0. -1.
        -12    1    4    4    0    0 -0.34048203782E+02  0.31859863598E+02 -0.64444876723E+03  0.64613353471E+03  0.00000000000E+00 0.  1.
</event>
<event>
12    1  0.8453150E-002  0.2175710E+03  0.7818608E-02  0.1136189E+00
         21   -1    0    0  503  502  0.00000000000E+00  0.00000000000E+00  0.10162687578E+04  0.10162687578E+04  0.00000000000E+00 0. -1.
         21   -1    0    0  501  503 -0.00000000000E+00 -0.00000000000E+00 -0.49203642783E+02  0.49203642783E+02  0.00000000000E+00 0.  1.
          6    2    1    2  501    0  0.10185273175E+03  0.83308820805E+02  0.35107662292E+03  0.41302774122E+03  0.17327083212E+03 0.  0.
         24    2    3    3    0    0  0.99694714875E+01  0.38351085365E+02  0.69548484054E+02  0.11345485448E+03  0.80404081121E+02 0.  0.
         -6    2    1    2    0  502 -0.10185273175E+03 -0.83308820805E+02  0.61598849206E+03  0.65244465933E+03  0.17008195833E+03 0.  0.
        -24    2    5    5    0    0 -0.48720005390E+02 -0.12616987463E+02  0.48239662027E+03  0.49216583939E+03  0.83593581822E+02 0.  0.
          5    1    3    3  501    0  0.91883260263E+02  0.44957735440E+02  0.28152813887E+03  0.29957288674E+03  0.47000000000E+01 0. -1.
        -11    1    4    4    0    0  0.33884648575E+02  0.27551070633E+01  0.27918222640E+01  0.34110911678E+02  0.00000000000E+00 0.  1.
         12    1    4    4    0    0 -0.23915177087E+02  0.35595978302E+02  0.66756661790E+02  0.79343942804E+02  0.00000000000E+00 0. -1.
         -5    1    5    5    0  502 -0.53132726361E+02 -0.70691833343E+02  0.13359187180E+03  0.16027881994E+03  0.47000000000E+01 0.  1.
         13    1    6    6    0    0 -0.17681512439E+00  0.25322224781E+02  0.57545871077E+02  0.62871087229E+02  0.00000000000E+00 0. -1.
        -14    1    6    6    0    0 -0.48543190266E+02 -0.37939212244E+02  0.42485074919E+03  0.42929475216E+03  0.00000000000E+00 0.  1.
</event>
<event>
12    1  0.8453150E-002  0.2425746E+03  0.7818608E-02  0.1118538E+00
         21   -1    0    0  501  502  0.00000000000E+00  0.00000000000E+00  0.30393582759E+03  0.30393582759E+03  0.00000000000E+00 0. -1.
         21   -1    0    0  502  503 -0.00000000000E+00 -0.00000000000E+00 -0.25931786883E+03  0.25931786883E+03  0.00000000000E+00 0. -1.
         -6    2    1    2    0  503  0.13467745866E+03  0.10043748757E+03 -0.12186615079E+03  0.26904394123E+03  0.17119455838E+03 0.  0.
        -24    2    3    3    0    0  0.21236141398E+02 -0.78528623965E+01 -0.32231678993E+02  0.88344851871E+02  0.79077750171E+02 0.  0.
          6    2    1    2  501    0 -0.13467745866E+03 -0.10043748757E+03  0.16648410956E+03  0.29420975519E+03  0.17497632564E+03 0.  0.
         24    2    5    5    0    0 -0.39347897008E+02 -0.14834133128E+02  0.78965727082E+01  0.90278991301E+02  0.79496112516E+02 0.  0.
          5    1    5    5  501    0 -0.95329561654E+02 -0.85603354444E+02  0.15858753685E+03  0.20393076389E+03  0.47000000000E+01 0. -1.
        -11    1    6    6    0    0  0.20233867027E+01 -0.34960795759E+02  0.22952511336E+02  0.41870862309E+02  0.00000000000E+00 0.  1.
         12    1    6    6    0    0 -0.41371283711E+02  0.20126662631E+02 -0.15055938628E+02  0.48408128992E+02  0.00000000000E+00 0. -1.
         -5    1    3    3    0  503  0.11344131726E+03  0.10829034997E+03 -0.89634471801E+02  0.18069908936E+03  0.47000000000E+01 0.  1.
         11    1    4    4    0    0  0.43755479391E+02 -0.27977378010E+02 -0.22655937334E+02  0.56661866838E+02  0.00000000000E+00 0. -1.
        -12    1    4    4    0    0 -0.22519337993E+02  0.20124515613E+02 -0.95757416594E+01  0.31682985034E+02  0.00000000000E+00 0.  1.
</event>
<event>
12    1  0.8453150E-002  0.1971268E+03  0.7818608E-02  0.1152341E+00
         21   -1    0    0  501  502  0.00000000000E+00  0.00000000000E+00  0.63790190356E+03  0.63790190356E+03  0.00000000000E+00 0. -1.
         21   -1    0    0  502  503 -0.00000000000E+00 -0.00000000000E+00 -0.72441331801E+02  0.72441331801E+02  0.00000000000E+00 0. -1.
         -6    2    1    2    0  503 -0.96495088929E+02  0.13081708240E+01  0.13927142156E+03  0.24077305248E+03  0.17106174453E+03 0.  0.
        -24    2    3    3    0    0 -0.96997198158E+02 -0.26308006409E+02  0.37705439924E+02  0.13541345879E+03  0.82550208775E+02 0.  0.
          6    2    1    2  501    0  0.96495088929E+02 -0.13081708240E+01  0.42618915021E+03  0.46957018288E+03  0.17188935802E+03 0.  0.
         24    2    5    5    0    0  0.54319992604E+02 -0.36541351744E+02  0.11977516364E+03  0.15823156185E+03  0.80032526856E+02 0.  0.
          5    1    5    5  501    0  0.42175096325E+02  0.35233180920E+02  0.30641398656E+03  0.31133862104E+03  0.47000000000E+01 0. -1.
        -13    1    6    6    0    0 -0.20108469397E+02 -0.29391202639E+01  0.35341336248E+02  0.40767622168E+02  0.00000000000E+00 0.  1.
         14    1    6    6    0    0  0.74428462001E+02 -0.33602231480E+02  0.84433827396E+02  0.11746393968E+03  0.00000000000E+00 0. -1.
         -5    1    3    3    0  503  0.50210922953E+00  0.27616177233E+02  0.10156598163E+03  0.10535959369E+03  0.47000000000E+01 0.  1.
         13    1    4    4    0    0 -0.44396275983E+01  0.24150314863E+02  0.90571011159E+01  0.26172105032E+02  0.00000000000E+00 0. -1.
        -14    1    4    4    0    0 -0.92557570560E+02 -0.50458321272E+02  0.28648338808E+02  0.10924135375E+03  0.00000000000E+00 0.  1.
</event>
<event>
12    1  0.8453150E-002  0.1971726E+03  0.7818608E-02  0.1152817E+00
         21   -1    0    0  501  502  0.00000000000E+00  0.00000000000E+00  0.22100721294E+04  0.22100721294E+04  0.00000000000E+00 0. -1.
         21   -1    0    0  502  503 -0.00000000000E+00 -0.00000000000E+00 -0.17589976333E+02  0.17589976333E+02  0.00000000000E+00 0. -1.
         -6    2    1    2    0  503 -0.52525774640E+02 -0.75892591863E+02  0.12266935457E+04  0.12419518657E+04  0.17073001827E+03 0.  0.
        -24    2    3    3    0    0 -0.33851676559E+02 -0.11874005707E+03  0.95110182677E+03  0.96238521397E+03  0.79658508788E+02 0.  0.
          6    2    1    2  501    0  0.52525774640E+02  0.75892591863E+02  0.96578860736E+03  0.98571024003E+03  0.17423662272E+03 0.  0.
         24    2    5    5    0    0 -0.32840682922E+02  0.42479343417E+02  0.63943266666E+03  0.64669081982E+03  0.80323571755E+02 0.  0.
          5    1    5    5  501    0  0.85366457562E+02  0.33413248446E+02  0.32635594070E+03  0.33901942021E+03  0.47000000000E+01 0. -1.
        -13    1    6    6    0    0 -0.85359307892E+01 -0.22689519249E+02  0.24266680204E+03  0.24387466701E+03  0.00000000000E+00 0.  1.
         14    1    6    6    0    0 -0.24304752133E+02  0.65168862665E+02  0.39676586462E+03  0.40281615281E+03  0.00000000000E+00 0. -1.
         -5    1    3    3    0  503 -0.18674098081E+02  0.42847465209E+02  0.27559171897E+03  0.27956665177E+03  0.47000000000E+01 0.  1.
         11    1    4    4    0    0  0.12217494004E+02 -0.69952923323E+01  0.27363406874E+02  0.30772671484E+02  0.00000000000E+00 0. -1.
        -12    1    4    4    0    0 -0.46069170563E+02 -0.11174476474E+03  0.92373841990E+03  0.93161254249E+03  0.00000000000E+00 0.  1.
</event>
<event>
12    1  0.8453150E-002  0.2686511E+03  0.7818608E-02  0.1102117E+00
         21   -1    0    0  503  502  0.00000000000E+00  0.00000000000E+00  0.33345999965E+03  0.33345999965E+03  0.00000000000E+00 0.  1.
         21   -1    0    0  501  503 -0.00000000000E+00 -0.00000000000E+00 -0.24926572038E+03  0.24926572038E+03  0.00000000000E+00 0.  1.
          6    2    1    2  501    0 -0.18569927667E+03 -0.90000070016E+02 -0.64235275522E+02  0.27579780693E+03  0.17133016584E+03 0.  0.
         24    2    3    3    0    0 -0.13150098054E+03 -0.22563497020E+02 -0.97879361542E+02  0.18285071873E+03  0.77797150607E+02 0.  0.
         -6    2    1    2    0  502  0.18569927667E+03  0.90000070016E+02  0.14842955480E+03  0.30692791310E+03  0.17201504917E+03 0.  0.
        -24    2    5    5    0    0  0.60224126282E+02  0.68124920669E+02  0.13133144787E+03  0.17833175925E+03  0.79286297388E+02 0.  0.
          5    1    3    3  501    0 -0.54198296132E+02 -0.67436572997E+02  0.33644086020E+02  0.92947088202E+02  0.47000000000E+01 0. -1.
        -13    1    4    4    0    0 -0.10880396023E+03  0.12508429323E+02 -0.53455619448E+02  0.12186987247E+03  0.00000000000E+00 0.  1.
         14    1    4    4    0    0 -0.22697020311E+02 -0.35071926343E+02 -0.44423742094E+02  0.60980846255E+02  0.00000000000E+00 0. -1.
         -5    1    5    5    0  502  0.12547515039E+03  0.21875149347E+02  0.17098106927E+02  0.12859615385E+03  0.47000000000E+01 0.  1.
         13    1    6    6    0    0 -0.13987840365E+02  0.34079241176E+02  0.26136174548E+02  0.45168063687E+02  0.00000000000E+00 0. -1.
        -14    1    6    6    0    0  0.74211966647E+02  0.34045679493E+02  0.10519527332E+03  0.13316369556E+03  0.00000000000E+00 0.  1.
</event>
<event>
12    1  0.8453150E-002  0.2038684E+03  0.7818608E-02  0.1148685E+00
         21   -1    0    0  503  502  0.00000000000E+00  0.00000000000E+00  0.37814080251E+02  0.37814080251E+02  0.00000000000E+00 0. -1.
         21   -1    0    0  501  503 -0.00000000000E+00 -0.00000000000E+00 -0.31684910460E+04  0.31684910460E+04  0.00000000000E+00 0. -1.
          6    2    1    2  501    0 -0.56494689900E+02  0.68176007814E+02 -0.28910866451E+04  0.28982657394E+04  0.18363738372E+03 0.  0.
         24    2    3    3    0    0 -0.31076017222E+02  0.10139883467E+03 -0.13262411949E+04  0.13328542158E+04  0.79606601936E+02 0.  0.
         -6    2    1    2    0  502  0.56494689900E+02 -0.68176007814E+02 -0.23959032069E+03  0.30803938689E+03  0.17217759459E+03 0.  0.
        -24    2    5    5    0    0  0.17689577520E+02 -0.10393398575E+03 -0.20820053546E+03  0.24646115737E+03  0.79249256042E+02 0.  0.
          5    1    3    3  501    0 -0.25418672678E+02 -0.33222826857E+02 -0.15648454502E+04  0.15654115236E+04  0.47000000000E+01 0. -1.
        -11    1    4    4    0    0 -0.26444790722E+02 -0.12129434125E+01 -0.16867667644E+03  0.17074138152E+03  0.00000000000E+00 0.  1.
         12    1    4    4    0    0 -0.46312264997E+01  0.10261177808E+03 -0.11575645184E+04  0.11621128343E+04  0.00000000000E+00 0. -1.
         -5    1    5    5    0  502  0.38805112380E+02  0.35757977937E+02 -0.31389785234E+02  0.61578229513E+02  0.47000000000E+01 0.  1.
         11    1    6    6    0    0  0.26276817092E+02 -0.68976956027E+02 -0.63555154730E+02  0.97404051620E+02  0.00000000000E+00 0. -1.
        -12    1    6    6    0    0 -0.85872395712E+01 -0.34957029725E+02 -0.14464538073E+03  0.14905710575E+03  0.00000000000E+00 0.  1.
</event>
<event>
12    1  0.8453150E-002  0.2142984E+03  0.7818608E-02  0.1138570E+00
         21   -1    0    0  501  502  0.00000000000E+00  0.00000000000E+00  0.16603880326E+03  0.16603880326E+03  0.00000000000E+00 0. -1.
         21   -1    0    0  502  503 -0.00000000000E+00 -0.00000000000E+00 -0.33939929276E+03  0.33939929276E+03  0.00000000000E+00 0.  1.
         -6    2    1    2    0  503  0.38571358970E+01 -0.12633953975E+03 -0.19778014676E+03  0.29161751921E+03  0.17305269213E+03 0.  0.
        -24    2    3    3    0    0  0.36907940423E+02 -0.14733656655E+03 -0.13149023146E+03  0.21448339133E+03  0.75121130691E+02 0.  0.
          6    2    1    2  501    0 -0.38571358970E+01  0.12633953975E+03  0.24419657264E+02  0.21382057682E+03  0.17072305822E+03 0.  0.
         24    2    5    5    0    0 -0.68279785531E+02  0.24456020293E+02 -0.97183236521E+01  0.88449044704E+02  0.49684621904E+02 0.  0.
          5    1    5    5  501    0  0.64422649634E+02  0.10188351946E+03  0.34137980916E+02  0.12537153211E+03  0.47000000000E+01 0. -1.
        -13    1    6    6    0    0 -0.45669678738E+02 -0.98926152454E+01 -0.68309940330E+01  0.47225479054E+02  0.00000000000E+00 0.  1.
         14    1    6    6    0    0 -0.22610106793E+02  0.34348635539E+02 -0.28873296191E+01  0.41223565650E+02  0.00000000000E+00 0. -1.
         -5    1    3    3    0  503 -0.33050804526E+02  0.20997026795E+02 -0.66289915300E+02  0.77134127884E+02  0.47000000000E+01 0.  1.
         13    1    4    4    0    0  0.60141943624E+02 -0.11090484536E+03 -0.10075644273E+03  0.16145835023E+03  0.00000000000E+00 0. -1.
        -14    1    4    4    0    0 -0.23234003201E+02 -0.36431721188E+02 -0.30733788739E+02  0.53025041101E+02  0.00000000000E+00 0.  1.
</event>
<event>
12    1  0.8453150E-002  0.1986717E+03  0.7818608E-02  0.1151752E+00
         21   -1    0    0  503  502  0.00000000000E+00  0.00000000000E+00  0.90537049493E+02  0.90537049493E+02  0.00000000000E+00 0.  1.
         21   -1    0    0  501  503 -0.00000000000E+00 -0.00000000000E+00 -0.43216403131E+03  0.43216403131E+03  0.00000000000E+00 0. -1.
          6    2    1    2  501    0 -0.45643173838E+02 -0.10561661419E+03 -0.20128326034E+03  0.28281692725E+03  0.16196386923E+03 0.  0.
         24    2    3    3    0    0 -0.16419056388E+02 -0.13384893664E+03 -0.14892185015E+03  0.21637206026E+03  0.80336963825E+02 0.  0.
         -6    2    1    2    0  502  0.45643173838E+02  0.10561661419E+03 -0.14034372147E+03  0.23988415355E+03  0.15687535962E+03 0.  0.
        -24    2    5    5    0    0  0.61638648329E+02  0.12972515947E+03 -0.11934993955E+03  0.20382994382E+03  0.81696376667E+02 0.  0.
          5    1    3    3  501    0 -0.29224117450E+02  0.28232322453E+02 -0.52361410193E+02  0.66444866990E+02  0.47000000000E+01 0. -1.
        -11    1    4    4    0    0 -0.33472756049E+02 -0.11265751110E+03 -0.79708861550E+02  0.14200578444E+03  0.00000000000E+00 0.  1.
         12    1    4    4    0    0  0.17053699661E+02 -0.21191425542E+02 -0.69212988597E+02  0.74366275819E+02  0.00000000000E+00 0. -1.
         -5    1    5    5    0  502 -0.15995474490E+02 -0.24108545279E+02 -0.20993781927E+02  0.36054209730E+02  0.47000000000E+01 0.  1.
         11    1    6    6    0    0  0.44973915792E+02  0.27848069279E+02 -0.74276955493E+02  0.91187905895E+02  0.00000000000E+00 0. -1.
        -12    1    6    6    0    0  0.16664732536E+02  0.10187709019E+03 -0.45072984053E+02  0.11264203792E+03  0.00000000000E+00 0.  1.
</event>
<event>
12    1  0.8453150E-002  0.1895659E+03  0.7818608E-02  0.1158917E+00
         21   -1    0    0  501  502  0.00000000000E+00  0.00000000000E+00  0.54225177291E+02  0.54225177291E+02  0.00000000000E+00 0.  1.
         21   -1    0    0  502  503 -0.00000000000E+00 -0.00000000000E+00 -0.68839844717E+03  0.68839844717E+03  0.00000000000E+00 0.  1.
         -6    2    1    2    0  503 -0.76680958567E+02 -0.38654106907E+00 -0.39041398546E+03  0.43400264400E+03  0.17336405664E+03 0.  0.
        -24    2    3    3    0    0  0.27470792379E+02 -0.45048384678E+01 -0.18081928096E+03  0.19987324014E+03  0.80490755690E+02 0.  0.
          6    2    1    2  501    0  0.76680958567E+02  0.38654106907E+00 -0.24375928441E+03  0.30862098045E+03  0.17305548827E+03 0.  0.
         24    2    5    5    0    0 -0.29987028115E+02  0.98363890488E+01 -0.99623942690E+02  0.12899791472E+03  0.75627743860E+02 0.  0.
          5    1    5    5  501    0  0.10666798668E+03 -0.94498479797E+01 -0.14413534172E+03  0.17962306573E+03  0.47000000000E+01 0. -1.
        -11    1    6    6    0    0 -0.24446873338E+01  0.63265396659E+01  0.12102379856E+02  0.13873326872E+02  0.00000000000E+00 0.  1.
         12    1    6    6    0    0 -0.27542340782E+02  0.35098493829E+01 -0.11172632255E+03  0.11512458785E+03  0.00000000000E+00 0. -1.
         -5    1    3    3    0  503 -0.10415175095E+03  0.41182973988E+01 -0.20959470450E+03  0.23412940386E+03  0.47000000000E+01 0.  1.
         13    1    4    4    0    0  0.97430324323E+01 -0.40705439402E+02 -0.65685299791E+02  0.77887213884E+02  0.00000000000E+00 0. -1.
        -14    1    4    4    0    0  0.17727759947E+02  0.36200600934E+02 -0.11513398117E+03  0.12198602625E+03  0.00000000000E+00 0.  1.
</event>
<event>
12    1  0.8453150E-002  0.1784855E+03  0.7818608E-02  0.1169287E+00
         21   -1    0    0  501  502  0.00000000000E+00  0.00000000000E+00  0.34595074831E+02  0.34595074831E+02  0.00000000000E+00 0.  1.
         21   -1    0    0  502  503 -0.00000000000E+00 -0.00000000000E+00 -0.14753426535E+04  0.14753426535E+04  0.00000000000E+00 0.  1.
         -6    2    1    2    0  503 -0.31990020610E+02  0.35603365999E+02 -0.11833573645E+04  0.11967421242E+04  0.17194795336E+03 0.  0.
        -24    2    3    3    0    0 -0.29961516295E+02 -0.29119923784E+02 -0.95806464862E+03  0.96228079073E+03  0.79691824282E+02 0.  0.
          6    2    1    2  501    0  0.31990020610E+02 -0.35603365999E+02 -0.25739021418E+03  0.31319560413E+03  0.17190347000E+03 0.  0.
         24    2    5    5    0    0  0.22661698338E+02 -0.49760394432E+02 -0.57363581649E+02  0.11239674265E+03  0.79704440479E+02 0.  0.
          5    1    5    5  501    0  0.93283222720E+01  0.14157028433E+02 -0.20002663253E+03  0.20079886148E+03  0.47000000000E+01 0. -1.
        -11    1    6    6    0    0 -0.15758622611E+02 -0.52343945499E+02 -0.18560176862E+02  0.57729567660E+02  0.00000000000E+00 0.  1.
         12    1    6    6    0    0  0.38420320948E+02  0.25835510673E+01 -0.38803404787E+02  0.54667174986E+02  0.00000000000E+00 0. -1.
         -5    1    3    3    0  503 -0.20285043143E+01  0.64723289783E+02 -0.22529271591E+03  0.23446133351E+03  0.47000000000E+01 0.  1.
         11    1    4    4    0    0  0.79093458981E+01 -0.44649178518E+02 -0.36508380072E+03  0.36788896211E+03  0.00000000000E+00 0. -1.
        -12    1    4    4    0    0 -0.37870862193E+02  0.15529254734E+02 -0.59298084790E+03  0.59439182862E+03  0.00000000000E+00 0.  1.
</event>
<event>
12    1  0.8453150E-002  0.1785844E+03  0.7818608E-02  0.1169814E+00
         21   -1    0    0  503  502  0.00000000000E+00  0.00000000000E+00  0.40443347525E+03  0.40443347525E+03  0.00000000000E+00 0.  1.
         21   -1    0    0  501  503 -0.00000000000E+00 -0.00000000000E+00 -0.11263782942E+03  0.11263782942E+03  0.00000000000E+00 0.  1.
          6    2    1    2  501    0 -0.45184449723E+02 -0.79734234187E+01  0.26945655559E+01  0.17860470199E+03  0.17258959676E+03 0.  0.
         24    2    3    3    0    0 -0.91504614704E+01 -0.43574521887E+02  0.53923586550E+02  0.10640782454E+03  0.80202257037E+02 0.  0.
         -6    2    1    2    0  502  0.45184449723E+02  0.79734234187E+01  0.28910108027E+03  0.33846660268E+03  0.16992644449E+03 0.  0.
        -24    2    5    5    0    0  0.72947185474E+02  0.11603660261E+02  0.29289169256E+03  0.30982385739E+03  0.68915471705E+02 0.  0.
          5    1    3    3  501    0 -0.36033988253E+02  0.35601098468E+02 -0.51229020995E+02  0.72196877451E+02  0.47000000000E+01 0. -1.
        -11    1    4    4    0    0  0.27603662531E+02  0.76560282165E+01  0.18232090742E+02  0.33955648809E+02  0.00000000000E+00 0.  1.
         12    1    4    4    0    0 -0.36754124001E+02 -0.51230550104E+02  0.35691495808E+02  0.72452175730E+02  0.00000000000E+00 0. -1.
         -5    1    5    5    0  502 -0.27762735750E+02 -0.36302368420E+01 -0.37906122906E+01  0.28642745284E+02  0.47000000000E+01 0.  1.
         11    1    6    6    0    0  0.71746001388E+02 -0.35917078106E+01  0.15211264935E+03  0.16822201751E+03  0.00000000000E+00 0. -1.
        -12    1    6    6    0    0  0.12011840855E+01  0.15195368071E+02  0.14077904320E+03  0.14160183989E+03  0.00000000000E+00 0.  1.
</event>
<event>
12    1  0.8453150E-002  0.2151550E+03  0.7818608E-02  0.1138559E+00
         21   -1    0    0  501  502  0.00000000000E+00  0.00000000000E+00  0.63384404243E+03  0.63384404243E+03  0.00000000000E+00 0.  1.
         21   -1    0    0  502  503 -0.00000000000E+00 -0.00000000000E+00 -0.71292898203E+02  0.71292898203E+02  0.00000000000E+00 0. -1.
         -6    2    1    2    0  503  0.52486105988E+02 -0.11787559537E+03  0.28979531638E+03  0.36093352296E+03  0.17216920541E+03 0.  0.
        -24    2    3    3    0    0  0.92335136508E+02 -0.10872569935E+03  0.17903176219E+03  0.24277125838E+03  0.80860725285E+02 0.  0.
          6    2    1    2  501    0 -0.52486105988E+02  0.11787559537E+03  0.27275582784E+03  0.34420341767E+03  0.16562247375E+03 0.  0.
         24    2    5    5    0    0  0.19816619284E+02  0.10716966038E+03  0.15596216781E+03  0.20634424986E+03  0.79848088003E+02 0.  0.
          5    1    5    5  501    0 -0.72302725273E+02  0.10705934994E+02  0.11679366003E+03  0.13785916781E+03  0.47000000000E+01 0. -1.
        -13    1    6    6    0    0 -0.14319114414E+02 -0.57521870637E+01  0.30190088185E+02  0.33905252074E+02  0.00000000000E+00 0.  1.
         14    1    6    6    0    0  0.34135733698E+02  0.11292184744E+03  0.12577207963E+03  0.17243899779E+03  0.00000000000E+00 0. -1.
         -5    1    3    3    0  503 -0.39849030519E+02 -0.91498960226E+01  0.11076355420E+03  0.11816226457E+03  0.47000000000E+01 0.  1.
         13    1    4    4    0    0  0.44895978226E+01 -0.18833289946E+02 -0.49238178326E+01  0.19977319161E+02  0.00000000000E+00 0. -1.
        -14    1    4    4    0    0  0.87845538685E+02 -0.89892409404E+02  0.18395558002E+03  0.22279393922E+03  0.00000000000E+00 0.  1.
</event>
<event>
12    1  0.8453150E-002  0.3049383E+03  0.7818608E-02  0.1083002E+00
         21   -1    0    0  501  502  0.00000000000E+00  0.00000000000E+00  0.66506306691E+03  0.66506306691E+03  0.00000000000E+00 0.  1.
         21   -1    0    0  502  503 -0.00000000000E+00 -0.00000000000E+00 -0.37145628679E+03  0.37145628679E+03  0.00000000000E+00 0. -1.
         -6    2    1    2    0  503  0.21783834114E+03 -0.12131335198E+03 -0.26297830346E+03  0.40267227157E+03  0.17554742368E+03 0.  0.
        -24    2    3    3    0    0  0.21013358868E+03 -0.12298999788E+03 -0.28237357455E+03  0.38121438508E+03  0.79416038171E+02 0.  0.
          6    2    1    2  501    0 -0.21783834114E+03  0.12131335198E+03  0.55658508358E+03  0.63384708213E+03  0.17264036615E+03 0.  0.
         24    2    5    5    0    0 -0.14386056110E+03  0.13073595407E+03  0.49476741870E+03  0.53686764586E+03  0.75128688455E+02 0.  0.
          5    1    5    5  501    0 -0.73977780039E+02 -0.94226020865E+01  0.61817664873E+02  0.96979436273E+02  0.47000000000E+01 0. -1.
        -13    1    6    6    0    0 -0.51513188773E+02  0.10904468327E+02  0.18148263012E+03  0.18896682535E+03  0.00000000000E+00 0.  1.
         14    1    6    6    0    0 -0.92347372330E+02  0.11983148574E+03  0.31328478858E+03  0.34790082050E+03  0.00000000000E+00 0. -1.
         -5    1    3    3    0  503  0.77047524639E+01  0.16766458989E+01  0.19395271090E+02  0.21457886491E+02  0.47000000000E+01 0.  1.
         13    1    4    4    0    0  0.10158711914E+03 -0.10065443595E+03 -0.18392791318E+03  0.23298226435E+03  0.00000000000E+00 0. -1.
        -14    1    4    4    0    0  0.10854646954E+03 -0.22335561932E+02 -0.98445661364E+02  0.14823212073E+03  0.00000000000E+00 0.  1.
</event>
<event>
12    1  0.8453150E-002  0.1909995E+03  0.7818608E-02  0.1157802E+00
         21   -1    0    0  501  502  0.00000000000E+00  0.00000000000E+00  0.20312585821E+04  0.20312585821E+04  0.00000000000E+00 0. -1.
         21   -1    0    0  502  503 -0.00000000000E+00 -0.00000000000E+00 -0.31209488966E+02  0.31209488966E+02  0.00000000000E+00 0.  1.
         -6    2    1    2    0  503 -0.77260395109E+02  0.26182034593E+02  0.32397330894E+03  0.37554458985E+03  0.17152366156E+03 0.  0.
        -24    2    3    3    0    0  0.48573090377E+01  0.27393856238E+02  0.25367577273E+03  0.26733821553E+03  0.79651158208E+02 0.  0.
          6    2    1    2  501    0  0.77260395109E+02 -0.26182034593E+02  0.16760757842E+04  0.16869234812E+04  0.17270243054E+03 0.  0.
         24    2    5    5    0    0  0.12043552791E+01 -0.68147673385E+02  0.91628412621E+03  0.92216790616E+03  0.78558840016E+02 0.  0.
          5    1    5    5  501    0  0.76056039829E+02  0.41965638792E+02  0.75979165797E+03  0.76475557504E+03  0.47000000000E+01 0. -1.
        -11    1    6    6    0    0 -0.35273414478E+02 -0.33996035461E+02  0.59590537727E+03  0.59791568206E+03  0.00000000000E+00 0.  1.
         12    1    6    6    0    0  0.36477769757E+02 -0.34151637925E+02  0.32037874895E+03  0.32425222410E+03  0.00000000000E+00 0. -1.
         -5    1    3    3    0  503 -0.82117704146E+02 -0.12118216454E+01  0.70297536205E+02  0.10820637432E+03  0.47000000000E+01 0.  1.
         13    1    4    4    0    0 -0.56705030090E+00 -0.13168394092E+02  0.19695544524E+03  0.19739598668E+03  0.00000000000E+00 0. -1.
        -14    1    4    4    0    0  0.54243593386E+01  0.40562250330E+02  0.56720327495E+02  0.69942228855E+02  0.00000000000E+00 0.  1.
</event>
<event>
12    1  0.8453150E-002  0.1795856E+03  0.7818608E-02  0.1168698E+00
         21   -1    0    0  503  502  0.00000000000E+00  0.00000000000E+00  0.33634544165E+03  0.33634544165E+03  0.00000000000E+00 0.  1.
         21   -1    0    0  501  503 -0.00000000000E+00 -0.00000000000E+00 -0.13596065194E+03  0.13596065194E+03  0.00000000000E+00 0.  1.
          6    2    1    2  501    0  0.43803003115E+02 -0.23361361786E+02 -0.29328342067E+02  0.18196466310E+03  0.17258774772E+03 0.  0.
         24    2    3    3    0    0 -0.27982749900E+02  0.30040733940E+02 -0.10555992262E+02  0.90425221977E+02  0.79873724149E+02 0.  0.
         -6    2    1    2    0  502 -0.43803003115E+02  0.23361361786E+02  0.22971313177E+03  0.29034143049E+03  0.17048626643E+03 0.  0.
        -24    2    5    5    0    0 -0.11284897551E+02  0.64762329217E+02  0.77751580570E+02  0.12945056580E+03  0.79941431733E+02 0.  0.
          5    1    3    3  501    0  0.71785753015E+02 -0.53402095726E+02 -0.18772349805E+02  0.91539441123E+02  0.47000000000E+01 0. -1.
        -13    1    4    4    0    0  0.19119903484E+02  0.36481728594E+02 -0.11874433260E+02  0.42865946808E+02  0.00000000000E+00 0.  1.
         14    1    4    4    0    0 -0.47102653385E+02 -0.64409946542E+01  0.13184409977E+01  0.47559275170E+02  0.00000000000E+00 0. -1.
         -5    1    5    5    0  502 -0.32518105563E+02 -0.41400967431E+02  0.15196155120E+03  0.16089086468E+03  0.47000000000E+01 0.  1.
         13    1    6    6    0    0 -0.35936605832E+02  0.20828609066E+02  0.62794852309E+01  0.42008362609E+02  0.00000000000E+00 0. -1.
        -14    1    6    6    0    0  0.24651708281E+02  0.43933720151E+02  0.71472095339E+02  0.87442203195E+02  0.00000000000E+00 0.  1.
</event>
<event>
12    1  0.8453150E-002  0.1969474E+03  0.7818608E-02  0.1153105E+00
         21   -1    0    0  501  502  0.00000000000E+00  0.00000000000E+00  0.97080918152E+02  0.97080918152E+02  0.00000000000E+00 0.  1.
         21   -1    0    0  502  503 -0.00000000000E+00 -0.00000000000E+00 -0.39428916383E+03  0.39428916383E+03  0.00000000000E+00 0.  1.
         -6    2    1    2    0  503 -0.58219882838E+02 -0.70008629619E+02 -0.16408319275E+03  0.25365060947E+03  0.17065923521E+03 0.  0.
        -24    2    3    3    0    0 -0.27683568015E+01 -0.43970684514E+02 -0.13607286006E+02  0.91114660106E+02  0.78585228623E+02 0.  0.
          6    2    1    2  501    0  0.58219882838E+02  0.70008629619E+02 -0.13312505293E+03  0.23771947251E+03  0.17463534841E+03 0.  0.
         24    2    5    5    0    0  0.92399065834E+02  0.64504676086E+02 -0.47553231611E+02  0.14529038262E+03  0.78419033667E+02 0.  0.
          5    1    5    5  501    0 -0.34179182996E+02  0.55039535324E+01 -0.85571821314E+02  0.92429089889E+02  0.47000000000E+01 0. -1.
        -13    1    6    6    0    0  0.21466113013E+02  0.19886265488E+01  0.19746179519E+02  0.29234572838E+02  0.00000000000E+00 0.  1.
         14    1    6    6    0    0  0.70932952821E+02  0.62516049538E+02 -0.67299411131E+02  0.11605580978E+03  0.00000000000E+00 0. -1.
         -5    1    3    3    0  503 -0.55451526037E+02 -0.26037945105E+02 -0.15047590674E+03  0.16253594936E+03  0.47000000000E+01 0.  1.
         11    1    4    4    0    0 -0.40627365612E+02 -0.20077726868E+02 -0.74157589079E+01  0.45920490339E+02  0.00000000000E+00 0. -1.
        -12    1    4    4    0    0  0.37859008810E+02 -0.23892957645E+02 -0.61915270986E+01  0.45194169767E+02  0.00000000000E+00 0.  1.
</event>
<event>
12    1  0.8453150E-002  0.2340386E+03  0.7818608E-02  0.1124705E+00
         21   -1    0    0  501  502  0.00000000000E+00  0.00000000000E+00  0.38090803543E+03  0.38090803543E+03  0.00000000000E+00 0. -1.
         21   -1    0    0  502  503 -0.00000000000E+00 -0.00000000000E+00 -0.17910844701E+03  0.17910844701E+03  0.00000000000E+00 0. -1.
         -6    2    1    2    0  503 -0.13271551636E+02  0.15158436782E+03 -0.29584408886E+02  0.23090766726E+03  0.17114075756E+03 0.  0.
        -24    2    3    3    0    0  0.44686076160E+02  0.38440936344E+02 -0.33819555727E+02  0.10362628930E+03  0.78231032811E+02 0.  0.
          6    2    1    2  501    0  0.13271551636E+02 -0.15158436782E+03  0.23138399731E+03  0.32910881518E+03  0.17782042451E+03 0.  0.
         24    2    5    5    0    0 -0.19827768927E+02 -0.57078596586E+02  0.20063734387E+03  0.22425485714E+03  0.79898626965E+02 0.  0.
          5    1    5    5  501    0  0.33099320563E+02 -0.94505771235E+02  0.30746653441E+02  0.10485395804E+03  0.47000000000E+01 0. -1.
        -13    1    6    6    0    0  0.19209381555E+02  0.87605090403E+00  0.10999523436E+02  0.22153043148E+02  0.00000000000E+00 0.  1.
         14    1    6    6    0    0 -0.39037150482E+02 -0.57954647490E+02  0.18963782043E+03  0.20210181400E+03  0.00000000000E+00 0. -1.
         -5    1    3    3    0  503 -0.57957627796E+02  0.11314343148E+03  0.42351468407E+01  0.12728137796E+03  0.47000000000E+01 0.  1.
         11    1    4    4    0    0  0.66086528805E+02  0.38356270057E+02 -0.28689665558E+02  0.81619419577E+02  0.00000000000E+00 0. -1.
        -12    1    4    4    0    0 -0.21400452645E+02  0.84666287201E-01 -0.51298901688E+01  0.22006869722E+02  0.00000000000E+00 0.  1.
</event>
<event>
12    1  0.8453150E-002  0.1944369E+03  0.7818608E-02  0.1154636E+00
         21   -1    0    0  501  502  0.00000000000E+00  0.00000000000E+00  0.38508737215E+03  0.38508737215E+03  0.00000000000E+00 0. -1.
         21   -1    0    0  502  503 -0.00000000000E+00 -0.00000000000E+00 -0.17472719354E+03  0.17472719354E+03  0.00000000000E+00 0. -1.
         -6    2    1    2    0  503 -0.60597808127E+02 -0.65242639123E+02 -0.80499030643E+02  0.20995061914E+03  0.17225118935E+03 0.  0.
        -24    2    3    3    0    0 -0.22956185892E+02 -0.28025065366E+02  0.24733119915E+02  0.92061115651E+02  0.80939057535E+02 0.  0.
          6    2    1    2  501    0  0.60597808127E+02  0.65242639123E+02  0.29085920925E+03  0.34986394656E+03  0.17284966065E+03 0.  0.
         24    2    5    5    0    0 -0.20821555666E+01 -0.23124407486E+02  0.94622949841E+02  0.12565807625E+03  0.79356007310E+02 0.  0.
          5    1    5    5  501    0  0.62679963693E+02  0.88367046609E+02  0.19623625941E+03  0.22420587031E+03  0.47000000000E+01 0. -1.
        -13    1    6    6    0    0  0.23511581029E+02  0.55080844589E+01  0.66801618282E+00  0.24157393951E+02  0.00000000000E+00 0.  1.
         14    1    6    6    0    0 -0.25593736595E+02 -0.28632491945E+02  0.93954933658E+02  0.10150068230E+03  0.00000000000E+00 0. -1.
         -5    1    3    3    0  503 -0.37641622234E+02 -0.37217573757E+02 -0.10523215056E+03  0.11788950348E+03  0.47000000000E+01 0.  1.
         11    1    4    4    0    0 -0.46209272031E+02 -0.16456260548E+02 -0.86041867352E+01  0.49800977523E+02  0.00000000000E+00 0. -1.
        -12    1    4    4    0    0  0.23253086139E+02 -0.11568804818E+02  0.33337306650E+02  0.42260138128E+02  0.00000000000E+00 0.  1.
</event>
<event>
12    1  0.8453150E-002  0.1839943E+03  0.7818608E-02  0.1164727E+00
         21   -1    0    0  501  502  0.00000000000E+00  0.00000000000E+00  0.97651037589E+03  0.97651037589E+03  0.00000000000E+00 0. -1.
         21   -1    0    0  502  503 -0.00000000000E+00 -0.00000000000E+00 -0.45899259696E+02  0.45899259696E+02  0.00000000000E+00 0. -1.
         -6    2    1    2    0  503  0.30521350280E+02 -0.53671032927E+02  0.20891319594E+03  0.27838572425E+03  0.17332557640E+03 0.  0.
        -24    2    3    3    0    0  0.38453911382E+02 -0.98463863048E+02  0.18293365502E+03  0.22578962457E+03  0.79639166222E+02 0.  0.
          6    2    1    2  501    0 -0.30521350280E+02  0.53671032927E+02  0.72169792025E+03  0.74402391133E+03  0.17003399641E+03 0.  0.
         24    2    5    5    0    0 -0.97784813798E+01 -0.26302983240E+02  0.50053518136E+03  0.50788590730E+03  0.81395094632E+02 0.  0.
          5    1    5    5  501    0 -0.20742868900E+02  0.79974016167E+02  0.22116273890E+03  0.23613800403E+03  0.47000000000E+01 0. -1.
        -11    1    6    6    0    0  0.29359649318E+01 -0.48419154159E+02  0.18274491954E+03  0.18907337199E+03  0.00000000000E+00 0.  1.
         12    1    6    6    0    0 -0.12714446312E+02  0.22116170919E+02  0.31779026181E+03  0.31881253530E+03  0.00000000000E+00 0. -1.
         -5    1    3    3    0  503 -0.79325611023E+01  0.44792830121E+02  0.25979540920E+02  0.52596099687E+02  0.47000000000E+01 0.  1.
         13    1    4    4    0    0 -0.24354277045E+01 -0.75019199936E+02  0.15167986078E+03  0.16923531497E+03  0.00000000000E+00 0. -1.
        -14    1    4    4    0    0  0.40889339087E+02 -0.23444663112E+02  0.31253794235E+02  0.56554309592E+02  0.00000000000E+00 0.  1.
</event>
<event>
12    1  0.8453150E-002  0.1754912E+03  0.7818608E-02  0.1173309E+00
         21   -1    0    0  503  502  0.00000000000E+00  0.00000000000E+00  0.79861567796E+02  0.79861567796E+02  0.00000000000E+00 0.  1.
         21   -1    0    0  501  503 -0.00000000000E+00 -0.00000000000E+00 -0.66858544281E+03  0.66858544281E+03  0.00000000000E+00 0.  1.
          6    2    1    2  501    0  0.26215365477E+00  0.26683465487E+02 -0.54375117956E+03  0.57136896820E+03  0.17345050155E+03 0.  0.
         24    2    3    3    0    0  0.62989916203E+02 -0.10048277293E+02 -0.28915579148E+03  0.30655791338E+03  0.79359845560E+02 0.  0.
         -6    2    1    2    0  502 -0.26215365477E+00 -0.26683465487E+02 -0.44972695449E+02  0.17707804241E+03  0.16918041764E+03 0.  0.
        -24    2    5    5    0    0 -0.18174251088E+02 -0.66834260548E+02 -0.75783283600E+02  0.12318637403E+03  0.68078299681E+02 0.  0.
          5    1    3    3  501    0 -0.62727762549E+02  0.36731742780E+02 -0.25459538809E+03  0.26481105482E+03  0.47000000000E+01 0. -1.
        -13    1    4    4    0    0 -0.52614072297E+01 -0.37784076592E+00 -0.16060250803E+03  0.16068911212E+03  0.00000000000E+00 0.  1.
         14    1    4    4    0    0  0.68251323433E+02 -0.96704365270E+01 -0.12855328345E+03  0.14586880125E+03  0.00000000000E+00 0. -1.
         -5    1    5    5    0  502  0.17912097433E+02  0.40150795062E+02  0.30810588150E+02  0.53891668380E+02  0.47000000000E+01 0.  1.
         11    1    6    6    0    0 -0.25488596019E+02 -0.70579453370E+01 -0.52187632693E+02  0.58506684451E+02  0.00000000000E+00 0. -1.
        -12    1    6    6    0    0  0.73143449311E+01 -0.59776315211E+02 -0.23595650907E+02  0.64679689577E+02  0.00000000000E+00 0.  1.
</event>
<event>
12    1  0.8453150E-002  0.2633999E+03  0.7818608E-02  0.1105120E+00
         21   -1    0    0  501  502  0.00000000000E+00  0.00000000000E+00  0.17005670877E+03  0.17005670877E+03  0.00000000000E+00 0. -1.
         21   -1    0    0  502  503 -0.00000000000E+00 -0.00000000000E+00 -0.44598997187E+03  0.44598997187E+03  0.00000000000E+00 0. -1.
         -6    2    1    2    0  503 -0.19088675214E+03 -0.64179572531E+02 -0.22791778682E+03  0.34830618956E+03  0.16974661840E+03 0.  0.
        -24    2    3    3    0    0 -0.17482954212E+03 -0.53773307354E+02 -0.24944017020E+03  0.31912696175E+03  0.78515487815E+02 0.  0.
          6    2    1    2  501    0  0.19088675214E+03  0.64179572531E+02 -0.48015476279E+02  0.26774049108E+03  0.16977253879E+03 0.  0.
         24    2    5    5    0    0  0.20985510280E+03  0.78796669217E+02 -0.56540686076E+02  0.24189040319E+03  0.71176110615E+02 0.  0.
          5    1    5    5  501    0 -0.18968350653E+02 -0.14617096686E+02  0.85252097974E+01  0.25850087894E+02  0.47000000000E+01 0. -1.
        -11    1    6    6    0    0  0.92734969904E+02 -0.40320835514E+00 -0.11182092859E+02  0.93407582245E+02  0.00000000000E+00 0.  1.
         12    1    6    6    0    0  0.11712013289E+03  0.79199877572E+02 -0.45358593218E+02  0.14848282094E+03  0.00000000000E+00 0. -1.
         -5    1    3    3    0  503 -0.16057210028E+02 -0.10406265176E+02  0.21522383381E+02  0.29179227803E+02  0.47000000000E+01 0.  1.
         13    1    4    4    0    0 -0.11191454353E+03 -0.64339802648E+02 -0.20158788431E+03  0.23937867566E+03  0.00000000000E+00 0. -1.
        -14    1    4    4    0    0 -0.62914998590E+02  0.10566495294E+02 -0.47852285887E+02  0.79748286095E+02  0.00000000000E+00 0.  1.
</event>
<event>
12    1  0.8453150E-002  0.1979380E+03  0.7818608E-02  0.1153167E+00
         21   -1    0    0  501  502  0.00000000000E+00  0.00000000000E+00  0.17206554415E+02  0.17206554415E+02  0.00000000000E+00 0. -1.
         21   -1    0    0  502  503 -0.00000000000E+00 -0.00000000000E+00 -0.26600874671E+04  0.26600874671E+04  0.00000000000E+00 0.  1.
         -6    2    1    2    0  503 -0.84744613324E+02  0.17625003114E+02 -0.19058953031E+04  0.19161462251E+04  0.17800887393E+03 0.  0.
        -24    2    3    3    0    0  0.21425059331E+02  0.39622901372E+01 -0.11106606257E+04  0.11137255429E+04  0.79641863192E+02 0.  0.
          6    2    1    2  501    0  0.84744613324E+02 -0.17625003114E+02 -0.73698560958E+03  0.76114779645E+03  0.16942812369E+03 0.  0.
         24    2    5    5    0    0  0.10230213189E+03  0.31235214591E+02 -0.45157027793E+03  0.47101060671E+03  0.80584805657E+02 0.  0.
          5    1    5    5  501    0 -0.17557518562E+02 -0.48860217706E+02 -0.28541533165E+03  0.29013718974E+03  0.47000000000E+01 0. -1.
        -11    1    6    6    0    0  0.77672161448E+02  0.34566668251E+02 -0.42930409372E+03  0.43764120476E+03  0.00000000000E+00 0.  1.
         12    1    6    6    0    0  0.24629970439E+02 -0.33314536596E+01 -0.22266184215E+02  0.33369401955E+02  0.00000000000E+00 0. -1.
         -5    1    3    3    0  503 -0.10616967266E+03  0.13662712977E+02 -0.79523467740E+03  0.80242068222E+03  0.47000000000E+01 0.  1.
         13    1    4    4    0    0  0.34092694512E+01  0.21013427777E+02 -0.80528884816E+02  0.83295189266E+02  0.00000000000E+00 0. -1.
        -14    1    4    4    0    0  0.18015789880E+02 -0.17051137640E+02 -0.10301317409E+04  0.10304303536E+04  0.00000000000E+00 0.  1.
</event>
<event>
12    1  0.8453150E-002  0.2332669E+03  0.7818608E-02  0.1125262E+00
         21   -1    0    0  503  502  0.00000000000E+00  0.00000000000E+00  0.16755729251E+03  0.16755729251E+03  0.00000000000E+00 0.  1.
         21   -1    0    0  501  503 -0.00000000000E+00 -0.00000000000E+00 -0.32140768074E+03  0.32140768074E+03  0.00000000000E+00 0.  1.
          6    2    1    2  501    0  0.53308651663E+02 -0.14616339366E+03 -0.10433040727E+03  0.25553529324E+03  0.17380420657E+03 0.  0.
         24    2    3    3    0    0 -0.31377188198E+02 -0.66943005507E+02 -0.16163546003E+02  0.10978534710E+03  0.79534070018E+02 0.  0.
         -6    2    1    2    0  502 -0.53308651663E+02  0.14616339366E+03 -0.49519980964E+02  0.23342968002E+03  0.16682816612E+03 0.  0.
        -24    2    5    5    0    0  0.16674803608E+02  0.23442218320E+02 -0.44980407832E+01  0.85081319779E+02  0.79943804821E+02 0.  0.
          5    1    3    3  501    0  0.84685839861E+02 -0.79220388152E+02 -0.88166861269E+02  0.14574994613E+03  0.47000000000E+01 0. -1.
        -13    1    4    4    0    0 -0.24814637490E+02  0.13163104767E+02 -0.18895065792E+01  0.28153219993E+02  0.00000000000E+00 0.  1.
         14    1    4    4    0    0 -0.65625507076E+01 -0.80106110273E+02 -0.14274039423E+02  0.81632127109E+02  0.00000000000E+00 0. -1.
         -5    1    5    5    0  502 -0.69983455271E+02  0.12272117534E+03 -0.45021940180E+02  0.14834836024E+03  0.47000000000E+01 0.  1.
         13    1    6    6    0    0 -0.26090958177E+02 -0.23503483033E+01 -0.19811733439E+02  0.32844588863E+02  0.00000000000E+00 0. -1.
        -14    1    6    6    0    0  0.42765761785E+02  0.25792566623E+02  0.15313692656E+02  0.52236730916E+02  0.00000000000E+00 0.  1.
</event>
<event>
12    1  0.8453150E-002  0.1909959E+03  0.7818608E-02  0.1157804E+00
         21   -1    0    0  501  502  0.00000000000E+00  0.00000000000E+00  0.19574137470E+03  0.19574137470E+03  0.00000000000E+00 0. -1.
         21   -1    0    0  502  503 -0.00000000000E+00 -0.00000000000E+00 -0.29116861111E+03  0.29116861111E+03  0.00000000000E+00 0. -1.
         -6    2    1    2    0  503 -0.36986454232E+02 -0.72751062304E+02 -0.19457702399E+03  0.27265298012E+03  0.17268096143E+03 0.  0.
        -24    2    3    3    0    0 -0.69321737743E+02  0.46418971176E+01 -0.12455921878E+03  0.16329200091E+03  0.79512439564E+02 0.  0.
          6    2    1    2  501    0  0.36986454232E+02  0.72751062304E+02  0.99149787570E+02  0.21425700569E+03  0.17150705306E+03 0.  0.
         24    2    5    5    0    0 -0.36512414248E+02  0.67006434190E+01  0.61642300305E+02  0.10845699102E+03  0.81148571754E+02 0.  0.
          5    1    5    5  501    0  0.73498868480E+02  0.66050418885E+02  0.37507487265E+02  0.10580001467E+03  0.47000000000E+01 0. -1.
        -11    1    6    6    0    0 -0.22562667541E+02  0.28793942586E+02 -0.49572766089E+01  0.36915304246E+02  0.00000000000E+00 0.  1.
         12    1    6    6    0    0 -0.13949746706E+02 -0.22093299167E+02  0.66599576914E+02  0.71541686774E+02  0.00000000000E+00 0. -1.
         -5    1    3    3    0  503  0.32335283511E+02 -0.77392959422E+02 -0.70017805212E+02  0.10936097921E+03  0.47000000000E+01 0.  1.
         11    1    4    4    0    0 -0.72608072169E+01  0.32249437711E+02 -0.65131842925E+02  0.73040417010E+02  0.00000000000E+00 0. -1.
        -12    1    4    4    0    0 -0.62060930526E+02 -0.27607540594E+02 -0.59427375851E+02  0.90251583897E+02  0.00000000000E+00 0.  1.
</event>
<event>
12    1  0.8453150E-002  0.1991720E+03  0.7818608E-02  0.1150635E+00
         21   -1    0    0  501  502  0.00000000000E+00  0.00000000000E+00  0.36837123155E+03  0.36837123155E+03  0.00000000000E+00 0. -1.
         21   -1    0    0  502  503 -0.00000000000E+00 -0.00000000000E+00 -0.13535988378E+03  0.13535988378E+03  0.00000000000E+00 0. -1.
         -6    2    1    2    0  503  0.97081048725E+02  0.13602573915E+02  0.18244897480E+01  0.19918035125E+03  0.17337740199E+03 0.  0.
        -24    2    3    3    0    0  0.49203308266E+02  0.44962157675E+02 -0.60478003254E+02  0.11444905739E+03  0.70699622998E+02 0.  0.
          6    2    1    2  501    0 -0.97081048725E+02 -0.13602573915E+02  0.23118685802E+03  0.30455076408E+03  0.17231960000E+03 0.  0.
         24    2    5    5    0    0 -0.25334551869E+02 -0.65781580322E+02  0.13507369938E+03  0.17366899383E+03  0.83348421255E+02 0.  0.
          5    1    5    5  501    0 -0.71746496856E+02  0.52179006407E+02  0.96113158639E+02  0.13088177025E+03  0.47000000000E+01 0. -1.
        -13    1    6    6    0    0  0.30567131170E+02 -0.29717755606E+02  0.52100649162E+02  0.67319923866E+02  0.00000000000E+00 0.  1.
         14    1    6    6    0    0 -0.55901683039E+02 -0.36063824716E+02  0.82973050218E+02  0.10634906996E+03  0.00000000000E+00 0. -1.
         -5    1    3    3    0  503  0.47877740459E+02 -0.31359583760E+02  0.62302493002E+02  0.84731293861E+02  0.47000000000E+01 0.  1.
         13    1    4    4    0    0  0.12245010230E+02  0.33326247223E+01 -0.57302042867E+02  0.58690465834E+02  0.00000000000E+00 0. -1.
        -14    1    4    4    0    0  0.36958298035E+02  0.41629532953E+02 -0.31759603868E+01  0.55758591553E+02  0.00000000000E+00 0.  1.
</event>
<event>
12    1  0.8453150E-002  0.1732892E+03  0.7818608E-02  0.1174619E+00
         21   -1    0    0  503  502  0.00000000000E+00  0.00000000000E+00  0.54601336961E+02  0.54601336961E+02  0.00000000000E+00 0. -1.
         21   -1    0    0  501  503 -0.00000000000E+00 -0.00000000000E+00 -0.74195865559E+03  0.74195865559E+03  0.00000000000E+00 0. -1.
          6    2    1    2  501    0 -0.16478918370E+02 -0.77108285635E+01 -0.54777053815E+03  0.57452736598E+03  0.17233142534E+03 0.  0.
         24    2    3    3    0    0 -0.48171680349E+01 -0.51273324666E+02 -0.17227519327E+03  0.19630450639E+03  0.78769017269E+02 0.  0.
         -6    2    1    2    0  502  0.16478918370E+02  0.77108285635E+01 -0.13958678048E+03  0.22203262657E+03  0.17170616282E+03 0.  0.
        -24    2    5    5    0    0  0.56130159471E+01 -0.13557015560E+01  0.16528882751E+01  0.80007967331E+02  0.79782196774E+02 0.  0.
          5    1    3    3  501    0 -0.11661750335E+02  0.43562496103E+02 -0.37549534488E+03  0.37822285959E+03  0.47000000000E+01 0. -1.
        -13    1    4    4    0    0  0.34482517037E+02 -0.40537610008E+02 -0.92038584563E+02  0.10631765072E+03  0.00000000000E+00 0.  1.
         14    1    4    4    0    0 -0.39299685072E+02 -0.10735714659E+02 -0.80236608709E+02  0.89986855668E+02  0.00000000000E+00 0. -1.
         -5    1    5    5    0  502  0.10865902423E+02  0.90665301195E+01 -0.14123966875E+03  0.14202465924E+03  0.47000000000E+01 0.  1.
         13    1    6    6    0    0  0.26218067560E+02  0.27690859416E+02 -0.14637201948E+02  0.40846278198E+02  0.00000000000E+00 0. -1.
        -14    1    6    6    0    0 -0.20605051613E+02 -0.29046560972E+02  0.16290090223E+02  0.39161689133E+02  0.00000000000E+00 0.  1.
</event>
<event>
12    1  0.8453150E-002  0.2075876E+03  0.7818608E-02  0.1143798E+00
         21   -1    0    0  501  502  0.00000000000E+00  0.00000000000E+00  0.15106491290E+04  0.15106491290E+04  0.00000000000E+00 0.  1.
         21   -1    0    0  502  503 -0.00000000000E+00 -0.00000000000E+00 -0.39732773266E+02  0.39732773266E+02  0.00000000000E+00 0.  1.
         -6    2    1    2    0  503  0.82888658619E+02 -0.78294888524E+02  0.32187298652E+03  0.38300759992E+03  0.17347040914E+03 0.  0.
        -24    2    3    3    0    0  0.82572033512E+02 -0.60474306515E+02  0.10943981874E+03  0.16977623691E+03  0.79822391776E+02 0.  0.
          6    2    1    2  501    0 -0.82888658619E+02  0.78294888524E+02  0.11490433692E+04  0.11673743024E+04  0.17164346229E+03 0.  0.
         24    2    5    5    0    0 -0.14257604638E+02  0.10258280980E+03  0.64985288966E+03  0.66288114128E+03  0.79850592366E+02 0.  0.
          5    1    5    5  501    0 -0.68631053981E+02 -0.24287921279E+02  0.49919047956E+03  0.50449316107E+03  0.47000000000E+01 0. -1.
        -11    1    6    6    0    0 -0.27240140454E+02  0.95974305144E+02  0.38791803682E+03  0.40054150321E+03  0.00000000000E+00 0.  1.
         12    1    6    6    0    0  0.12982535816E+02  0.66085046587E+01  0.26193485284E+03  0.26233963807E+03  0.00000000000E+00 0. -1.
         -5    1    3    3    0  503  0.31662510723E+00 -0.17820582009E+02  0.21243316778E+03  0.21323136301E+03  0.47000000000E+01 0.  1.
         13    1    4    4    0    0  0.17275861714E+02  0.48174233065E+01 -0.86158645533E+01  0.19897137665E+02  0.00000000000E+00 0. -1.
        -14    1    4    4    0    0  0.65296171798E+02 -0.65291729822E+02  0.11805568329E+03  0.14987909925E+03  0.00000000000E+00 0.  1.
</event>
<event>
12    1  0.8453150E-002  0.2367785E+03  0.7818608E-02  0.1122132E+00
         21   -1    0    0  501  502  0.00000000000E+00  0.00000000000E+00  0.86537473308E+02  0.86537473308E+02  0.00000000000E+00 0.  1.
         21   -1    0    0  502  503 -0.00000000000E+00 -0.00000000000E+00 -0.65413695865E+03  0.65413695865E+03  0.00000000000E+00 0. -1.
         -6    2    1    2    0  503 -0.14508572232E+03  0.69088030441E+02 -0.24077514224E+03  0.33769323475E+03  0.17389947931E+03 0.  0.
        -24    2    3    3    0    0 -0.61269300044E+00  0.18731978519E+02 -0.61172413476E+02  0.10171141692E+03  0.79068867132E+02 0.  0.
          6    2    1    2  501    0  0.14508572232E+03 -0.69088030441E+02 -0.32682434311E+03  0.40298119721E+03  0.17250122113E+03 0.  0.
         24    2    5    5    0    0  0.17524173812E+03 -0.52402691122E+02 -0.28089798715E+03  0.34536951430E+03  0.83190825260E+02 0.  0.
          5    1    5    5  501    0 -0.30156015797E+02 -0.16685339319E+02 -0.45926355959E+02  0.57611682918E+02  0.47000000000E+01 0. -1.
        -11    1    6    6    0    0 -0.36653363263E+01 -0.10544010523E+02 -0.19292202918E+01  0.11328404091E+02  0.00000000000E+00 0.  1.
         12    1    6    6    0    0  0.17890707444E+03 -0.41858680599E+02 -0.27896876685E+03  0.33404111021E+03  0.00000000000E+00 0. -1.
         -5    1    3    3    0  503 -0.14447302932E+03  0.50356051922E+02 -0.17960272877E+03  0.23598181783E+03  0.47000000000E+01 0.  1.
         13    1    4    4    0    0  0.18675529826E+02  0.33324956301E+02 -0.66733272396E+02  0.76893808408E+02  0.00000000000E+00 0. -1.
        -14    1    4    4    0    0 -0.19288222826E+02 -0.14592977782E+02  0.55608589204E+01  0.24817608513E+02  0.00000000000E+00 0.  1.
</event>
<event>
12    1  0.8453150E-002  0.3179279E+03  0.7818608E-02  0.1078028E+00
         21   -1    0    0  503  502  0.00000000000E+00  0.00000000000E+00  0.12175250304E+04  0.12175250304E+04  0.00000000000E+00 0. -1.
         21   -1    0    0  501  503 -0.00000000000E+00 -0.00000000000E+00 -0.89457816709E+02  0.89457816709E+02  0.00000000000E+00 0.  1.
          6    2    1    2  501    0  0.23753940270E+03 -0.87594598905E+02  0.36033576530E+03  0.48054136518E+03  0.19230277766E+03 0.  0.
         24    2    3    3    0    0  0.26442960811E+03 -0.83647084418E+02  0.34028275720E+03  0.44644035124E+03  0.81220563826E+02 0.  0.
         -6    2    1    2    0  502 -0.23753940270E+03  0.87594598905E+02  0.76773144844E+03  0.82644148198E+03  0.17174447481E+03 0.  0.
        -24    2    5    5    0    0 -0.16344782047E+03  0.87950762200E+02  0.68955280444E+03  0.71862831122E+03  0.80579482509E+02 0.  0.
          5    1    3    3  501    0 -0.26890205410E+02 -0.39475144866E+01  0.20053008099E+02  0.34101013936E+02  0.47000000000E+01 0. -1.
        -11    1    4    4    0    0  0.81515802780E+01 -0.87479785692E+01 -0.22219171508E+01  0.12161920321E+02  0.00000000000E+00 0.  1.
         12    1    4    4    0    0  0.25627802783E+03 -0.74899105849E+02  0.34250467436E+03  0.43427843092E+03  0.00000000000E+00 0. -1.
         -5    1    5    5    0  502 -0.74091582238E+02 -0.35616329517E+00  0.78178644001E+02  0.10781317076E+03  0.47000000000E+01 0.  1.
         11    1    6    6    0    0 -0.27670847220E+02 -0.10454270611E+02  0.17382577481E+03  0.17632460846E+03  0.00000000000E+00 0. -1.
        -12    1    6    6    0    0 -0.13577697325E+03  0.98405032811E+02  0.51572702962E+03  0.54230370276E+03  0.00000000000E+00 0.  1.
</event>
<event>
12    1  0.8453150E-002  0.2534096E+03  0.7818608E-02  0.1111199E+00
         21   -1    0    0  501  502  0.00000000000E+00  0.00000000000E+00  0.10248098741E+03  0.10248098741E+03  0.00000000000E+00 0.  1.
         21   -1    0    0  502  503 -0.00000000000E+00 -0.00000000000E+00 -0.99933603380E+03  0.99933603380E+03  0.00000000000E+00 0.  1.
         -6    2    1    2    0  503  0.95294080574E+02  0.15962696980E+03 -0.78498233101E+03  0.82481171977E+03  0.17191678741E+03 0.  0.
        -24    2    3    3    0    0  0.12177102167E+03  0.12969717476E+03 -0.49534572279E+03  0.53239373834E+03  0.80163387412E+02 0.  0.
          6    2    1    2  501    0 -0.95294080574E+02 -0.15962696980E+03 -0.11187271538E+03  0.27700530143E+03  0.17220540437E+03 0.  0.
         24    2    5    5    0    0 -0.96041412075E+02 -0.15856687375E+03 -0.14190572203E+03  0.24657909897E+03  0.79351192927E+02 0.  0.
          5    1    5    5  501    0  0.74733150075E+00 -0.10600960508E+01  0.30033006647E+02  0.30426202462E+02  0.47000000000E+01 0. -1.
        -13    1    6    6    0    0 -0.10107305753E+03 -0.15406482597E+03 -0.11136191868E+03  0.21529795747E+03  0.00000000000E+00 0.  1.
         14    1    6    6    0    0  0.50316454545E+01 -0.45020477835E+01 -0.30543803355E+02  0.31281141501E+02  0.00000000000E+00 0. -1.
         -5    1    3    3    0  503 -0.26476941098E+02  0.29929795049E+02 -0.28963660822E+03  0.29241798143E+03  0.47000000000E+01 0.  1.
         11    1    4    4    0    0  0.12911025357E+01  0.43825019351E+02 -0.76343124617E+02  0.88037332668E+02  0.00000000000E+00 0. -1.
        -12    1    4    4    0    0  0.12047991914E+03  0.85872155404E+02 -0.41900259817E+03  0.44435640568E+03  0.00000000000E+00 0.  1.
</event>
<event>
12    1  0.8453150E-002  0.1932083E+03  0.7818608E-02  0.1155843E+00
         21   -1    0    0  501  502  0.00000000000E+00  0.00000000000E+00  0.10454142279E+03  0.10454142279E+03  0.00000000000E+00 0.  1.
         21   -1    0    0  502  503 -0.00000000000E+00 -0.00000000000E+00 -0.92041767630E+03  0.92041767630E+03  0.00000000000E+00 0.  1.
         -6    2    1    2    0  503 -0.53757165510E+02 -0.68105431765E+02 -0.81004101370E+03  0.83276401330E+03  0.17263045873E+03 0.  0.
        -24    2    3    3    0    0 -0.47683895918E+02  0.16655808858E+02 -0.57800254870E+03  0.58560962480E+03  0.79375792588E+02 0.  0.
          6    2    1    2  501    0  0.53757165510E+02  0.68105431765E+02 -0.58352398085E+01  0.19219508580E+03  0.17139637774E+03 0.  0.
         24    2    5    5    0    0  0.19259434406E+02  0.21456601288E+02  0.62573038705E+02  0.10237309848E+03  0.75720238826E+02 0.  0.
          5    1    5    5  501    0  0.34497731104E+02  0.46648830477E+02 -0.68408278514E+02  0.89821987316E+02  0.47000000000E+01 0. -1.
        -13    1    6    6    0    0  0.45910028344E+01  0.41734545134E+02  0.85691175218E+01  0.42851830062E+02  0.00000000000E+00 0.  1.
         14    1    6    6    0    0  0.14668431571E+02 -0.20277943845E+02  0.54003921183E+02  0.59521268422E+02  0.00000000000E+00 0. -1.
         -5    1    3    3    0  503 -0.60732695917E+01 -0.84761240623E+02 -0.23203846500E+03  0.24715438850E+03  0.47000000000E+01 0.  1.
         11    1    4    4    0    0 -0.35368555654E+02 -0.20837234124E+01 -0.84882327100E+02  0.91979813471E+02  0.00000000000E+00 0. -1.
        -12    1    4    4    0    0 -0.12315340264E+02  0.18739532270E+02 -0.49312022160E+03  0.49362981133E+03  0.00000000000E+00 0.  1.
</event>
<event>
12    1  0.8453150E-002  0.1860146E+03  0.7818608E-02  0.1163710E+00
         21   -1    0    0  503  502  0.00000000000E+00  0.00000000000E+00  0.23988518259E+03  0.23988518259E+03  0.00000000000E+00 0. -1.
         21   -1    0    0  501  503 -0.00000000000E+00 -0.00000000000E+00 -0.26860178650E+03  0.26860178650E+03  0.00000000000E+00 0. -1.
          6    2    1    2  501    0  0.14897999630E+02  0.72678017372E+02 -0.19106518330E+03  0.26665957529E+03  0.17057954222E+03 0.  0.
         24    2    3    3    0    0 -0.46702909068E+02  0.27865682215E+02 -0.57923662068E+02  0.11319436096E+03  0.80623537290E+02 0.  0.
         -6    2    1    2    0  502 -0.14897999630E+02 -0.72678017372E+02  0.16234857938E+03  0.24182739380E+03  0.16315447453E+03 0.  0.
        -24    2    5    5    0    0  0.35748300388E+02 -0.80903102987E+02  0.78478595552E+02  0.14339485890E+03  0.81116845012E+02 0.  0.
          5    1    3    3  501    0  0.61600908697E+02  0.44812335157E+02 -0.13314152123E+03  0.15346521433E+03  0.47000000000E+01 0. -1.
        -13    1    4    4    0    0 -0.23016770727E+02  0.26715563112E+02  0.13635923206E+02  0.37807822587E+02  0.00000000000E+00 0.  1.
         14    1    4    4    0    0 -0.23686138341E+02  0.11501191031E+01 -0.71559585273E+02  0.75386538374E+02  0.00000000000E+00 0. -1.
         -5    1    5    5    0  502 -0.50646300018E+02  0.82250856152E+01  0.83869983830E+02  0.98432534898E+02  0.47000000000E+01 0.  1.
         13    1    6    6    0    0 -0.25654683488E+02 -0.14116013766E+02  0.19840722291E+02  0.35370593585E+02  0.00000000000E+00 0. -1.
        -14    1    6    6    0    0  0.61402983877E+02 -0.66787089221E+02  0.58637873261E+02  0.10802426531E+03  0.00000000000E+00 0.  1.
</event>
<event>
12    1  0.8453150E-002  0.1809230E+03  0.7818608E-02  0.1167307E+00
         21   -1    0    0  503  502  0.00000000000E+00  0.00000000000E+00  0.40504208725E+03  0.40504208725E+03  0.00000000000E+00 0.  1.
         21   -1    0    0  501  503 -0.00000000000E+00 -0.00000000000E+00 -0.61081661361E+03  0.61081661361E+03  0.00000000000E+00 0.  1.
          6    2    1    2  501    0 -0.14891986330E+02 -0.48127215140E+02 -0.57628679201E+03  0.60353300603E+03  0.17206865671E+03 0.  0.
         24    2    3    3    0    0 -0.28897413529E+02  0.34865321150E+02 -0.24189484096E+03  0.25867944291E+03  0.79694974560E+02 0.  0.
         -6    2    1    2    0  502  0.14891986330E+02  0.48127215140E+02  0.37051226566E+03  0.41232569483E+03  0.17376748695E+03 0.  0.
        -24    2    5    5    0    0  0.16104435375E+02 -0.26338868732E+02  0.93004184256E+02  0.12495921640E+03  0.77536692155E+02 0.  0.
          5    1    3    3  501    0  0.14005427199E+02 -0.82992536290E+02 -0.33439195105E+03  0.34485356312E+03  0.47000000000E+01 0. -1.
        -11    1    4    4    0    0 -0.47878535390E+01  0.24285826799E+02 -0.22716668193E+03  0.22851132642E+03  0.00000000000E+00 0.  1.
         12    1    4    4    0    0 -0.24109559990E+02  0.10579494351E+02 -0.14728159034E+02  0.30168116484E+02  0.00000000000E+00 0. -1.
         -5    1    5    5    0  502 -0.12124490450E+01  0.74466083872E+02  0.27750808140E+03  0.28736647842E+03  0.47000000000E+01 0.  1.
         13    1    6    6    0    0  0.24947239390E+02  0.11973112335E+02  0.78189450531E+02  0.82941608053E+02  0.00000000000E+00 0. -1.
        -14    1    6    6    0    0 -0.88428040149E+01 -0.38311981067E+02  0.14814733725E+02  0.42017608350E+02  0.00000000000E+00 0.  1.
</event>
<event>
12    1  0.8453150E-002  0.1811779E+03  0.7818608E-02  0.1167234E+00
         21   -1    0    0  503  502  0.00000000000E+00  0.00000000000E+00  0.13042479336E+04  0.13042479336E+04  0.00000000000E+00 0. -1.
         21   -1    0    0  501  503 -0.00000000000E+00 -0.00000000000E+00 -0.12217945324E+03  0.12217945324E+03  0.00000000000E+00 0. -1.
          6    2    1    2  501    0 -0.45588955220E+02  0.12766640422E+02 -0.44766672440E+02  0.18662659175E+03  0.17488307477E+03 0.  0.
         24    2    3    3    0    0 -0.80762570895E+02 -0.24447176289E+02 -0.61815845386E+02  0.13245265252E+03  0.81254225323E+02 0.  0.
         -6    2    1    2    0  502  0.45588955220E+02 -0.12766640422E+02  0.12268351527E+04  0.12398007950E+04  0.17245341233E+03 0.  0.
        -24    2    5    5    0    0 -0.10790197907E+02 -0.63663418166E+02  0.72322991567E+03  0.73047828847E+03  0.79796991290E+02 0.  0.
          5    1    3    3  501    0  0.35173615674E+02  0.37213816711E+02  0.17049172947E+02  0.54173939233E+02  0.47000000000E+01 0. -1.
        -11    1    4    4    0    0 -0.21774684271E+02  0.29388521516E+02 -0.12812742825E+02  0.38755495749E+02  0.00000000000E+00 0.  1.
         12    1    4    4    0    0 -0.58987886623E+02 -0.53835697805E+02 -0.49003102561E+02  0.93697156771E+02  0.00000000000E+00 0. -1.
         -5    1    5    5    0  502  0.56379153127E+02  0.50896777743E+02  0.50360523707E+03  0.50932250657E+03  0.47000000000E+01 0.  1.
         11    1    6    6    0    0  0.33025437893E+02 -0.40843629470E+02  0.32928740233E+03  0.33345025858E+03  0.00000000000E+00 0. -1.
        -12    1    6    6    0    0 -0.43815635800E+02 -0.22819788696E+02  0.39394251334E+03  0.39702802989E+03  0.00000000000E+00 0.  1.
</event>
<event>
12    1  0.8453150E-002  0.2160301E+03  0.7818608E-02  0.1138224E+00
         21   -1    0    0  503  502  0.00000000000E+00  0.00000000000E+00  0.15237323335E+03  0.15237323335E+03  0.00000000000E+00 0.  1.
         21   -1    0    0  501  503 -0.00000000000E+00 -0.00000000000E+00 -0.62220859784E+03  0.62220859784E+03  0.00000000000E+00 0.  1.
          6    2    1    2  501    0 -0.72536891254E+02 -0.10622693608E+03 -0.51327148626E+03  0.55422823976E+03  0.16485011556E+03 0.  0.
         24    2    3    3    0    0 -0.61547717028E+02 -0.13592159667E+03 -0.46898240887E+03  0.49958258858E+03  0.85880504568E+02 0.  0.
         -6    2    1    2    0  502  0.72536891254E+02  0.10622693608E+03  0.43436121769E+02  0.22035359144E+03  0.17356049678E+03 0.  0.
        -24    2    5    5    0    0  0.13341570407E+02 -0.13495310590E+02  0.54622222147E+01  0.81423359289E+02  0.78992446838E+02 0.  0.
          5    1    3    3  501    0 -0.10989174226E+02  0.29694660587E+02 -0.44289077385E+02  0.54645651183E+02  0.47000000000E+01 0. -1.
        -11    1    4    4    0    0 -0.78131250465E+02 -0.12551315701E+03 -0.44319644773E+03  0.46720566795E+03  0.00000000000E+00 0.  1.
         12    1    4    4    0    0  0.16583533437E+02 -0.10408439657E+02 -0.25785961144E+02  0.32376920630E+02  0.00000000000E+00 0. -1.
         -5    1    5    5    0  502  0.59195320847E+02  0.11972224667E+03  0.37973899554E+02  0.13893023215E+03  0.47000000000E+01 0.  1.
         11    1    6    6    0    0 -0.12533434352E+02 -0.30652884604E+02  0.27749271979E+02  0.43205421032E+02  0.00000000000E+00 0. -1.
        -12    1    6    6    0    0  0.25875004759E+02  0.17157574014E+02 -0.22287049765E+02  0.38217938256E+02  0.00000000000E+00 0.  1.
</event>
<event>
12    1  0.8453150E-002  0.1748987E+03  0.7818608E-02  0.1173331E+00
         21   -1    0    0  503  502  0.00000000000E+00  0.00000000000E+00  0.30495401339E+03  0.30495401339E+03  0.00000000000E+00 0.  1.
         21   -1    0    0  501  503 -0.00000000000E+00 -0.00000000000E+00 -0.36122356043E+03  0.36122356043E+03  0.00000000000E+00 0.  1.
          6    2    1    2  501    0 -0.23987421124E+02 -0.14743187260E+02 -0.31187487616E+03  0.35756888282E+03  0.17261752414E+03 0.  0.
         24    2    3    3    0    0 -0.69249431045E+02 -0.55138569211E+02 -0.19838014630E+03  0.22879163277E+03  0.71799604909E+02 0.  0.
         -6    2    1    2    0  502  0.23987421124E+02  0.14743187260E+02  0.25560532911E+03  0.30860869099E+03  0.17062380239E+03 0.  0.
        -24    2    5    5    0    0  0.25068880327E+02  0.73680607311E+02  0.19150806971E+03  0.22140010369E+03  0.79280416847E+02 0.  0.
          5    1    3    3  501    0  0.45262009921E+02  0.40395381952E+02 -0.11349472986E+03  0.12877725005E+03  0.47000000000E+01 0. -1.
        -13    1    4    4    0    0 -0.18578672555E+02  0.14494641928E+02 -0.72809910153E+02  0.76528065016E+02  0.00000000000E+00 0.  1.
         14    1    4    4    0    0 -0.50670758489E+02 -0.69633211139E+02 -0.12557023615E+03  0.15226356776E+03  0.00000000000E+00 0. -1.
         -5    1    5    5    0  502 -0.10814592035E+01 -0.58937420052E+02  0.64097259403E+02  0.87208587303E+02  0.47000000000E+01 0.  1.
         11    1    6    6    0    0  0.42610111406E+02  0.37399003252E+02  0.54702649689E+02  0.78782529290E+02  0.00000000000E+00 0. -1.
        -12    1    6    6    0    0 -0.17541231078E+02  0.36281604059E+02  0.13680542002E+03  0.14261757440E+03  0.00000000000E+00 0.  1.
</event>
<event>
12    1  0.8453150E-002  0.2227595E+03  0.7818608E-02  0.1132583E+00
         21   -1    0    0  501  502  0.00000000000E+00  0.00000000000E+00  0.35667123223E+03  0.35667123223E+03  0.00000000000E+00 0. -1.
         21   -1    0    0  502  503 -0.00000000000E+00 -0.00000000000E+00 -0.14916914589E+03  0.14916914589E+03  0.00000000000E+00 0.  1.
         -6    2    1    2    0  503  0.10760547198E+03 -0.82825394359E+02  0.17618974677E+03  0.28089095883E+03  0.17151653080E+03 0.  0.
        -24    2    3    3    0    0  0.66474404027E+02 -0.12564068239E+03  0.11767980315E+03  0.19740193475E+03  0.70103925085E+02 0.  0.
          6    2    1    2  501    0 -0.10760547198E+03  0.82825394359E+02  0.31312339571E+02  0.22494941928E+03  0.17658650876E+03 0.  0.
         24    2    5    5    0    0 -0.42549159797E+02 -0.18482515658E+02  0.44949566841E+02  0.10369068618E+03  0.81112640544E+02 0.  0.
          5    1    5    5  501    0 -0.65056312180E+02  0.10130791002E+03 -0.13637227270E+02  0.12125873310E+03  0.47000000000E+01 0. -1.
        -11    1    6    6    0    0 -0.46995338633E+02 -0.16510374873E+02 -0.80594532920E+01  0.50458984522E+02  0.00000000000E+00 0.  1.
         12    1    6    6    0    0  0.44461788356E+01 -0.19721407857E+01  0.53009020133E+02  0.53231701654E+02  0.00000000000E+00 0. -1.
         -5    1    3    3    0  503  0.41131067951E+02  0.42815288031E+02  0.58509943616E+02  0.83489024080E+02  0.47000000000E+01 0.  1.
         13    1    4    4    0    0  0.45523723963E+02 -0.11382213403E+03  0.63359291458E+02  0.13799379498E+03  0.00000000000E+00 0. -1.
        -14    1    4    4    0    0  0.20950680063E+02 -0.11818548356E+02  0.54320511695E+02  0.59408139772E+02  0.00000000000E+00 0.  1.
</event>
<event>
12    1  0.8453150E-002  0.1753911E+03  0.7818608E-02  0.1172512E+00
         21   -1    0    0  501  502  0.00000000000E+00  0.00000000000E+00  0.19292906952E+03  0.19292906952E+03  0.00000000000E+00 0. -1.
         21   -1    0    0  502  503 -0.00000000000E+00 -0.00000000000E+00 -0.17141087376E+03  0.17141087376E+03  0.00000000000E+00 0. -1.
         -6    2    1    2    0  503 -0.40489754984E+02 -0.11725725474E+02 -0.38584807488E+02  0.17958514672E+03  0.17025018254E+03 0.  0.
        -24    2    3    3    0    0 -0.78767242670E+02  0.29544692676E+02 -0.13530872964E+02  0.11779353634E+03  0.81333051691E+02 0.  0.
          6    2    1    2  501    0  0.40489754984E+02  0.11725725474E+02  0.60103003249E+02  0.18475479657E+03  0.16954365503E+03 0.  0.
         24    2    5    5    0    0  0.34195889007E+02 -0.51902016492E+02  0.64564709166E+02  0.12048894937E+03  0.80534508814E+02 0.  0.
          5    1    5    5  501    0  0.62938659763E+01  0.63627741966E+02 -0.44617059172E+01  0.64265847199E+02  0.47000000000E+01 0. -1.
        -13    1    6    6    0    0  0.97177465430E+01 -0.54232816401E+02  0.41389655161E+01  0.55251823573E+02  0.00000000000E+00 0.  1.
         14    1    6    6    0    0  0.24478142464E+02  0.23307999092E+01  0.60425743650E+02  0.65237125798E+02  0.00000000000E+00 0. -1.
         -5    1    3    3    0  503  0.38277487686E+02 -0.41270418150E+02 -0.25053934524E+02  0.61791610377E+02  0.47000000000E+01 0.  1.
         13    1    4    4    0    0 -0.33117479078E+02 -0.27867112372E+02 -0.43076033720E+00  0.43284280367E+02  0.00000000000E+00 0. -1.
        -14    1    4    4    0    0 -0.45649763592E+02  0.57411805048E+02 -0.13100112627E+02  0.74509255974E+02  0.00000000000E+00 0.  1.
</event>
<event>
12    1  0.8453150E-002  0.2982293E+03  0.7818608E-02  0.1086235E+00
         21   -1    0    0  503  502  0.00000000000E+00  0.00000000000E+00  0.58342553608E+03  0.58342553608E+03  0.00000000000E+00 0. -1.
         21   -1    0    0  501  503 -0.00000000000E+00 -0.00000000000E+00 -0.25071036694E+03  0.25071036694E+03  0.00000000000E+00 0.  1.
          6    2    1    2  501    0 -0.21487167203E+03 -0.11208070577E+03 -0.95464172019E+02  0.31233302732E+03  0.17235600299E+03 0.  0.
         24    2    3    3    0    0 -0.14735436151E+03 -0.85971510899E+02 -0.13297501224E+03  0.23066644657E+03  0.80126444763E+02 0.  0.
         -6    2    1    2    0  502  0.21487167203E+03  0.11208070577E+03  0.42817934117E+03  0.52180287570E+03  0.17380671114E+03 0.  0.
        -24    2    5    5    0    0  0.18913904996E+03  0.83416351875E+02  0.21967124457E+03  0.30971438151E+03  0.70254355313E+02 0.  0.
          5    1    3    3  501    0 -0.67517310519E+02 -0.26109194872E+02  0.37510840225E+02  0.81666580748E+02  0.47000000000E+01 0. -1.
        -13    1    4    4    0    0 -0.10067776001E+03 -0.27308619373E+02 -0.41181603205E+02  0.11215032989E+03  0.00000000000E+00 0.  1.
         14    1    4    4    0    0 -0.46676601504E+02 -0.58662891526E+02 -0.91793409040E+02  0.11851611668E+03  0.00000000000E+00 0. -1.
         -5    1    5    5    0  502  0.25732622072E+02  0.28664353896E+02  0.20850809659E+03  0.21208849419E+03  0.47000000000E+01 0.  1.
         11    1    6    6    0    0  0.82088145133E+02 -0.49743589465E+00  0.89457542186E+02  0.12141401430E+03  0.00000000000E+00 0. -1.
        -12    1    6    6    0    0  0.10705090483E+03  0.83913787770E+02  0.13021370239E+03  0.18830036721E+03  0.00000000000E+00 0.  1.
</event>
<event>
12    1  0.8453150E-002  0.3121906E+03  0.7818608E-02  0.1079327E+00
         21   -1    0    0  503  502  0.00000000000E+00  0.00000000000E+00  0.22721987138E+03  0.22721987138E+03  0.00000000000E+00 0. -1.
         21   -1    0    0  501  503 -0.00000000000E+00 -0.00000000000E+00 -0.43915152753E+03  0.43915152753E+03  0.00000000000E+00 0. -1.
          6    2    1    2  501    0 -0.12456296830E+03 -0.22878130055E+03 -0.54361088546E+02  0.31666944654E+03  0.17166127656E+03 0.  0.
         24    2    3    3    0    0 -0.70716506098E+02 -0.16267666369E+03 -0.10127362588E+03  0.21924182897E+03  0.79662482565E+02 0.  0.
         -6    2    1    2    0  502  0.12456296830E+03  0.22878130055E+03 -0.15757056760E+03  0.34970195237E+03  0.17206439249E+03 0.  0.
        -24    2    5    5    0    0  0.11275537961E+03  0.25032717135E+03 -0.13453544084E+03  0.31569679446E+03  0.78658838304E+02 0.  0.
          5    1    3    3  501    0 -0.53846462204E+02 -0.66104636859E+02  0.46912537331E+02  0.97427617568E+02  0.47000000000E+01 0. -1.
        -11    1    4    4    0    0 -0.13798921411E+02  0.34399171126E+01  0.36543703796E+01  0.14683245033E+02  0.00000000000E+00 0.  1.
         12    1    4    4    0    0 -0.56917584688E+02 -0.16611658081E+03 -0.10492799626E+03  0.20455858394E+03  0.00000000000E+00 0. -1.
         -5    1    5    5    0  502  0.11807588697E+02 -0.21545870802E+02 -0.23035126764E+02  0.34005157911E+02  0.47000000000E+01 0.  1.
         13    1    6    6    0    0  0.95151722051E+02  0.14581724147E+03 -0.53076682921E+02  0.18202651562E+03  0.00000000000E+00 0. -1.
        -14    1    6    6    0    0  0.17603657554E+02  0.10450992989E+03 -0.81458757919E+02  0.13367027884E+03  0.00000000000E+00 0.  1.
</event>
<event>
12    1  0.8453150E-002  0.1731387E+03  0.7818608E-02  0.1175908E+00
         21   -1    0    0  503  502  0.00000000000E+00  0.00000000000E+00  0.26098354921E+03  0.26098354921E+03  0.00000000000E+00 0.  1.
         21   -1    0    0  501  503 -0.00000000000E+00 -0.00000000000E+00 -0.16143901885E+03  0.16143901885E+03  0.00000000000E+00 0.  1.
          6    2    1    2  501    0  0.71679252939E+01  0.30792841253E+00  0.16665363334E+03  0.23673290450E+03  0.16798083400E+03 0.  0.
         24    2    3    3    0    0 -0.10359209650E+02 -0.13509935569E+02  0.14848466716E+02  0.83223841447E+02  0.80099308597E+02 0.  0.
         -6    2    1    2    0  502 -0.71679252939E+01 -0.30792841253E+00 -0.67109102984E+02  0.18568966355E+03  0.17299001553E+03 0.  0.
        -24    2    5    5    0    0  0.45556526652E+02  0.54256990273E+01 -0.88801365409E+02  0.12819717217E+03  0.80274511041E+02 0.  0.
          5    1    3    3  501    0  0.17527134944E+02  0.13817863982E+02  0.15180516663E+03  0.15350906305E+03  0.47000000000E+01 0. -1.
        -11    1    4    4    0    0 -0.42979849300E+02  0.30760101844E+01  0.17555552927E+02  0.46528773067E+02  0.00000000000E+00 0.  1.
         12    1    4    4    0    0  0.32620639649E+02 -0.16585945754E+02 -0.27070862109E+01  0.36695068380E+02  0.00000000000E+00 0. -1.
         -5    1    5    5    0  502 -0.52724451946E+02 -0.57336274398E+01  0.21692262425E+02  0.57492491386E+02  0.47000000000E+01 0.  1.
         11    1    6    6    0    0  0.64825880062E+02  0.19771294593E+01 -0.41479019820E+02  0.76985796430E+02  0.00000000000E+00 0. -1.
        -12    1    6    6    0    0 -0.19269353410E+02  0.34485695680E+01 -0.47322345589E+02  0.51211375738E+02  0.00000000000E+00 0.  1.
</event>
<event>
12    1  0.8453150E-002  0.2470960E+03  0.7818608E-02  0.1115867E+00
         21   -1    0    0  501  502  0.00000000000E+00  0.00000000000E+00  0.97142340445E+02  0.97142340445E+02  0.00000000000E+00 0. -1.
         21   -1    0    0  502  503 -0.00000000000E+00 -0.00000000000E+00 -0.66244447981E+03  0.66244447981E+03  0.00000000000E+00 0.  1.
         -6    2    1    2    0  503  0.16350431556E+03  0.62056984866E+02 -0.38407596542E+03  0.45669551008E+03  0.17456148239E+03 0.  0.
        -24    2    3    3    0    0  0.62666593551E+02 -0.40575238244E+00 -0.77265813391E+02  0.12772074036E+03  0.80095661659E+02 0.  0.
          6    2    1    2  501    0 -0.16350431556E+03 -0.62056984866E+02 -0.18122617395E+03  0.30289131018E+03  0.16827206863E+03 0.  0.
         24    2    5    5    0    0 -0.11183100213E+03 -0.10674790667E+03 -0.12535959983E+03  0.21451385877E+03  0.79999235754E+02 0.  0.
          5    1    5    5  501    0 -0.51673313435E+02  0.44690921805E+02 -0.55866574118E+02  0.88377451405E+02  0.47000000000E+01 0. -1.
        -13    1    6    6    0    0  0.48325911663E+01 -0.31825164859E+02 -0.87802344170E+01  0.33365964277E+02  0.00000000000E+00 0.  1.
         14    1    6    6    0    0 -0.11666359329E+03 -0.74922741811E+02 -0.11657936541E+03  0.18114789450E+03  0.00000000000E+00 0. -1.
         -5    1    3    3    0  503  0.10083772201E+03  0.62462737248E+02 -0.30681015203E+03  0.32897476972E+03  0.47000000000E+01 0.  1.
         11    1    4    4    0    0  0.38908358504E+02 -0.38656724170E+02 -0.54275615931E+02  0.77162459588E+02  0.00000000000E+00 0. -1.
        -12    1    4    4    0    0  0.23758235047E+02  0.38250971788E+02 -0.22990197461E+02  0.50558280771E+02  0.00000000000E+00 0.  1.
</event>
<event>
12    1  0.8453150E-002  0.2294240E+03  0.7818608E-02  0.1127558E+00
         21   -1    0    0  501  502  0.00000000000E+00  0.00000000000E+00  0.26143149185E+02  0.26143149185E+02  0.00000000000E+00 0.  1.
         21   -1    0    0  502  503 -0.00000000000E+00 -0.00000000000E+00 -0.19900404431E+04  0.19900404431E+04  0.00000000000E+00 0.  1.
         -6    2    1    2    0  503 -0.13970228852E+03 -0.59836647709E+02 -0.10070271370E+04  0.10321938254E+04  0.16799787149E+03 0.  0.
        -24    2    3    3    0    0 -0.15582887588E+03 -0.16428237229E+02 -0.70182302278E+03  0.72346093402E+03  0.79294654338E+02 0.  0.
          6    2    1    2  501    0  0.13970228852E+03  0.59836647709E+02 -0.95687015692E+03  0.98398976684E+03  0.17186683858E+03 0.  0.
         24    2    5    5    0    0  0.15494280777E+03  0.69119120491E+02 -0.94131421407E+03  0.95985441754E+03  0.80394817976E+02 0.  0.
          5    1    5    5  501    0 -0.15240519247E+02 -0.92824727825E+01 -0.15555942853E+02  0.24135349302E+02  0.47000000000E+01 0. -1.
        -13    1    6    6    0    0  0.76043520678E+02  0.52182885211E+02 -0.31072997256E+03  0.32412773160E+03  0.00000000000E+00 0.  1.
         14    1    6    6    0    0  0.78899287089E+02  0.16936235280E+02 -0.63058424151E+03  0.63572668594E+03  0.00000000000E+00 0. -1.
         -5    1    3    3    0  503  0.16126587358E+02 -0.43408410479E+02 -0.30520411417E+03  0.30873289140E+03  0.47000000000E+01 0.  1.
         11    1    4    4    0    0 -0.72383117715E+02  0.31749426295E+02 -0.33431048986E+03  0.34352706652E+03  0.00000000000E+00 0. -1.
        -12    1    4    4    0    0 -0.83445758163E+02 -0.48177663525E+02 -0.36751253293E+03  0.37993386750E+03  0.00000000000E+00 0.  1.
</event>
<event>
12    1  0.8453150E-002  0.1962601E+03  0.7818608E-02  0.1154139E+00
         21   -1    0    0  501  502  0.00000000000E+00  0.00000000000E+00  0.80978693493E+03  0.80978693493E+03  0.00000000000E+00 0.  1.
         21   -1    0    0  502  503 -0.00000000000E+00 -0.00000000000E+00 -0.14131742900E+03  0.14131742900E+03  0.00000000000E+00 0.  1.
         -6    2    1    2    0  503 -0.12095918454E+02 -0.81089860677E+02 -0.57365359486E+02  0.19920391506E+03  0.17224847912E+03 0.  0.
        -24    2    3    3    0    0 -0.28073396014E+02 -0.38381128405E+02 -0.99343416236E+02  0.13704635036E+03  0.81555877873E+02 0.  0.
          6    2    1    2  501    0  0.12095918454E+02  0.81089860677E+02  0.72583486542E+03  0.75190044886E+03  0.17831476775E+03 0.  0.
         24    2    5    5    0    0 -0.11571081585E+02  0.11772068070E+03  0.44362860567E+03  0.46630561889E+03  0.81501790442E+02 0.  0.
          5    1    5    5  501    0  0.23667000039E+02 -0.36630820027E+02  0.28220625974E+03  0.28559482997E+03  0.47000000000E+01 0. -1.
        -13    1    6    6    0    0 -0.37092680382E+01  0.10448078818E+03  0.43735755112E+03  0.44967946505E+03  0.00000000000E+00 0.  1.
         14    1    6    6    0    0 -0.78618135471E+01  0.13239892525E+02  0.62710545529E+01  0.16626153841E+02  0.00000000000E+00 0. -1.
         -5    1    3    3    0  503  0.15977477560E+02 -0.42708732272E+02  0.41978056750E+02  0.62157564704E+02  0.47000000000E+01 0.  1.
         13    1    4    4    0    0  0.26909967490E+02 -0.25285496074E+02 -0.29933849282E+02  0.47534597872E+02  0.00000000000E+00 0. -1.
        -14    1    4    4    0    0 -0.54983363504E+02 -0.13095632331E+02 -0.69409566954E+02  0.89511752486E+02  0.00000000000E+00 0.  1.
</event>
<event>
12    1  0.8453150E-002  0.1830366E+03  0.7818608E-02  0.1165033E+00
         21   -1    0    0  503  502  0.00000000000E+00  0.00000000000E+00  0.67973080612E+02  0.67973080612E+02  0.00000000000E+00 0. -1.
         21   -1    0    0  501  503 -0.00000000000E+00 -0.00000000000E+00 -0.83690589997E+03  0.83690589997E+03  0.00000000000E+00 0. -1.
          6    2    1    2  501    0  0.29728392565E+02 -0.53609874833E+02 -0.67555748739E+03  0.69991451241E+03  0.17246625728E+03 0.  0.
         24    2    3    3    0    0  0.74353216969E+02 -0.11140811905E+02 -0.53712484067E+03  0.54832070007E+03  0.80622435465E+02 0.  0.
         -6    2    1    2    0  502 -0.29728392565E+02  0.53609874833E+02 -0.93375331963E+02  0.20496446817E+03  0.17185367203E+03 0.  0.
        -24    2    5    5    0    0 -0.60198193020E+01  0.23435213054E+02  0.19182684322E+02  0.85951848297E+02  0.80214072410E+02 0.  0.
          5    1    3    3  501    0 -0.44624824404E+02 -0.42469062929E+02 -0.13843264673E+03  0.15159381234E+03  0.47000000000E+01 0. -1.
        -11    1    4    4    0    0  0.14060433254E+02 -0.11767976149E+02 -0.17959318447E+02  0.25665505353E+02  0.00000000000E+00 0.  1.
         12    1    4    4    0    0  0.60292783715E+02  0.62716424426E+00 -0.51916552222E+03  0.52265519472E+03  0.00000000000E+00 0. -1.
         -5    1    5    5    0  502 -0.23708573263E+02  0.30174661779E+02 -0.11255801629E+03  0.11901261988E+03  0.47000000000E+01 0.  1.
         11    1    6    6    0    0  0.28657049889E+02 -0.10754284461E+02 -0.59040616045E+01  0.31172729846E+02  0.00000000000E+00 0. -1.
        -12    1    6    6    0    0 -0.34676869191E+02  0.34189497515E+02  0.25086745926E+02  0.54779118452E+02  0.00000000000E+00 0.  1.
</event>
<event>
12    1  0.8453150E-002  0.1847942E+03  0.7818608E-02  0.1163742E+00
         21   -1    0    0  501  502  0.00000000000E+00  0.00000000000E+00  0.65376113482E+02  0.65376113482E+02  0.00000000000E+00 0. -1.
         21   -1    0    0  502  503 -0.00000000000E+00 -0.00000000000E+00 -0.60688168701E+03  0.60688168701E+03  0.00000000000E+00 0. -1.
         -6    2    1    2    0  503 -0.61495558698E+02 -0.24544637258E+01 -0.40190602653E+03  0.44235434360E+03  0.17424460683E+03 0.  0.
        -24    2    3    3    0    0 -0.33051072487E+02 -0.15502708012E+02 -0.40125574007E+03  0.41070219758E+03  0.79607906734E+02 0.  0.
          6    2    1    2  501    0  0.61495558698E+02  0.24544637258E+01 -0.13959954701E+03  0.22990345690E+03  0.17198790026E+03 0.  0.
         24    2    5    5    0    0 -0.30556075634E+02 -0.46222018009E+01 -0.50885160882E+02  0.10177885003E+03  0.82550567587E+02 0.  0.
          5    1    5    5  501    0  0.92051634331E+02  0.70766655267E+01 -0.88714386125E+02  0.12812460686E+03  0.47000000000E+01 0. -1.
        -11    1    6    6    0    0 -0.11141893651E+02 -0.40335711177E+02 -0.43690618203E+02  0.60497781028E+02  0.00000000000E+00 0.  1.
         12    1    6    6    0    0 -0.19414181982E+02  0.35713509376E+02 -0.71945426783E+01  0.41281069007E+02  0.00000000000E+00 0. -1.
         -5    1    3    3    0  503 -0.28444486211E+02  0.13048244286E+02 -0.65028645681E+00  0.31652146013E+02  0.47000000000E+01 0.  1.
         13    1    4    4    0    0 -0.30527851085E+01  0.17153187988E+02 -0.29567114992E+03  0.29618403105E+03  0.00000000000E+00 0. -1.
        -14    1    4    4    0    0 -0.29998287378E+02 -0.32655896000E+02 -0.10558459015E+03  0.11451816653E+03  0.00000000000E+00 0.  1.
</event>
<event>
12    1  0.8453150E-002  0.2320183E+03  0.7818608E-02  0.1125240E+00
         21   -1    0    0  501  502  0.00000000000E+00  0.00000000000E+00  0.39586983510E+02  0.39586983510E+02  0.00000000000E+00 0. -1.
         21   -1    0    0  502  503 -0.00000000000E+00 -0.00000000000E+00 -0.14350233728E+04  0.14350233728E+04  0.00000000000E+00 0.  1.
         -6    2    1    2    0  503  0.11175180746E+02 -0.15484736334E+03 -0.52860522919E+03  0.57728326783E+03  0.17242358421E+03 0.  0.
        -24    2    3    3    0    0  0.89861589921E+01 -0.17722676422E+03 -0.37780804578E+03  0.42474635451E+03  0.78615960239E+02 0.  0.
          6    2    1    2  501    0 -0.11175180746E+02  0.15484736334E+03 -0.86683116014E+03  0.89732708852E+03  0.17232832908E+03 0.  0.
         24    2    5    5    0    0  0.43815189866E+02  0.85378711158E+02 -0.66591662713E+03  0.67769427205E+03  0.81334352513E+02 0.  0.
          5    1    5    5  501    0 -0.54990370612E+02  0.69468652183E+02 -0.20091453301E+03  0.21963281647E+03  0.47000000000E+01 0. -1.
        -13    1    6    6    0    0  0.51823831671E+02  0.97991653906E+02 -0.58843742051E+03  0.59878766823E+03  0.00000000000E+00 0.  1.
         14    1    6    6    0    0 -0.80086418055E+01 -0.12612942748E+02 -0.77479206621E+02  0.78906603823E+02  0.00000000000E+00 0. -1.
         -5    1    3    3    0  503  0.21890217539E+01  0.22379400883E+02 -0.15079718341E+03  0.15253691332E+03  0.47000000000E+01 0.  1.
         13    1    4    4    0    0 -0.23830920813E+02 -0.63174415156E+02 -0.83319659642E+02  0.10724311260E+03  0.00000000000E+00 0. -1.
        -14    1    4    4    0    0  0.32817079805E+02 -0.11405234907E+03 -0.29448838614E+03  0.31750324191E+03  0.00000000000E+00 0.  1.
</event>
<event>
12    1  0.8453150E-002  0.1786166E+03  0.7818608E-02  0.1169254E+00
         21   -1    0    0  503  502  0.00000000000E+00  0.00000000000E+00  0.34697530248E+03  0.34697530248E+03  0.00000000000E+00 0. -1.
         21   -1    0    0  501  503 -0.00000000000E+00 -0.00000000000E+00 -0.19399261976E+03  0.19399261976E+03  0.00000000000E+00 0.  1.
          6    2    1    2  501    0 -0.72208377882E+00  0.45782054265E+02 -0.11993941722E+03  0.21479255188E+03  0.17220295770E+03 0.  0.
         24    2    3    3    0    0  0.55654404385E+02  0.11126954017E+02 -0.26645831518E+02  0.10031518501E+03  0.78306539786E+02 0.  0.
         -6    2    1    2    0  502  0.72208377882E+00 -0.45782054265E+02  0.27292209995E+03  0.32617537037E+03  0.17264814420E+03 0.  0.
        -24    2    5    5    0    0  0.56226605197E+02 -0.37094047625E+02  0.96322663874E+02  0.14079553279E+03  0.77510818456E+02 0.  0.
          5    1    3    3  501    0 -0.56376488164E+02  0.34655100248E+02 -0.93293585706E+02  0.11447736687E+03  0.47000000000E+01 0. -1.
        -11    1    4    4    0    0  0.15312216346E+02  0.42761004025E+02 -0.13671609041E+02  0.47432903436E+02  0.00000000000E+00 0.  1.
         12    1    4    4    0    0  0.40342188039E+02 -0.31634050007E+02 -0.12974222477E+02  0.52882281575E+02  0.00000000000E+00 0. -1.
         -5    1    5    5    0  502 -0.55504521418E+02 -0.86880066404E+01  0.17659943607E+03  0.18537983757E+03  0.47000000000E+01 0.  1.
         13    1    6    6    0    0  0.64936053549E+02 -0.47596408700E+02  0.98241185173E+02  0.12701747768E+03  0.00000000000E+00 0. -1.
        -14    1    6    6    0    0 -0.87094483521E+01  0.10502361075E+02 -0.19185212996E+01  0.13778055114E+02  0.00000000000E+00 0.  1.
</event>
<event>
12    1  0.8453150E-002  0.1880112E+03  0.7818608E-02  0.1162609E+00
         21   -1    0    0  503  502  0.00000000000E+00  0.00000000000E+00  0.24252586197E+02  0.24252586197E+02  0.00000000000E+00 0.  1.
         21   -1    0    0  501  503 -0.00000000000E+00 -0.00000000000E+00 -0.14014398582E+04  0.14014398582E+04  0.00000000000E+00 0.  1.
          6    2    1    2  501    0 -0.12736462951E+02  0.43218386546E+02 -0.62183972269E+03  0.64964056929E+03  0.18253268783E+03 0.  0.
         24    2    3    3    0    0  0.31568944310E+02 -0.21929060342E+02 -0.18079574653E+03  0.20159030665E+03  0.80461592310E+02 0.  0.
         -6    2    1    2    0  502  0.12736462951E+02 -0.43218386546E+02 -0.75534754931E+03  0.77605187510E+03  0.17226881953E+03 0.  0.
        -24    2    5    5    0    0  0.82486250375E+01  0.36396886292E+02 -0.26583192088E+03  0.28006158001E+03  0.79844256453E+02 0.  0.
          5    1    3    3  501    0 -0.44305407261E+02  0.65147446888E+02 -0.44104397616E+03  0.44805026265E+03  0.47000000000E+01 0. -1.
        -11    1    4    4    0    0 -0.20186213487E+02 -0.29946224225E+02 -0.86298999737E+02  0.93550932203E+02  0.00000000000E+00 0.  1.
         12    1    4    4    0    0  0.51755157797E+02  0.80171638834E+01 -0.94496746794E+02  0.10803937444E+03  0.00000000000E+00 0. -1.
         -5    1    5    5    0  502  0.44878379132E+01 -0.79615272838E+02 -0.48951562842E+03  0.49599029510E+03  0.47000000000E+01 0.  1.
         13    1    6    6    0    0  0.76637642091E+01 -0.19536955138E+02 -0.24166673284E+02  0.32007092894E+02  0.00000000000E+00 0. -1.
        -14    1    6    6    0    0  0.58486082838E+00  0.55933841430E+02 -0.24166524760E+03  0.24805448711E+03  0.00000000000E+00 0.  1.
</event>
<event>
12    1  0.8453150E-002  0.1771008E+03  0.7818608E-02  0.1171073E+00
         21   -1    0    0  503  502  0.00000000000E+00  0.00000000000E+00  0.18086414497E+02  0.18086414497E+02  0.00000000000E+00 0.  1.
         21   -1    0    0  501  503 -0.00000000000E+00 -0.00000000000E+00 -0.17181585992E+04  0.17181585992E+04  0.00000000000E+00 0.  1.
          6    2    1    2  501    0 -0.15052116377E+02  0.30619032388E+02 -0.86736049992E+03  0.88490875387E+03  0.17200341422E+03 0.  0.
         24    2    3    3    0    0 -0.37483917830E+02  0.77396708822E+02 -0.50428066854E+03  0.51811127476E+03  0.82127983870E+02 0.  0.
         -6    2    1    2    0  502  0.15052116377E+02 -0.30619032388E+02 -0.83271168480E+03  0.85133625984E+03  0.17378315790E+03 0.  0.
        -24    2    5    5    0    0 -0.40141868840E+02 -0.53547542214E+02 -0.66551613811E+03  0.67371719161E+03  0.80649955213E+02 0.  0.
          5    1    3    3  501    0  0.22431801453E+02 -0.46777676434E+02 -0.36307983137E+03  0.36679747911E+03  0.47000000000E+01 0. -1.
        -13    1    4    4    0    0 -0.27948585472E+01  0.66986209576E+02 -0.43297437085E+03  0.43813441924E+03  0.00000000000E+00 0.  1.
         14    1    4    4    0    0 -0.34689059283E+02  0.10410499246E+02 -0.71306297688E+02  0.79976855518E+02  0.00000000000E+00 0. -1.
         -5    1    5    5    0  502  0.55193985217E+02  0.22928509825E+02 -0.16719554668E+03  0.17761906823E+03  0.47000000000E+01 0.  1.
         11    1    6    6    0    0  0.16327617953E+02 -0.34106027246E+02 -0.38852766191E+03  0.39036336441E+03  0.00000000000E+00 0. -1.
        -12    1    6    6    0    0 -0.56469486793E+02 -0.19441514968E+02 -0.27698847620E+03  0.28335382720E+03  0.00000000000E+00 0.  1.
</event>
<event>
12    1  0.8453150E-002  0.2003596E+03  0.7818608E-02  0.1149578E+00
         21   -1    0    0  503  502  0.00000000000E+00  0.00000000000E+00  0.28156282451E+03  0.28156282451E+03  0.00000000000E+00 0. -1.
         21   -1    0    0  501  503 -0.00000000000E+00 -0.00000000000E+00 -0.17293435131E+03  0.17293435131E+03  0.00000000000E+00 0. -1.
          6    2    1    2  501    0 -0.19368749797E+00 -0.10202400945E+03 -0.41725855235E+02  0.20399690590E+03  0.17165300640E+03 0.  0.
         24    2    3    3    0    0  0.46534117143E+02 -0.37223394080E+02  0.20431622920E+02  0.10266453413E+03  0.81065098707E+02 0.  0.
         -6    2    1    2    0  502  0.19368749797E+00  0.10202400945E+03  0.15035432844E+03  0.25050026992E+03  0.17243846766E+03 0.  0.
        -24    2    5    5    0    0  0.21139672935E+01  0.24804337394E+02  0.15137420796E+03  0.17310714761E+03  0.80201058020E+02 0.  0.
          5    1    3    3  501    0 -0.46727804640E+02 -0.64800615365E+02 -0.62157478155E+02  0.10133237177E+03  0.47000000000E+01 0. -1.
        -11    1    4    4    0    0 -0.50039817136E+01 -0.16073466869E+02  0.40175764041E+02  0.43560167429E+02  0.00000000000E+00 0.  1.
         12    1    4    4    0    0  0.51538098856E+02 -0.21149927212E+02 -0.19744141121E+02  0.59104366703E+02  0.00000000000E+00 0. -1.
         -5    1    5    5    0  502 -0.19202797956E+01  0.77219672051E+02 -0.10198795186E+01  0.77393122307E+02  0.47000000000E+01 0.  1.
         11    1    6    6    0    0  0.28464513044E+02  0.43056578111E+02  0.10043543755E+03  0.11292198430E+03  0.00000000000E+00 0. -1.
        -12    1    6    6    0    0 -0.26350545750E+02 -0.18252240717E+02  0.50938770406E+02  0.60185163313E+02  0.00000000000E+00 0.  1.
</event>
<event>
12    1  0.8453150E-002  0.1842866E+03  0.7818608E-02  0.1163878E+00
         21   -1    0    0  501  502  0.00000000000E+00  0.00000000000E+00  0.76423192860E+02  0.76423192860E+02  0.00000000000E+00 0. -1.
         21   -1    0    0  502  503 -0.00000000000E+00 -0.00000000000E+00 -0.44321571089E+03  0.44321571089E+03  0.00000000000E+00 0. -1.
         -6    2    1    2    0  503 -0.43115164735E+02 -0.49106036303E+02 -0.19154472780E+03  0.26532936541E+03  0.17158079487E+03 0.  0.
        -24    2    3    3    0    0 -0.47305396879E+02 -0.97516844985E+02 -0.13002414596E+03  0.18679251780E+03  0.78979937601E+02 0.  0.
          6    2    1    2  501    0  0.43115164735E+02  0.49106036303E+02 -0.17524779023E+03  0.25430953834E+03  0.17231144210E+03 0.  0.
         24    2    5    5    0    0  0.68601582904E+02  0.32018265693E+02 -0.43857793248E+02  0.11930223957E+03  0.81105929636E+02 0.  0.
          5    1    5    5  501    0 -0.25486418169E+02  0.17087770610E+02 -0.13138999698E+03  0.13500729877E+03  0.47000000000E+01 0. -1.
        -13    1    6    6    0    0  0.52766615025E+02 -0.19857673847E+02 -0.17754888923E+02  0.59109042899E+02  0.00000000000E+00 0.  1.
         14    1    6    6    0    0  0.15834967879E+02  0.51875939540E+02 -0.26102904324E+02  0.60193196668E+02  0.00000000000E+00 0. -1.
         -5    1    3    3    0  503  0.41902321442E+01  0.48410808681E+02 -0.61520581844E+02  0.78536847613E+02  0.47000000000E+01 0.  1.
         13    1    4    4    0    0  0.15387708316E+02 -0.61668797954E+00 -0.40101136280E+01  0.15913606838E+02  0.00000000000E+00 0. -1.
        -14    1    4    4    0    0 -0.62693105196E+02 -0.96900157005E+02 -0.12601403233E+03  0.17087891096E+03  0.00000000000E+00 0.  1.
</event>
<event>
12    1  0.8453150E-002  0.2325203E+03  0.7818608E-02  0.1124898E+00
         21   -1    0    0  501  502  0.00000000000E+00  0.00000000000E+00  0.15225653213E+03  0.15225653213E+03  0.00000000000E+00 0.  1.
         21   -1    0    0  502  503 -0.00000000000E+00 -0.00000000000E+00 -0.38815201999E+03  0.38815201999E+03  0.00000000000E+00 0.  1.
         -6    2    1    2    0  503  0.11654787371E+02  0.15699514522E+03 -0.38866369037E+02  0.23563620566E+03  0.17096934545E+03 0.  0.
        -24    2    3    3    0    0 -0.36997585759E+02  0.12714355804E+03  0.16876034165E+02  0.15571451785E+03  0.80174215532E+02 0.  0.
          6    2    1    2  501    0 -0.11654787371E+02 -0.15699514522E+03 -0.19702911883E+03  0.30477234646E+03  0.17112100925E+03 0.  0.
         24    2    5    5    0    0 -0.39800748578E+02 -0.11583320487E+03 -0.59958707355E+02  0.15883781262E+03  0.81443067177E+02 0.  0.
          5    1    5    5  501    0  0.28145961207E+02 -0.41161940348E+02 -0.13707041147E+03  0.14593453384E+03  0.47000000000E+01 0. -1.
        -11    1    6    6    0    0  0.23237117035E+02 -0.14674783188E+02 -0.15978611208E+02  0.31790389835E+02  0.00000000000E+00 0.  1.
         12    1    6    6    0    0 -0.63037865613E+02 -0.10115842169E+03 -0.43980096147E+02  0.12704742278E+03  0.00000000000E+00 0. -1.
         -5    1    3    3    0  503  0.48652373130E+02  0.29851587184E+02 -0.55742403203E+02  0.79921687816E+02  0.47000000000E+01 0.  1.
         11    1    4    4    0    0 -0.19025775077E+02  0.73757805123E+01 -0.20544815787E+02  0.28956376001E+02  0.00000000000E+00 0. -1.
        -12    1    4    4    0    0 -0.17971810682E+02  0.11976777753E+03  0.37420849952E+02  0.12675814184E+03  0.00000000000E+00 0.  1.
</event>
<event>
12    1  0.8453150E-002  0.1922368E+03  0.7818608E-02  0.1156663E+00
         21   -1    0    0  503  502  0.00000000000E+00  0.00000000000E+00  0.55147721898E+03  0.55147721898E+03  0.00000000000E+00 0. -1.
         21   -1    0    0  501  503 -0.00000000000E+00 -0.00000000000E+00 -0.23686606429E+03  0.23686606429E+03  0.00000000000E+00 0. -1.
          6    2    1    2  501    0  0.39286465096E+02  0.75588715831E+02 -0.17669093823E+03  0.26110281848E+03  0.17233082680E+03 0.  0.
         24    2    3    3    0    0 -0.41896238937E+02  0.32695769100E+02 -0.67914211018E+02  0.11867774100E+03  0.81533784386E+02 0.  0.
         -6    2    1    2    0  502 -0.39286465096E+02 -0.75588715831E+02  0.49130209292E+03  0.52724046479E+03  0.17131164849E+03 0.  0.
        -24    2    5    5    0    0 -0.36494926134E+02 -0.11460579334E+03  0.43232168077E+03  0.45631159870E+03  0.82776034856E+02 0.  0.
          5    1    3    3  501    0  0.81182704033E+02  0.42892946730E+02 -0.10877672721E+03  0.14242507748E+03  0.47000000000E+01 0. -1.
        -13    1    4    4    0    0 -0.38704909637E+02  0.57951008044E+02 -0.37917710288E+02  0.79335629555E+02  0.00000000000E+00 0.  1.
         14    1    4    4    0    0 -0.31913292998E+01 -0.25255238944E+02 -0.29996500731E+02  0.39342111444E+02  0.00000000000E+00 0. -1.
         -5    1    5    5    0  502 -0.27915389623E+01  0.39017077511E+02  0.58980412148E+02  0.70928866087E+02  0.47000000000E+01 0.  1.
         11    1    6    6    0    0 -0.33358413858E+02 -0.94945094012E+02  0.42210197362E+03  0.43393251870E+03  0.00000000000E+00 0. -1.
        -12    1    6    6    0    0 -0.31365122755E+01 -0.19660699331E+02  0.10219707145E+02  0.22379079998E+02  0.00000000000E+00 0.  1.
</event>
<event>
12    1  0.8453150E-002  0.2231342E+03  0.7818608E-02  0.1131867E+00
         21   -1    0    0  501  502  0.00000000000E+00  0.00000000000E+00  0.31842856890E+03  0.31842856890E+03  0.00000000000E+00 0. -1.
         21   -1    0    0  502  503 -0.00000000000E+00 -0.00000000000E+00 -0.48336126770E+03  0.48336126770E+03  0.00000000000E+00 0.  1.
         -6    2    1    2    0  503 -0.96546254422E+01 -0.14119788074E+03 -0.41287680715E+03  0.46931452559E+03  0.17250742804E+03 0.  0.
        -24    2    3    3    0    0 -0.40050226761E+02 -0.22304491850E+02 -0.23926372016E+03  0.25665723210E+03  0.80773114231E+02 0.  0.
          6    2    1    2  501    0  0.96546254422E+01  0.14119788074E+03  0.24794410835E+03  0.33247531101E+03  0.17039218951E+03 0.  0.
         24    2    5    5    0    0 -0.34745792986E+02  0.79848476685E+02  0.66110635001E+02  0.13544574834E+03  0.79949267192E+02 0.  0.
          5    1    5    5  501    0  0.44400418428E+02  0.61349404057E+02  0.18183347334E+03  0.19702956266E+03  0.47000000000E+01 0. -1.
        -11    1    6    6    0    0 -0.36615469526E+02  0.88152403194E+02  0.76276523055E+02  0.12218693370E+03  0.00000000000E+00 0.  1.
         12    1    6    6    0    0  0.18696765398E+01 -0.83039265090E+01 -0.10165888053E+02  0.13258814643E+02  0.00000000000E+00 0. -1.
         -5    1    3    3    0  503  0.30395601319E+02 -0.11889338889E+03 -0.17361308698E+03  0.21265729349E+03  0.47000000000E+01 0.  1.
         13    1    4    4    0    0 -0.53120633992E+02 -0.25115827373E+02 -0.94505523737E+02  0.11128297514E+03  0.00000000000E+00 0. -1.
        -14    1    4    4    0    0  0.13070407231E+02  0.28113355237E+01 -0.14475819643E+03  0.14537425695E+03  0.00000000000E+00 0.  1.
</event>
<event>
12    1  0.8453150E-002  0.2034256E+03  0.7818608E-02  0.1147226E+00
         21   -1    0    0  503  502  0.00000000000E+00  0.00000000000E+00  0.10446271070E+04  0.10446271070E+04  0.00000000000E+00 0.  1.
         21   -1    0    0  501  503 -0.00000000000E+00 -0.00000000000E+00 -0.78351942808E+02  0.78351942808E+02  0.00000000000E+00 0.  1.
          6    2    1    2  501    0  0.10582675799E+03 -0.74737019521E+01  0.87681457348E+02  0.22151755879E+03  0.17357082693E+03 0.  0.
         24    2    3    3    0    0  0.35488823784E+02  0.37916413208E+01 -0.19674544950E+02  0.92592254147E+02  0.83140872328E+02 0.  0.
         -6    2    1    2    0  502 -0.10582675799E+03  0.74737019521E+01  0.87859370688E+03  0.90146149106E+03  0.17161223488E+03 0.  0.
        -24    2    5    5    0    0 -0.11018023486E+03 -0.45847396892E+02  0.72255865051E+03  0.73644294313E+03  0.77559893671E+02 0.  0.
          5    1    3    3  501    0  0.70337934204E+02 -0.11265343273E+02  0.10735600230E+03  0.12892530464E+03  0.47000000000E+01 0. -1.
        -13    1    4    4    0    0  0.57405908053E+02 -0.16595033336E+02 -0.72935634059E+01  0.60199912608E+02  0.00000000000E+00 0.  1.
         14    1    4    4    0    0 -0.21917084269E+02  0.20386674656E+02 -0.12380981544E+02  0.32392341539E+02  0.00000000000E+00 0. -1.
         -5    1    5    5    0  502  0.43534768706E+01  0.53321098844E+02  0.15603505637E+03  0.16501854792E+03  0.47000000000E+01 0.  1.
         11    1    6    6    0    0 -0.41494049126E+02 -0.36252054070E+02  0.15188387517E+03  0.16156942494E+03  0.00000000000E+00 0. -1.
        -12    1    6    6    0    0 -0.68686185732E+02 -0.95953428214E+01  0.57067477534E+03  0.57487351820E+03  0.00000000000E+00 0.  1.
</event>
<event>
12    1  0.8453150E-002  0.1904235E+03  0.7818608E-02  0.1159637E+00
         21   -1    0    0  503  502  0.00000000000E+00  0.00000000000E+00  0.26851260465E+03  0.26851260465E+03  0.00000000000E+00 0.  1.
         21   -1    0    0  501  503 -0.00000000000E+00 -0.00000000000E+00 -0.22161901110E+03  0.22161901110E+03  0.00000000000E+00 0. -1.
          6    2    1    2  501    0  0.67272221332E+02  0.21849627637E+02 -0.13362413808E+03  0.23262958639E+03  0.17679976300E+03 0.  0.
         24    2    3    3    0    0  0.69827481998E+02  0.76023766814E+02 -0.10946909457E+03  0.17307353850E+03  0.85530560047E+02 0.  0.
         -6    2    1    2    0  502 -0.67272221332E+02 -0.21849627637E+02  0.18051773162E+03  0.25750202936E+03  0.16946293313E+03 0.  0.
        -24    2    5    5    0    0 -0.10562627311E+03 -0.42375553777E+02  0.13176458436E+03  0.19199396650E+03  0.80914648571E+02 0.  0.
          5    1    3    3  501    0 -0.25552606664E+01 -0.54174139177E+02 -0.24155043512E+02  0.59556047886E+02  0.47000000000E+01 0. -1.
        -11    1    4    4    0    0  0.72965371342E+02  0.54023141535E+02 -0.38336318987E+02  0.98550081633E+02  0.00000000000E+00 0.  1.
         12    1    4    4    0    0 -0.31378893435E+01  0.22000625279E+02 -0.71132775580E+02  0.74523456870E+02  0.00000000000E+00 0. -1.
         -5    1    5    5    0  502  0.38354051775E+02  0.20525926140E+02  0.48753147265E+02  0.65508062860E+02  0.47000000000E+01 0.  1.
         13    1    6    6    0    0 -0.43223008915E+02 -0.13073077678E+02  0.21769243129E+01  0.45209212105E+02  0.00000000000E+00 0. -1.
        -14    1    6    6    0    0 -0.62403264192E+02 -0.29302476099E+02  0.12958766004E+03  0.14678475440E+03  0.00000000000E+00 0.  1.
</event>
<event>
12    1  0.8453150E-002  0.2018162E+03  0.7818608E-02  0.1148319E+00
         21   -1    0    0  501  502  0.00000000000E+00  0.00000000000E+00  0.52953332277E+03  0.52953332277E+03  0.00000000000E+00 0. -1.
         21   -1    0    0  502  503 -0.00000000000E+00 -0.00000000000E+00 -0.78253085056E+02  0.78253085056E+02  0.00000000000E+00 0. -1.
         -6    2    1    2    0  503  0.42708612860E+02 -0.99280450078E+02  0.18295006481E+03  0.27203225602E+03  0.16985343306E+03 0.  0.
        -24    2    3    3    0    0  0.12100204953E+02 -0.23490501451E+02  0.16853958234E+03  0.18890137757E+03  0.81116712298E+02 0.  0.
          6    2    1    2  501    0 -0.42708612860E+02  0.99280450078E+02  0.26833017290E+03  0.33575415180E+03  0.17043806905E+03 0.  0.
         24    2    5    5    0    0 -0.61231354975E+02  0.75647071454E+02  0.27668057549E+03  0.30423514509E+03  0.80840116277E+02 0.  0.
          5    1    5    5  501    0  0.18522742116E+02  0.23633378624E+02 -0.83504025924E+01  0.31519006712E+02  0.47000000000E+01 0. -1.
        -13    1    6    6    0    0  0.11933252326E+02  0.11405424580E+02  0.10974925849E+03  0.11098371935E+03  0.00000000000E+00 0.  1.
         14    1    6    6    0    0 -0.73164607301E+02  0.64241646874E+02  0.16693131700E+03  0.19325142574E+03  0.00000000000E+00 0. -1.
         -5    1    3    3    0  503  0.30608407907E+02 -0.75789948627E+02  0.14410482472E+02  0.83130878454E+02  0.47000000000E+01 0.  1.
         13    1    4    4    0    0  0.19018828894E+02  0.24477311406E+02  0.34554436236E+02  0.46420509366E+02  0.00000000000E+00 0. -1.
        -14    1    4    4    0    0 -0.69186239414E+01 -0.47967812857E+02  0.13398514610E+03  0.14248086820E+03  0.00000000000E+00 0.  1.
</event>
<event>
12    1  0.8453150E-002  0.2217580E+03  0.7818608E-02  0.1132802E+00
         21   -1    0    0  503  502  0.00000000000E+00  0.00000000000E+00  0.83693684108E+03  0.83693684108E+03  0.00000000000E+00 0. -1.
         21   -1    0    0  501  503 -0.00000000000E+00 -0.00000000000E+00 -0.11538811709E+03  0.11538811709E+03  0.00000000000E+00 0. -1.
          6    2    1    2  501    0  0.11622898211E+03 -0.75183881201E+02  0.26755643847E+02  0.22336622050E+03  0.17324783320E+03 0.  0.
         24    2    3    3    0    0 -0.53306243383E+01 -0.57664153115E+02  0.17857050114E+02  0.10013897610E+03  0.79720575672E+02 0.  0.
         -6    2    1    2    0  502 -0.11622898211E+03  0.75183881201E+02  0.69479308015E+03  0.72895873767E+03  0.17170213956E+03 0.  0.
        -24    2    5    5    0    0 -0.52005306809E+02  0.84349700232E+02  0.60416050796E+03  0.61740137194E+03  0.79718948978E+02 0.  0.
          5    1    3    3  501    0  0.12155960645E+03 -0.17519728086E+02  0.88985937333E+01  0.12322724440E+03  0.47000000000E+01 0. -1.
        -11    1    4    4    0    0 -0.22661582750E+02  0.12524710437E+02  0.84296274922E+01  0.27230026146E+02  0.00000000000E+00 0.  1.
         12    1    4    4    0    0  0.17330958412E+02 -0.70188863552E+02  0.94274226217E+01  0.72908949955E+02  0.00000000000E+00 0. -1.
         -5    1    5    5    0  502 -0.64223675303E+02 -0.91658190306E+01  0.90632572190E+02  0.11155736573E+03  0.47000000000E+01 0.  1.
         11    1    6    6    0    0 -0.62906065673E+02  0.37391135850E+02  0.26838602221E+03  0.27818398059E+03  0.00000000000E+00 0. -1.
        -12    1    6    6    0    0  0.10900758864E+02  0.46958564382E+02  0.33577448575E+03  0.33921739134E+03  0.00000000000E+00 0.  1.
</event>
<event>
12    1  0.8453150E-002  0.2538063E+03  0.7818608E-02  0.1111521E+00
         21   -1    0    0  501  502  0.00000000000E+00  0.00000000000E+00  0.58939428791E+03  0.58939428791E+03  0.00000000000E+00 0.  1.
         21   -1    0    0  502  503 -0.00000000000E+00 -0.00000000000E+00 -0.26188881417E+03  0.26188881417E+03  0.00000000000E+00 0.  1.
         -6    2    1    2    0  503 -0.18573072305E+03  0.61229655930E+01 -0.16340445409E+03  0.29864379307E+03  0.16719362228E+03 0.  0.
        -24    2    3    3    0    0 -0.37039126986E+02  0.30208658805E+02 -0.27466515017E+02  0.95689303992E+02  0.78214918376E+02 0.  0.
          6    2    1    2  501    0  0.18573072305E+03 -0.61229655930E+01  0.49090992783E+03  0.55263930901E+03  0.17287063494E+03 0.  0.
         24    2    5    5    0    0  0.19065141052E+03 -0.19166216435E+02  0.49557392303E+03  0.53720614961E+03  0.79256733535E+02 0.  0.
          5    1    5    5  501    0 -0.49206874707E+01  0.13043250842E+02 -0.46639951958E+01  0.15433159395E+02  0.47000000000E+01 0. -1.
        -11    1    6    6    0    0  0.17922816803E+03 -0.34070985198E+02  0.47740585350E+03  0.51107721256E+03  0.00000000000E+00 0.  1.
         12    1    6    6    0    0  0.11423242490E+02  0.14904768763E+02  0.18168069529E+02  0.26128937048E+02  0.00000000000E+00 0. -1.
         -5    1    3    3    0  503 -0.14869159606E+03 -0.24085693212E+02 -0.13593793907E+03  0.20295448907E+03  0.47000000000E+01 0.  1.
         13    1    4    4    0    0 -0.47731220668E+02  0.48991964977E+02 -0.12845712908E+02  0.69595218218E+02  0.00000000000E+00 0. -1.
        -14    1    4    4    0    0  0.10692093682E+02 -0.18783306172E+02 -0.14620802109E+02  0.26094085774E+02  0.00000000000E+00 0.  1.
</event>
<event>
12    1  0.8453150E-002  0.2803424E+03  0.7818608E-02  0.1095823E+00
         21   -1    0    0  503  502  0.00000000000E+00  0.00000000000E+00  0.12491180252E+04  0.12491180252E+04  0.00000000000E+00 0. -1.
         21   -1    0    0  501  503 -0.00000000000E+00 -0.00000000000E+00 -0.20254833675E+03  0.20254833675E+03  0.00000000000E+00 0.  1.
          6    2    1    2  501    0  0.20225940575E+03  0.85688653284E+02 -0.81165947238E+02  0.28960805586E+03  0.17039220202E+03 0.  0.
         24    2    3    3    0    0  0.88450370397E+02  0.10535255115E+03 -0.68083701045E+02  0.17327920916E+03  0.80421800044E+02 0.  0.
         -6    2    1    2    0  502 -0.20225940575E+03 -0.85688653284E+02  0.11277356357E+04  0.11620583061E+04  0.17418504594E+03 0.  0.
        -24    2    5    5    0    0 -0.17108035275E+03 -0.12661964886E+03  0.90242077670E+03  0.93089525665E+03  0.83076459110E+02 0.  0.
          5    1    3    3  501    0  0.11380903536E+03 -0.19663897865E+02 -0.13082246193E+02  0.11632884670E+03  0.47000000000E+01 0. -1.
        -11    1    4    4    0    0  0.10255555483E+03  0.10236668804E+03 -0.62769957543E+02  0.15791342000E+03  0.00000000000E+00 0.  1.
         12    1    4    4    0    0 -0.14105184434E+02  0.29858631080E+01 -0.53137435022E+01  0.15365789157E+02  0.00000000000E+00 0. -1.
         -5    1    5    5    0  502 -0.31179053009E+02  0.40930995573E+02  0.22531485896E+03  0.23116304941E+03  0.47000000000E+01 0.  1.
         13    1    6    6    0    0 -0.99687747322E+02 -0.12008858451E+03  0.65152409988E+03  0.66995713879E+03  0.00000000000E+00 0. -1.
        -14    1    6    6    0    0 -0.71392605424E+02 -0.65310643511E+01  0.25089667682E+03  0.26093811785E+03  0.00000000000E+00 0.  1.
</event>
<event>
12    1  0.8453150E-002  0.2385714E+03  0.7818608E-02  0.1120849E+00
         21   -1    0    0  501  502  0.00000000000E+00  0.00000000000E+00  0.21302311183E+03  0.21302311183E+03  0.00000000000E+00 0. -1.
         21   -1    0    0  502  503 -0.00000000000E+00 -0.00000000000E+00 -0.29539534519E+03  0.29539534519E+03  0.00000000000E+00 0. -1.
         -6    2    1    2    0  503 -0.56752732257E+02  0.15387975609E+03  0.38260302379E+02  0.24161989665E+03  0.17325262413E+03 0.  0.
        -24    2    3    3    0    0 -0.70826444500E+02  0.68267739815E+02 -0.30124996539E+02  0.13104808372E+03  0.81173981612E+02 0.  0.
          6    2    1    2  501    0  0.56752732257E+02 -0.15387975609E+03 -0.12063253574E+03  0.26679856037E+03  0.17242218878E+03 0.  0.
         24    2    5    5    0    0  0.17635734143E+02 -0.66253832150E+02 -0.13367240409E+03  0.16984202241E+03  0.79230117799E+02 0.  0.
          5    1    5    5  501    0  0.39116998115E+02 -0.87625923935E+02  0.13039868348E+02  0.96956537962E+02  0.47000000000E+01 0. -1.
        -11    1    6    6    0    0  0.48050004265E+02 -0.51506771243E+02 -0.82056419642E+02  0.10814345287E+03  0.00000000000E+00 0.  1.
         12    1    6    6    0    0 -0.30414270122E+02 -0.14747060907E+02 -0.51615984448E+02  0.61698569538E+02  0.00000000000E+00 0. -1.
         -5    1    3    3    0  503  0.14073712243E+02  0.85612016270E+02  0.68385298918E+02  0.11057181293E+03  0.47000000000E+01 0.  1.
         11    1    4    4    0    0 -0.64597005594E+02  0.83492969808E+02 -0.11485224951E+02  0.10618737934E+03  0.00000000000E+00 0. -1.
        -12    1    4    4    0    0 -0.62294389059E+01 -0.15225229993E+02 -0.18639771589E+02  0.24860704381E+02  0.00000000000E+00 0.  1.
</event>
<event>
12    1  0.8453150E-002  0.1777601E+03  0.7818608E-02  0.1170462E+00
         21   -1    0    0  501  502  0.00000000000E+00  0.00000000000E+00  0.56041012984E+03  0.56041012984E+03  0.00000000000E+00 0. -1.
         21   -1    0    0  502  503 -0.00000000000E+00 -0.00000000000E+00 -0.10571897925E+03  0.10571897925E+03  0.00000000000E+00 0. -1.
         -6    2    1    2    0  503 -0.35744240127E+02  0.27621005328E+02 -0.22166737595E+01  0.17586038538E+03  0.16994525844E+03 0.  0.
        -24    2    3    3    0    0 -0.55727314158E+02 -0.31037574644E+02  0.27590091958E+02  0.10693516841E+03  0.81271473991E+02 0.  0.
          6    2    1    2  501    0  0.35744240127E+02 -0.27621005328E+02  0.45690782435E+03  0.49026872372E+03  0.17192466626E+03 0.  0.
         24    2    5    5    0    0 -0.19641791816E+02  0.81827308634E+01  0.38183585141E+03  0.39023167468E+03  0.77649117395E+02 0.  0.
          5    1    5    5  501    0  0.55386031943E+02 -0.35803736191E+02  0.75071972943E+02  0.10003704904E+03  0.47000000000E+01 0. -1.
        -13    1    6    6    0    0 -0.40297624591E+02  0.14532401091E+02  0.11840524033E+03  0.12591620296E+03  0.00000000000E+00 0.  1.
         14    1    6    6    0    0  0.20655832775E+02 -0.63496702274E+01  0.26343061107E+03  0.26431547172E+03  0.00000000000E+00 0. -1.
         -5    1    3    3    0  503  0.19983074031E+02  0.58658579972E+02 -0.29806765717E+02  0.68925216972E+02  0.47000000000E+01 0.  1.
         13    1    4    4    0    0 -0.24015227958E+02 -0.26977542670E+02 -0.26020729384E+02  0.44515136079E+02  0.00000000000E+00 0. -1.
        -14    1    4    4    0    0 -0.31712086200E+02 -0.40600319741E+01  0.53610821342E+02  0.62420032328E+02  0.00000000000E+00 0.  1.
</event>
<event>
12    1  0.8453150E-002  0.1961291E+03  0.7818608E-02  0.1153052E+00
         21   -1    0    0  503  502  0.00000000000E+00  0.00000000000E+00  0.39398710062E+03  0.39398710062E+03  0.00000000000E+00 0.  1.
         21   -1    0    0  501  503 -0.00000000000E+00 -0.00000000000E+00 -0.34402048187E+03  0.34402048187E+03  0.00000000000E+00 0.  1.
          6    2    1    2  501    0  0.84775554814E+02 -0.41295777847E+02 -0.28730629985E+03  0.34786710383E+03  0.17197202108E+03 0.  0.
         24    2    3    3    0    0  0.63604350232E+02  0.22783760708E+02 -0.86306008309E+02  0.13578783949E+03  0.80156080012E+02 0.  0.
         -6    2    1    2    0  502 -0.84775554814E+02  0.41295777847E+02  0.33727291860E+03  0.39014047866E+03  0.17194282627E+03 0.  0.
        -24    2    5    5    0    0 -0.37602895048E+02  0.53077426797E+02  0.32659112065E+03  0.34013789984E+03  0.69288093241E+02 0.  0.
          5    1    3    3  501    0  0.21171204581E+02 -0.64079538555E+02 -0.20100029154E+03  0.21207926434E+03  0.47000000000E+01 0. -1.
        -13    1    4    4    0    0  0.60612554984E+02  0.65668678387E+00 -0.94274359701E+02  0.11208018539E+03  0.00000000000E+00 0.  1.
         14    1    4    4    0    0  0.29917952486E+01  0.22127073924E+02  0.79683513918E+01  0.23707654104E+02  0.00000000000E+00 0. -1.
         -5    1    5    5    0  502 -0.47172659766E+02 -0.11781648950E+02  0.10681797945E+02  0.50002578821E+02  0.47000000000E+01 0.  1.
         11    1    6    6    0    0  0.13143300855E+02  0.20095065397E+02  0.35743710598E+02  0.43060084278E+02  0.00000000000E+00 0. -1.
        -12    1    6    6    0    0 -0.50746195902E+02  0.32982361400E+02  0.29084741006E+03  0.29707781556E+03  0.00000000000E+00 0.  1.
</event>
<event>
12    1  0.8453150E-002  0.1763427E+03  0.7818608E-02  0.1172881E+00
         21   -1    0    0  501  502  0.00000000000E+00  0.00000000000E+00  0.73312030767E+02  0.73312030767E+02  0.00000000000E+00 0.  1.
         21   -1    0    0  502  503 -0.00000000000E+00 -0.00000000000E+00 -0.56779724394E+03  0.56779724394E+03  0.00000000000E+00 0.  1.
         -6    2    1    2    0  503 -0.91308229149E+01  0.14687466844E+02 -0.41918080221E+03  0.45476290341E+03  0.17549262026E+03 0.  0.
        -24    2    3    3    0    0  0.41094296559E+02  0.60411604996E+02 -0.26704741679E+03  0.28808982101E+03  0.79643699867E+02 0.  0.
          6    2    1    2  501    0  0.91308229149E+01 -0.14687466844E+02 -0.75304410960E+02  0.18634637130E+03  0.16957335338E+03 0.  0.
         24    2    5    5    0    0  0.44030988542E+01  0.61681153948E+02 -0.16459845854E+02  0.89706366852E+02  0.62867747664E+02 0.  0.
          5    1    5    5  501    0  0.47277240606E+01 -0.76368620791E+02 -0.58844565106E+02  0.96640004444E+02  0.47000000000E+01 0. -1.
        -11    1    6    6    0    0  0.16371289421E+01 -0.64130972602E+01  0.13673570286E+02  0.15191264991E+02  0.00000000000E+00 0.  1.
         12    1    6    6    0    0  0.27659699121E+01  0.68094251208E+02 -0.30133416140E+02  0.74515101861E+02  0.00000000000E+00 0. -1.
         -5    1    3    3    0  503 -0.50225119474E+02 -0.45724138152E+02 -0.15213338542E+03  0.16667308240E+03  0.47000000000E+01 0.  1.
         11    1    4    4    0    0  0.59428554885E+01 -0.17691366436E+02 -0.24062056955E+02  0.30451347468E+02  0.00000000000E+00 0. -1.
        -12    1    4    4    0    0  0.35151441071E+02  0.78102971432E+02 -0.24298535983E+03  0.25763847354E+03  0.00000000000E+00 0.  1.
</event>
<event>
12    1  0.8453150E-002  0.2092643E+03  0.7818608E-02  0.1142160E+00
         21   -1    0    0  503  502  0.00000000000E+00  0.00000000000E+00  0.83161068870E+02  0.83161068870E+02  0.00000000000E+00 0.  1.
         21   -1    0    0  501  503 -0.00000000000E+00 -0.00000000000E+00 -0.10612641618E+04  0.10612641618E+04  0.00000000000E+00 0.  1.
          6    2    1    2  501    0 -0.32787358374E+02 -0.11530327851E+03 -0.89522575047E+03  0.91934697879E+03  0.17146389184E+03 0.  0.
         24    2    3    3    0    0 -0.83453090471E+02 -0.50593529729E+02 -0.54536478179E+03  0.55993196046E+03  0.81098283389E+02 0.  0.
         -6    2    1    2    0  502  0.32787358374E+02  0.11530327851E+03 -0.82877342453E+02  0.22507825187E+03  0.17152757408E+03 0.  0.
        -24    2    5    5    0    0 -0.44977289859E+02  0.66543723769E+02 -0.20893055919E+02  0.11422259586E+03  0.78480939358E+02 0.  0.
          5    1    3    3  501    0  0.50665732097E+02 -0.64709748782E+02 -0.34986096867E+03  0.35941501832E+03  0.47000000000E+01 0. -1.
        -11    1    4    4    0    0  0.25858754581E+01 -0.40128450066E+02 -0.17048848000E+03  0.17516649529E+03  0.00000000000E+00 0.  1.
         12    1    4    4    0    0 -0.86038965929E+02 -0.10465079663E+02 -0.37487630179E+03  0.38476546518E+03  0.00000000000E+00 0. -1.
         -5    1    5    5    0  502  0.77764648233E+02  0.48759554742E+02 -0.61984286533E+02  0.11085565601E+03  0.47000000000E+01 0.  1.
         13    1    6    6    0    0 -0.13061419624E+02 -0.16881491005E+02  0.35008931844E+01  0.21629648038E+02  0.00000000000E+00 0. -1.
        -14    1    6    6    0    0 -0.31915870234E+02  0.83425214774E+02 -0.24393949104E+02  0.92592947819E+02  0.00000000000E+00 0.  1.
</event>
<event>
12    1  0.8453150E-002  0.2017267E+03  0.7818608E-02  0.1148345E+00
         21   -1    0    0  503  502  0.00000000000E+00  0.00000000000E+00  0.18920110602E+03  0.18920110602E+03  0.00000000000E+00 0. -1.
         21   -1    0    0  501  503 -0.00000000000E+00 -0.00000000000E+00 -0.27522666148E+03  0.27522666148E+03  0.00000000000E+00 0.  1.
          6    2    1    2  501    0  0.92609579329E+02 -0.49802219906E+02 -0.15183827527E+03  0.25248466885E+03  0.17215356771E+03 0.  0.
         24    2    3    3    0    0  0.68988358852E+02 -0.47145500339E+02 -0.18103086476E+03  0.21454633076E+03  0.79220339465E+02 0.  0.
         -6    2    1    2    0  502 -0.92609579329E+02  0.49802219906E+02  0.65812719809E+02  0.21194309865E+03  0.17184809480E+03 0.  0.
        -24    2    5    5    0    0 -0.47444049374E+00 -0.22653900037E+02  0.85191562977E+01  0.81392665698E+02  0.77709495717E+02 0.  0.
          5    1    3    3  501    0  0.23621220477E+02 -0.26567195667E+01  0.29192589496E+02  0.37938338092E+02  0.47000000000E+01 0. -1.
        -13    1    4    4    0    0  0.60094343934E+01 -0.45640063955E+02 -0.43778486016E+02  0.63527038160E+02  0.00000000000E+00 0.  1.
         14    1    4    4    0    0  0.62978924459E+02 -0.15054363844E+01 -0.13725237875E+03  0.15101929260E+03  0.00000000000E+00 0. -1.
         -5    1    5    5    0  502 -0.92135138836E+02  0.72456119943E+02  0.57293563511E+02  0.13055043296E+03  0.47000000000E+01 0.  1.
         13    1    6    6    0    0 -0.20353837418E+02 -0.41534549463E+02 -0.11237626493E+02  0.47599177996E+02  0.00000000000E+00 0. -1.
        -14    1    6    6    0    0  0.19879396924E+02  0.18880649426E+02  0.19756782790E+02  0.33793487701E+02  0.00000000000E+00 0.  1.
</event>
<event>
12    1  0.8453150E-002  0.1908557E+03  0.7818608E-02  0.1157887E+00
         21   -1    0    0  501  502  0.00000000000E+00  0.00000000000E+00  0.72813559786E+02  0.72813559786E+02  0.00000000000E+00 0. -1.
         21   -1    0    0  502  503 -0.00000000000E+00 -0.00000000000E+00 -0.73984659032E+03  0.73984659032E+03  0.00000000000E+00 0. -1.
         -6    2    1    2    0  503  0.25496237963E+02 -0.79617737927E+02 -0.56532498383E+03  0.59639542393E+03  0.17060516404E+03 0.  0.
        -24    2    3    3    0    0  0.57185807530E+02 -0.10827774361E+03 -0.45723221447E+03  0.48006932396E+03  0.80068542626E+02 0.  0.
          6    2    1    2  501    0 -0.25496237963E+02  0.79617737927E+02 -0.10170804670E+03  0.21626472617E+03  0.17157174208E+03 0.  0.
         24    2    5    5    0    0 -0.12269472080E+02  0.10114708464E+03 -0.12634258735E+03  0.18066401412E+03  0.79345850193E+02 0.  0.
          5    1    5    5  501    0 -0.13226765883E+02 -0.21529346709E+02  0.24634540655E+02  0.35600712054E+02  0.47000000000E+01 0. -1.
        -11    1    6    6    0    0  0.23390959539E+02  0.15111996592E+02 -0.59898034731E+01  0.28484858694E+02  0.00000000000E+00 0.  1.
         12    1    6    6    0    0 -0.35660431619E+02  0.86035088044E+02 -0.12035278388E+03  0.15217915543E+03  0.00000000000E+00 0. -1.
         -5    1    3    3    0  503 -0.31689569566E+02  0.28660005680E+02 -0.10809276936E+03  0.11632609997E+03  0.47000000000E+01 0.  1.
         11    1    4    4    0    0  0.47450869473E+02 -0.63023982141E+02 -0.39332908652E+03  0.40116253270E+03  0.00000000000E+00 0. -1.
        -12    1    4    4    0    0  0.97349380567E+01 -0.45253761466E+02 -0.63903127945E+02  0.78906791260E+02  0.00000000000E+00 0.  1.
</event>
<event>
12    1  0.8453150E-002  0.2067858E+03  0.7818608E-02  0.1144415E+00
         21   -1    0    0  503  502  0.00000000000E+00  0.00000000000E+00  0.64876340090E+03  0.64876340090E+03  0.00000000000E+00 0. -1.
         21   -1    0    0  501  503 -0.00000000000E+00 -0.00000000000E+00 -0.71811096558E+02  0.71811096558E+02  0.00000000000E+00 0. -1.
          6    2    1    2  501    0  0.10746302054E+03  0.32649701544E+02  0.39638390573E+03  0.44708003898E+03  0.17362619830E+03 0.  0.
         24    2    3    3    0    0  0.14270787210E+03  0.30090515805E+02  0.35646599527E+03  0.39356108375E+03  0.80940378997E+02 0.  0.
         -6    2    1    2    0  502 -0.10746302054E+03 -0.32649701544E+02  0.18056839861E+03  0.27349445848E+03  0.17198827998E+03 0.  0.
        -24    2    5    5    0    0 -0.63353243482E+02 -0.14037129386E+02  0.16858738164E+02  0.10286315069E+03  0.78012410916E+02 0.  0.
          5    1    3    3  501    0 -0.35244851567E+02  0.25591857387E+01  0.39917910461E+02  0.53518955232E+02  0.47000000000E+01 0. -1.
        -11    1    4    4    0    0 -0.69626746204E+01 -0.83264147620E+01  0.39064101503E+02  0.40543952038E+02  0.00000000000E+00 0.  1.
         12    1    4    4    0    0  0.14967054672E+03  0.38416930567E+02  0.31740189377E+03  0.35301713171E+03  0.00000000000E+00 0. -1.
         -5    1    5    5    0  502 -0.44109777054E+02 -0.18612572158E+02  0.16370966045E+03  0.17063130779E+03  0.47000000000E+01 0.  1.
         13    1    6    6    0    0 -0.66040507108E+02 -0.38120995679E+02  0.65688204438E+01  0.76535666801E+02  0.00000000000E+00 0. -1.
        -14    1    6    6    0    0  0.26872636260E+01  0.24083866293E+02  0.10289917720E+02  0.26327483892E+02  0.00000000000E+00 0.  1.
</event>
<event>
12    1  0.8453150E-002  0.3332663E+03  0.7818608E-02  0.1069814E+00
         21   -1    0    0  501  502  0.00000000000E+00  0.00000000000E+00  0.22479410098E+03  0.22479410098E+03  0.00000000000E+00 0.  1.
         21   -1    0    0  502  503 -0.00000000000E+00 -0.00000000000E+00 -0.52453679672E+03  0.52453679672E+03  0.00000000000E+00 0. -1.
         -6    2    1    2    0  503  0.15646223186E+03 -0.23933331609E+03 -0.24218388534E+03  0.41113057968E+03  0.16915807118E+03 0.  0.
        -24    2    3    3    0    0  0.49438412731E+02 -0.68209695511E+02 -0.15340520599E+03  0.19058322584E+03  0.75445937814E+02 0.  0.
          6    2    1    2  501    0 -0.15646223186E+03  0.23933331609E+03 -0.57558810396E+02  0.33820031802E+03  0.17118870369E+03 0.  0.
         24    2    5    5    0    0 -0.28463707518E+02  0.39170245045E+02 -0.25049694460E+02  0.98350761301E+02  0.81858990425E+02 0.  0.
          5    1    5    5  501    0 -0.12799852434E+03  0.20016307104E+03 -0.32509115935E+02  0.23984955672E+03  0.47000000000E+01 0. -1.
        -11    1    6    6    0    0 -0.35185961575E+02  0.58955035429E+02 -0.41268779780E+01  0.68780660190E+02  0.00000000000E+00 0.  1.
         12    1    6    6    0    0  0.67222540570E+01 -0.19784790384E+02 -0.20922816482E+02  0.29570101111E+02  0.00000000000E+00 0. -1.
         -5    1    3    3    0  503  0.10702381913E+03 -0.17112362057E+03 -0.88778679354E+02  0.22054735384E+03  0.47000000000E+01 0.  1.
         11    1    4    4    0    0 -0.13920763715E+02  0.44451042463E+01 -0.34791522525E+02  0.37735880191E+02  0.00000000000E+00 0. -1.
        -12    1    4    4    0    0  0.63359176446E+02 -0.72654799757E+02 -0.11861368346E+03  0.15284734565E+03  0.00000000000E+00 0.  1.
</event>
<event>
12    1  0.8453150E-002  0.1772052E+03  0.7818608E-02  0.1170721E+00
         21   -1    0    0  503  502  0.00000000000E+00  0.00000000000E+00  0.66952672370E+03  0.66952672370E+03  0.00000000000E+00 0. -1.
         21   -1    0    0  501  503 -0.00000000000E+00 -0.00000000000E+00 -0.75386464198E+02  0.75386464198E+02  0.00000000000E+00 0. -1.
          6    2    1    2  501    0  0.43753348957E+02  0.17355038148E+01  0.66935275549E+02  0.18872366521E+03  0.17093543570E+03 0.  0.
         24    2    3    3    0    0  0.84693918563E+02  0.36728490443E+02  0.50260424446E+02  0.13214822873E+03  0.80093709114E+02 0.  0.
         -6    2    1    2    0  502 -0.43753348957E+02 -0.17355038148E+01  0.52720498395E+03  0.55618952269E+03  0.17170999543E+03 0.  0.
        -24    2    5    5    0    0 -0.89189214304E+02  0.43941461763E+02  0.37000728558E+03  0.38623656032E+03  0.48864313553E+02 0.  0.
          5    1    3    3  501    0 -0.40940569606E+02 -0.34992986628E+02  0.16674851103E+02  0.56575436473E+02  0.47000000000E+01 0. -1.
        -11    1    4    4    0    0  0.47070304013E+02  0.55308349620E+02  0.53286222387E+02  0.90078013710E+02  0.00000000000E+00 0.  1.
         12    1    4    4    0    0  0.37623614550E+02 -0.18579859177E+02 -0.30257979408E+01  0.42070215022E+02  0.00000000000E+00 0. -1.
         -5    1    5    5    0  502  0.45435865347E+02 -0.45676965578E+02  0.15719769838E+03  0.16995296237E+03  0.47000000000E+01 0.  1.
         11    1    6    6    0    0 -0.17009707843E+02  0.32869659895E+02  0.10404077311E+03  0.11042747472E+03  0.00000000000E+00 0. -1.
        -12    1    6    6    0    0 -0.72179506461E+02  0.11071801868E+02  0.26596651246E+03  0.27580908560E+03  0.00000000000E+00 0.  1.
</event>
<event>
12    1  0.8453150E-002  0.2392417E+03  0.7818608E-02  0.1120627E+00
         21   -1    0    0  501  502  0.00000000000E+00  0.00000000000E+00  0.32789839973E+03  0.32789839973E+03  0.00000000000E+00 0. -1.
         21   -1    0    0  502  503 -0.00000000000E+00 -0.00000000000E+00 -0.33157614481E+03  0.33157614481E+03  0.00000000000E+00 0.  1.
         -6    2    1    2    0  503 -0.15699964322E+03 -0.54841334699E+02 -0.22976962019E+03  0.33030266909E+03  0.16926108496E+03 0.  0.
        -24    2    3    3    0    0 -0.14135601594E+03 -0.87848791066E+02 -0.22816246937E+03  0.29343956851E+03  0.79685222005E+02 0.  0.
          6    2    1    2  501    0  0.15699964322E+03  0.54841334699E+02  0.22609187511E+03  0.32917187545E+03  0.17198874276E+03 0.  0.
         24    2    5    5    0    0  0.56658202249E+02  0.83883779884E+02  0.74717670116E+02  0.14519332144E+03  0.72468820570E+02 0.  0.
          5    1    5    5  501    0  0.10034144097E+03 -0.29042445185E+02  0.15137420499E+03  0.18397855401E+03  0.47000000000E+01 0. -1.
        -11    1    6    6    0    0  0.14051169603E+02  0.80515936678E+02  0.50285286881E+02  0.95962813126E+02  0.00000000000E+00 0.  1.
         12    1    6    6    0    0  0.42607032646E+02  0.33678432056E+01  0.24432383236E+02  0.49230508318E+02  0.00000000000E+00 0. -1.
         -5    1    3    3    0  503 -0.15643627273E+02  0.33007456367E+02 -0.16071508214E+01  0.36863100573E+02  0.47000000000E+01 0.  1.
         11    1    4    4    0    0 -0.39537620973E+02  0.99893273768E+01 -0.32508310649E+02  0.52151705580E+02  0.00000000000E+00 0. -1.
        -12    1    4    4    0    0 -0.10181839497E+03 -0.97838118443E+02 -0.19565415872E+03  0.24128786293E+03  0.00000000000E+00 0.  1.
</event>
<event>
12    1  0.8453150E-002  0.3189245E+03  0.7818608E-02  0.1076147E+00
         21   -1    0    0  503  502  0.00000000000E+00  0.00000000000E+00  0.12233905594E+03  0.12233905594E+03  0.00000000000E+00 0. -1.
         21   -1    0    0  501  503 -0.00000000000E+00 -0.00000000000E+00 -0.11831506788E+04  0.11831506788E+04  0.00000000000E+00 0.  1.
          6    2    1    2  501    0 -0.24004388726E+03  0.12022836032E+03 -0.17448780838E+03  0.36353652058E+03  0.17215365254E+03 0.  0.
         24    2    3    3    0    0 -0.87821374964E+02  0.35659042008E+02 -0.15222895937E+03  0.18791986644E+03  0.56178812334E+02 0.  0.
         -6    2    1    2    0  502  0.24004388726E+03 -0.12022836032E+03 -0.88632381446E+03  0.94195321415E+03  0.17213374780E+03 0.  0.
        -24    2    5    5    0    0  0.23839762271E+03 -0.60422404107E+02 -0.73669517040E+03  0.78073819094E+03  0.79674684016E+02 0.  0.
          5    1    3    3  501    0 -0.15222251230E+03  0.84569318309E+02 -0.22258849009E+02  0.17561665413E+03  0.47000000000E+01 0. -1.
        -13    1    4    4    0    0 -0.36722709705E+02 -0.10597607950E+02 -0.34452141666E+02  0.51456940909E+02  0.00000000000E+00 0.  1.
         14    1    4    4    0    0 -0.51098665259E+02  0.46256649958E+02 -0.11777681770E+03  0.13646292553E+03  0.00000000000E+00 0. -1.
         -5    1    5    5    0  502  0.16462645558E+01 -0.59805956210E+02 -0.14962864406E+03  0.16121502321E+03  0.47000000000E+01 0.  1.
         13    1    6    6    0    0  0.12431450547E+03 -0.60259695889E+02 -0.31661084456E+03  0.34543849541E+03  0.00000000000E+00 0. -1.
        -14    1    6    6    0    0  0.11408311724E+03 -0.16270821862E+00 -0.42008432584E+03  0.43529969553E+03  0.00000000000E+00 0.  1.
</event>
<event>
12    1  0.8453150E-002  0.2125576E+03  0.7818608E-02  0.1139600E+00
         21   -1    0    0  501  502  0.00000000000E+00  0.00000000000E+00  0.10554014568E+04  0.10554014568E+04  0.00000000000E+00 0. -1.
         21   -1    0    0  502  503 -0.00000000000E+00 -0.00000000000E+00 -0.43029875804E+02  0.43029875804E+02  0.00000000000E+00 0. -1.
         -6    2    1    2    0  503 -0.74231513580E+02 -0.10018048621E+03  0.54907899504E+03  0.58870515964E+03  0.17187080836E+03 0.  0.
        -24    2    3    3    0    0 -0.90353316053E+02 -0.38268211560E+02  0.46923588668E+03  0.48628419392E+03  0.81619986306E+02 0.  0.
          6    2    1    2  501    0  0.74231513580E+02  0.10018048621E+03  0.46329258595E+03  0.50972617296E+03  0.17214616979E+03 0.  0.
         24    2    5    5    0    0  0.78273340146E+02  0.59117121539E+02  0.44781303428E+03  0.46540639408E+03  0.80281057140E+02 0.  0.
          5    1    5    5  501    0 -0.40418265657E+01  0.41063364673E+02  0.15479551668E+02  0.44319778882E+02  0.47000000000E+01 0. -1.
        -11    1    6    6    0    0 -0.12463256299E+02 -0.10240026754E+01  0.17316523611E+02  0.21359853207E+02  0.00000000000E+00 0.  1.
         12    1    6    6    0    0  0.90736596445E+02  0.60141124215E+02  0.43049651067E+03  0.44404654087E+03  0.00000000000E+00 0. -1.
         -5    1    3    3    0  503  0.16121802473E+02 -0.61912274653E+02  0.79843108355E+02  0.10242096572E+03  0.47000000000E+01 0.  1.
         11    1    4    4    0    0 -0.78698096602E+02  0.79720805613E+01  0.31905312317E+03  0.32871239691E+03  0.00000000000E+00 0. -1.
        -12    1    4    4    0    0 -0.11655219452E+02 -0.46240292121E+02  0.15018276351E+03  0.15757179701E+03  0.00000000000E+00 0.  1.
</event>
<event>
12    1  0.8453150E-002  0.1769866E+03  0.7818608E-02  0.1170807E+00
         21   -1    0    0  501  502  0.00000000000E+00  0.00000000000E+00  0.26419618044E+03  0.26419618044E+03  0.00000000000E+00 0. -1.
         21   -1    0    0  502  503 -0.00000000000E+00 -0.00000000000E+00 -0.24304394477E+03  0.24304394477E+03  0.00000000000E+00 0. -1.
         -6    2    1    2    0  503  0.20897519766E+02  0.45437951728E+02 -0.17104209624E+03  0.24596837322E+03  0.16953975389E+03 0.  0.
        -24    2    3    3    0    0 -0.18065888876E+02  0.27652142808E+02 -0.18198672315E+03  0.20151213552E+03  0.79980972833E+02 0.  0.
          6    2    1    2  501    0 -0.20897519766E+02 -0.45437951728E+02  0.19219433190E+03  0.26127175198E+03  0.16977324106E+03 0.  0.
         24    2    5    5    0    0 -0.56717214372E+02  0.19300713963E+02  0.13515918368E+03  0.16773436112E+03  0.79230366659E+02 0.  0.
          5    1    5    5  501    0  0.35819694606E+02 -0.64738665690E+02  0.57035148226E+02  0.93537390867E+02  0.47000000000E+01 0. -1.
        -13    1    6    6    0    0 -0.32976833173E+02 -0.29423812864E+02  0.49409028453E+02  0.66290907236E+02  0.00000000000E+00 0.  1.
         14    1    6    6    0    0 -0.23740381199E+02  0.48724526826E+02  0.85750155224E+02  0.10144345388E+03  0.00000000000E+00 0. -1.
         -5    1    3    3    0  503  0.38963408642E+02  0.17785808920E+02  0.10944626919E+02  0.44456237699E+02  0.47000000000E+01 0.  1.
         11    1    4    4    0    0 -0.17464055365E+02  0.54962409047E+02 -0.14009640102E+03  0.15150201720E+03  0.00000000000E+00 0. -1.
        -12    1    4    4    0    0 -0.60183351083E+00 -0.27310266239E+02 -0.41890322136E+02  0.50010118319E+02  0.00000000000E+00 0.  1.
</event>
<event>
12    1  0.8453150E-002  0.2162431E+03  0.7818608E-02  0.1137355E+00
         21   -1    0    0  503  502  0.00000000000E+00  0.00000000000E+00  0.70273843696E+03  0.70273843696E+03  0.00000000000E+00 0.  1.
         21   -1    0    0  501  503 -0.00000000000E+00 -0.00000000000E+00 -0.40110965247E+03  0.40110965247E+03  0.00000000000E+00 0.  1.
          6    2    1    2  501    0  0.43128825430E+02 -0.11840942018E+03 -0.35382939374E+03  0.41467617493E+03  0.17572764100E+03 0.  0.
         24    2    3    3    0    0  0.35250426596E+02 -0.14728436919E+03 -0.23082671835E+03  0.28799713167E+03  0.82012779262E+02 0.  0.
         -6    2    1    2    0  502 -0.43128825430E+02  0.11840942018E+03  0.65545817823E+03  0.68917191450E+03  0.17161473701E+03 0.  0.
        -24    2    5    5    0    0 -0.47847897193E+02  0.70623292607E+01  0.39269069750E+03  0.40370863626E+03  0.80220828519E+02 0.  0.
          5    1    3    3  501    0  0.78783988342E+01  0.28874949013E+02 -0.12300267539E+03  0.12667904326E+03  0.47000000000E+01 0. -1.
        -11    1    4    4    0    0 -0.22842603304E+02 -0.22277288705E+02 -0.64603882283E+02  0.72053617007E+02  0.00000000000E+00 0.  1.
         12    1    4    4    0    0  0.58093029899E+02 -0.12500708049E+03 -0.16622283607E+03  0.21594351467E+03  0.00000000000E+00 0. -1.
         -5    1    5    5    0  502  0.47190717632E+01  0.11134709092E+03  0.26276748073E+03  0.28546327824E+03  0.47000000000E+01 0.  1.
         11    1    6    6    0    0 -0.41649414582E+02  0.27056127031E+02  0.11546235233E+03  0.12569113951E+03  0.00000000000E+00 0. -1.
        -12    1    6    6    0    0 -0.61984826113E+01 -0.19993797770E+02  0.27722834516E+03  0.27801749675E+03  0.00000000000E+00 0.  1.
</event>
<event>
12    1  0.8453150E-002  0.1887581E+03  0.7818608E-02  0.1160268E+00
         21   -1    0    0  501  502  0.00000000000E+00  0.00000000000E+00  0.96341153061E+02  0.96341153061E+02  0.00000000000E+00 0. -1.
         21   -1    0    0  502  503 -0.00000000000E+00 -0.00000000000E+00 -0.49400973863E+03  0.49400973863E+03  0.00000000000E+00 0. -1.
         -6    2    1    2    0  503  0.61829648007E+02  0.29522390765E+02 -0.34907947048E+03  0.39543930505E+03  0.17268841981E+03 0.  0.
        -24    2    3    3    0    0  0.99909579637E+02  0.50838854188E+02 -0.22434733795E+03  0.26320970288E+03  0.79881827993E+02 0.  0.
          6    2    1    2  501    0 -0.61829648007E+02 -0.29522390765E+02 -0.48589115090E+02  0.19491158664E+03  0.17588390368E+03 0.  0.
         24    2    5    5    0    0  0.53239331760E+01 -0.55045284061E+02 -0.74583243355E+02  0.11836874732E+03  0.73417794777E+02 0.  0.
          5    1    5    5  501    0 -0.67153581183E+02  0.25522893297E+02  0.25994128265E+02  0.76542839327E+02  0.47000000000E+01 0. -1.
        -13    1    6    6    0    0 -0.18410745140E+02  0.31896786705E+01 -0.45293657956E+02  0.48996377801E+02  0.00000000000E+00 0.  1.
         14    1    6    6    0    0  0.23734678316E+02 -0.58234962732E+02 -0.29289585399E+02  0.69372369514E+02  0.00000000000E+00 0. -1.
         -5    1    3    3    0  503 -0.38079931630E+02 -0.21316463423E+02 -0.12473213253E+03  0.13222960217E+03  0.47000000000E+01 0.  1.
         13    1    4    4    0    0  0.23091921916E+02  0.94488335957E+01 -0.13875316885E+03  0.14097857703E+03  0.00000000000E+00 0. -1.
        -14    1    4    4    0    0  0.76817657720E+02  0.41390020592E+02 -0.85594169099E+02  0.12223112585E+03  0.00000000000E+00 0.  1.
</event>
<event>
12    1  0.8453150E-002  0.1735103E+03  0.7818608E-02  0.1174372E+00
         21   -1    0    0  501  502  0.00000000000E+00  0.00000000000E+00  0.86073388993E+03  0.86073388993E+03  0.00000000000E+00 0. -1.
         21   -1    0    0  502  503 -0.00000000000E+00 -0.00000000000E+00 -0.11143480058E+03  0.11143480058E+03  0.00000000000E+00 0. -1.
         -6    2    1    2    0  503 -0.53567470369E+01  0.11512948469E+02 -0.28451468976E+02  0.17529872462E+03  0.17250772169E+03 0.  0.
        -24    2    3    3    0    0 -0.30396844677E+02 -0.99133928475E+01  0.42913344007E+02  0.96551527053E+02  0.80364163395E+02 0.  0.
          6    2    1    2  501    0  0.53567470369E+01 -0.11512948469E+02  0.77775055832E+03  0.79686996590E+03  0.17304499084E+03 0.  0.
         24    2    5    5    0    0  0.95987060038E+01  0.37880081215E+02  0.21872821518E+03  0.23563406565E+03  0.78449633948E+02 0.  0.
          5    1    5    5  501    0 -0.42419589669E+01 -0.49393029684E+02  0.55902234314E+03  0.56123590025E+03  0.47000000000E+01 0. -1.
        -13    1    6    6    0    0 -0.11081081069E+02  0.43326935185E+02  0.20589060512E+03  0.21069161100E+03  0.00000000000E+00 0.  1.
         14    1    6    6    0    0  0.20679787073E+02 -0.54468539699E+01  0.12837610061E+02  0.24942454643E+02  0.00000000000E+00 0. -1.
         -5    1    3    3    0  503  0.25040097640E+02  0.21426341317E+02 -0.71364812984E+02  0.78747197564E+02  0.47000000000E+01 0.  1.
         13    1    4    4    0    0 -0.56198466245E+02  0.38719321263E+01  0.34721545786E+02  0.66172843436E+02  0.00000000000E+00 0. -1.
        -14    1    4    4    0    0  0.25801621568E+02 -0.13785324974E+02  0.81917982214E+01  0.30378683617E+02  0.00000000000E+00 0.  1.
</event>
<event>
12    1  0.8453150E-002  0.1805714E+03  0.7818608E-02  0.1167435E+00
         21   -1    0    0  503  502  0.00000000000E+00  0.00000000000E+00  0.65942757293E+03  0.65942757293E+03  0.00000000000E+00 0.  1.
         21   -1    0    0  501  503 -0.00000000000E+00 -0.00000000000E+00 -0.49327067411E+02  0.49327067411E+02  0.00000000000E+00 0.  1.
          6    2    1    2  501    0 -0.18697406173E+02  0.49457116298E+02  0.28929038296E+03  0.34061721228E+03  0.17185912917E+03 0.  0.
         24    2    3    3    0    0 -0.98474392555E+01 -0.33579791133E+02  0.19915908839E+03  0.21765709611E+03  0.80533810058E+02 0.  0.
         -6    2    1    2    0  502  0.18697406173E+02 -0.49457116298E+02  0.32081012256E+03  0.36813742806E+03  0.17265697742E+03 0.  0.
        -24    2    5    5    0    0 -0.50361207508E+02 -0.43344222154E+02  0.13668164763E+03  0.17133335067E+03  0.79109237364E+02 0.  0.
          5    1    3    3  501    0 -0.88499669173E+01  0.83036907432E+02  0.90131294565E+02  0.12296011618E+03  0.47000000000E+01 0. -1.
        -11    1    4    4    0    0 -0.16754004609E+02 -0.32420997244E+02  0.27100571452E+02  0.45456118463E+02  0.00000000000E+00 0.  1.
         12    1    4    4    0    0  0.69065653537E+01 -0.11587938891E+01  0.17205851694E+03  0.17220097764E+03  0.00000000000E+00 0. -1.
         -5    1    5    5    0  502  0.69058613681E+02 -0.61128941443E+01  0.18412847493E+03  0.19680407739E+03  0.47000000000E+01 0.  1.
         13    1    6    6    0    0  0.70789934847E+01 -0.13446289931E+02 -0.46347243863E+01  0.15886961063E+02  0.00000000000E+00 0. -1.
        -14    1    6    6    0    0 -0.57440200993E+02 -0.29897932223E+02  0.14131637202E+03  0.15544638961E+03  0.00000000000E+00 0.  1.
</event>
<event>
12    1  0.8453150E-002  0.1883158E+03  0.7818608E-02  0.1160076E+00
         21   -1    0    0  501  502  0.00000000000E+00  0.00000000000E+00  0.37607104552E+03  0.37607104552E+03  0.00000000000E+00 0.  1.
         21   -1    0    0  502  503 -0.00000000000E+00 -0.00000000000E+00 -0.11371838907E+03  0.11371838907E+03  0.00000000000E+00 0.  1.
         -6    2    1    2    0  503 -0.52816300540E+02  0.55241332854E+02  0.29587407304E+02  0.19062594729E+03  0.17210947287E+03 0.  0.
        -24    2    3    3    0    0 -0.11828015943E+02  0.38432256876E+02  0.83710358029E+02  0.12052624469E+03  0.76825850390E+02 0.  0.
          6    2    1    2  501    0  0.52816300540E+02 -0.55241332854E+02  0.23276524914E+03  0.29916348729E+03  0.17169148046E+03 0.  0.
         24    2    5    5    0    0  0.70975564512E+02 -0.84152017169E+02  0.22604705422E+03  0.26405208347E+03  0.80666841464E+02 0.  0.
          5    1    5    5  501    0 -0.18159263972E+02  0.28910684315E+02  0.67181949258E+01  0.35111403826E+02  0.47000000000E+01 0. -1.
        -13    1    6    6    0    0  0.14819433629E+02 -0.77675082657E+02  0.14628458999E+03  0.16628955273E+03  0.00000000000E+00 0.  1.
         14    1    6    6    0    0  0.56156130883E+02 -0.64769345116E+01  0.79762464230E+02  0.97762530739E+02  0.00000000000E+00 0. -1.
         -5    1    3    3    0  503 -0.40988284598E+02  0.16809075977E+02 -0.54122950725E+02  0.70099702600E+02  0.47000000000E+01 0.  1.
         13    1    4    4    0    0 -0.42652491412E+01  0.10875906417E+02 -0.14282646982E+02  0.18451875120E+02  0.00000000000E+00 0. -1.
        -14    1    4    4    0    0 -0.75627668014E+01  0.27556350459E+02  0.97993005010E+02  0.10207436957E+03  0.00000000000E+00 0.  1.
</event>
<event>
12    1  0.8453150E-002  0.3086087E+03  0.7818608E-02  0.1081085E+00
         21   -1    0    0  501  502  0.00000000000E+00  0.00000000000E+00  0.29660059611E+03  0.29660059611E+03  0.00000000000E+00 0.  1.
         21   -1    0    0  502  503 -0.00000000000E+00 -0.00000000000E+00 -0.32387657452E+03  0.32387657452E+03  0.00000000000E+00 0. -1.
         -6    2    1    2    0  503 -0.16151162757E+03 -0.19938374930E+03  0.18022962506E+02  0.30913447937E+03  0.17146257269E+03 0.  0.
        -24    2    3    3    0    0 -0.72430486011E+02 -0.80498008415E+02  0.69987607761E+02  0.15168072894E+03  0.79891636799E+02 0.  0.
          6    2    1    2  501    0  0.16151162757E+03  0.19938374930E+03 -0.45298940914E+02  0.31134269127E+03  0.17041828550E+03 0.  0.
         24    2    5    5    0    0  0.89682282369E+02  0.41930911503E+02  0.15077367648E+02  0.12798991764E+03  0.79705576285E+02 0.  0.
          5    1    5    5  501    0  0.71829345197E+02  0.15745283780E+03 -0.60376308562E+02  0.18335277363E+03  0.47000000000E+01 0. -1.
        -11    1    6    6    0    0 -0.13186488422E+02 -0.27912026980E+01  0.78262772785E+01  0.15586048423E+02  0.00000000000E+00 0.  1.
         12    1    6    6    0    0  0.10286877079E+03  0.44722114201E+02  0.72510903693E+01  0.11240386921E+03  0.00000000000E+00 0. -1.
         -5    1    3    3    0  503 -0.89081141555E+02 -0.11888574089E+03 -0.51964645255E+02  0.15745375043E+03  0.47000000000E+01 0.  1.
         11    1    4    4    0    0  0.91210352766E+01  0.33873046096E+01 -0.66822873141E+01  0.11803392766E+02  0.00000000000E+00 0. -1.
        -12    1    4    4    0    0 -0.81551521287E+02 -0.83885313024E+02  0.76669895075E+02  0.13987733618E+03  0.00000000000E+00 0.  1.
</event>
<event>
12    1  0.8453150E-002  0.2239030E+03  0.7818608E-02  0.1131749E+00
         21   -1    0    0  503  502  0.00000000000E+00  0.00000000000E+00  0.40618396633E+03  0.40618396633E+03  0.00000000000E+00 0.  1.
         21   -1    0    0  501  503 -0.00000000000E+00 -0.00000000000E+00 -0.12309414981E+03  0.12309414981E+03  0.00000000000E+00 0. -1.
          6    2    1    2  501    0  0.76784465255E+02  0.11192808290E+03  0.10750572229E+03  0.24473928961E+03  0.17296268300E+03 0.  0.
         24    2    3    3    0    0  0.10825133881E+03  0.99072962635E+02  0.12268845225E+03  0.20721564990E+03  0.79699842970E+02 0.  0.
         -6    2    1    2    0  502 -0.76784465255E+02 -0.11192808290E+03  0.17558409423E+03  0.28453882652E+03  0.17806970490E+03 0.  0.
        -24    2    5    5    0    0  0.20362907452E+02 -0.26969352684E+02  0.33665864275E+02  0.92657426018E+02  0.79435597781E+02 0.  0.
          5    1    3    3  501    0 -0.31466873551E+02  0.12855120266E+02 -0.15182729964E+02  0.37523639712E+02  0.47000000000E+01 0. -1.
        -13    1    4    4    0    0  0.10267330486E+03  0.45209015400E+02  0.73998027566E+02  0.13439259908E+03  0.00000000000E+00 0.  1.
         14    1    4    4    0    0  0.55780339447E+01  0.53863947234E+02  0.48690424687E+02  0.72823050819E+02  0.00000000000E+00 0. -1.
         -5    1    5    5    0  502 -0.97147372707E+02 -0.84958730217E+02  0.14191822996E+03  0.19188140050E+03  0.47000000000E+01 0.  1.
         13    1    6    6    0    0  0.24410376360E+02  0.14035977869E+02  0.42051359665E+02  0.50608220661E+02  0.00000000000E+00 0. -1.
        -14    1    6    6    0    0 -0.40474689075E+01 -0.41005330553E+02 -0.83854953899E+01  0.42049205358E+02  0.00000000000E+00 0.  1.
</event>
<event>
12    1  0.8453150E-002  0.3204053E+03  0.7818608E-02  0.1075585E+00
         21   -1    0    0  501  502  0.00000000000E+00  0.00000000000E+00  0.13334993103E+04  0.13334993103E+04  0.00000000000E+00 0. -1.
         21   -1    0    0  502  503 -0.00000000000E+00 -0.00000000000E+00 -0.11778448698E+03  0.11778448698E+03  0.00000000000E+00 0. -1.
         -6    2    1    2    0  503  0.90714969395E+02  0.25527659349E+03  0.18010833950E+03  0.36755757793E+03  0.17106786455E+03 0.  0.
        -24    2    3    3    0    0  0.86578950900E+02  0.88771659355E+02  0.11067526164E+03  0.18704707397E+03  0.85797856021E+02 0.  0.
          6    2    1    2  501    0 -0.90714969395E+02 -0.25527659349E+03  0.10356064839E+04  0.10837262194E+04  0.16907508483E+03 0.  0.
         24    2    5    5    0    0  0.82276760353E+01 -0.15793411339E+03  0.50852917517E+03  0.53865944838E+03  0.80877688543E+02 0.  0.
          5    1    5    5  501    0 -0.98942645430E+02 -0.97342480100E+02  0.52707730870E+03  0.54506677101E+03  0.47000000000E+01 0. -1.
        -13    1    6    6    0    0 -0.14431113594E+02 -0.40830170645E+02  0.25279431268E+03  0.25647675216E+03  0.00000000000E+00 0.  1.
         14    1    6    6    0    0  0.22658789630E+02 -0.11710394274E+03  0.25573486250E+03  0.28218269623E+03  0.00000000000E+00 0. -1.
         -5    1    3    3    0  503  0.41360184948E+01  0.16650493413E+03  0.69433077858E+02  0.18051050396E+03  0.47000000000E+01 0.  1.
         13    1    4    4    0    0  0.79164335283E+01  0.63889336990E+02  0.69858470140E+02  0.94998542890E+02  0.00000000000E+00 0. -1.
        -14    1    4    4    0    0  0.78662517372E+02  0.24882322365E+02  0.40816791498E+02  0.92048531079E+02  0.00000000000E+00 0.  1.
</event>
<event>
12    1  0.8453150E-002  0.1778850E+03  0.7818608E-02  0.1170436E+00
         21   -1    0    0  503  502  0.00000000000E+00  0.00000000000E+00  0.83229253368E+02  0.83229253368E+02  0.00000000000E+00 0.  1.
         21   -1    0    0  501  503 -0.00000000000E+00 -0.00000000000E+00 -0.47802139940E+03  0.47802139940E+03  0.00000000000E+00 0.  1.
          6    2    1    2  501    0 -0.32832448660E+02 -0.26122261329E+02 -0.32850413719E+03  0.37357469957E+03  0.17286626562E+03 0.  0.
         24    2    3    3    0    0 -0.40191407701E+02 -0.80117814126E+02 -0.25338544123E+03  0.28065224544E+03  0.80791631061E+02 0.  0.
         -6    2    1    2    0  502  0.32832448660E+02  0.26122261329E+02 -0.66288008844E+02  0.18767595319E+03  0.17049287689E+03 0.  0.
        -24    2    5    5    0    0 -0.46674155251E+02  0.18310188092E+01 -0.43058293242E+02  0.10122900868E+03  0.78812855445E+02 0.  0.
          5    1    3    3  501    0  0.73589590415E+01  0.53995552797E+02 -0.75118695954E+02  0.92922454132E+02  0.47000000000E+01 0.  1.
        -11    1    4    4    0    0 -0.33813127469E+02 -0.34641601636E+02 -0.41239045999E+02  0.63592665206E+02  0.00000000000E+00 0.  1.
         12    1    4    4    0    0 -0.63782802318E+01 -0.45476212490E+02 -0.21214639523E+03  0.21705958024E+03  0.00000000000E+00 0. -1.
         -5    1    5    5    0  502  0.79506603910E+02  0.24291242520E+02 -0.23229715602E+02  0.86446944512E+02  0.47000000000E+01 0.  1.
         11    1    6    6    0    0 -0.34212624736E+00 -0.15825827704E+02 -0.48811293567E+02  0.51313899214E+02  0.00000000000E+00 0. -1.
        -12    1    6    6    0    0 -0.46332029003E+02  0.17656846513E+02  0.57530003255E+01  0.49915109467E+02  0.00000000000E+00 0.  1.
</event>
<event>
12    1  0.8453150E-002  0.1738740E+03  0.7818608E-02  0.1174165E+00
         21   -1    0    0  503  502  0.00000000000E+00  0.00000000000E+00  0.10821204456E+04  0.10821204456E+04  0.00000000000E+00 0.  1.
         21   -1    0    0  501  503 -0.00000000000E+00 -0.00000000000E+00 -0.56355593563E+02  0.56355593563E+02  0.00000000000E+00 0.  1.
          6    2    1    2  501    0 -0.16960208190E+01 -0.18381014183E+02  0.10647229721E+03  0.20288480222E+03  0.17171241868E+03 0.  0.
         24    2    3    3    0    0 -0.54148257809E+02 -0.52519065879E+01  0.16180247294E+02  0.97536072233E+02  0.79321300024E+02 0.  0.
         -6    2    1    2    0  502  0.16960208190E+01  0.18381014183E+02  0.91929255485E+03  0.93559123696E+03  0.17289136218E+03 0.  0.
        -24    2    5    5    0    0  0.58241117211E+02  0.26937991778E+01  0.33217184769E+03  0.34552662066E+03  0.75174629361E+02 0.  0.
          5    1    3    3  501    0  0.52452236990E+02 -0.13129107595E+02  0.90292049916E+02  0.10534872999E+03  0.47000000000E+01 0. -1.
        -11    1    4    4    0    0  0.86082289430E+01  0.24388045883E+02 -0.15308835176E+01  0.25907952290E+02  0.00000000000E+00 0.  1.
         12    1    4    4    0    0 -0.62756486752E+02 -0.29639952471E+02  0.17711130812E+02  0.71628119943E+02  0.00000000000E+00 0. -1.
         -5    1    5    5    0  502 -0.56545096392E+02  0.15687215005E+02  0.58712070716E+03  0.59006461630E+03  0.47000000000E+01 0.  1.
         13    1    6    6    0    0  0.56872826845E+02 -0.28690596895E+02  0.22578070662E+03  0.23459453588E+03  0.00000000000E+00 0. -1.
        -14    1    6    6    0    0  0.13682903658E+01  0.31384396073E+02  0.10639114107E+03  0.11093208478E+03  0.00000000000E+00 0.  1.
</event>
<event>
12    1  0.8453150E-002  0.2350966E+03  0.7818608E-02  0.1123565E+00
         21   -1    0    0  503  502  0.00000000000E+00  0.00000000000E+00  0.22571351504E+04  0.22571351504E+04  0.00000000000E+00 0.  1.
         21   -1    0    0  501  503 -0.00000000000E+00 -0.00000000000E+00 -0.24910056795E+02  0.24910056795E+02  0.00000000000E+00 0. -1.
          6    2    1    2  501    0 -0.25195306941E+00  0.16027995146E+03  0.91835155546E+03  0.94730400337E+03  0.16830201739E+03 0.  0.
         24    2    3    3    0    0 -0.46776804235E+02  0.14003471226E+03  0.81616771091E+03  0.83311968057E+03  0.78491271883E+02 0.  0.
         -6    2    1    2    0  502  0.25195306941E+00 -0.16027995146E+03  0.13138735382E+04  0.13347412039E+04  0.17199035043E+03 0.  0.
        -24    2    5    5    0    0 -0.39112589885E+02 -0.34290427032E+02  0.72657380440E+03  0.73277277047E+03  0.79629214646E+02 0.  0.
          5    1    3    3  501    0  0.46524851166E+02  0.20245239203E+02  0.10218384455E+03  0.11418432280E+03  0.47000000000E+01 0. -1.
        -13    1    4    4    0    0 -0.35528430771E+01  0.11357342180E+03  0.48750041921E+03  0.50056788108E+03  0.00000000000E+00 0.  1.
         14    1    4    4    0    0 -0.43223961158E+02  0.26461290452E+02  0.32866729170E+03  0.33255179949E+03  0.00000000000E+00 0. -1.
         -5    1    5    5    0  502  0.39364542955E+02 -0.12598952443E+03  0.58729973378E+03  0.60196843339E+03  0.47000000000E+01 0.  1.
         13    1    6    6    0    0 -0.54144027062E+02 -0.48039866665E+02  0.48914952506E+03  0.49447614940E+03  0.00000000000E+00 0. -1.
        -14    1    6    6    0    0  0.15031437177E+02  0.13749439633E+02  0.23742427934E+03  0.23829662107E+03  0.00000000000E+00 0.  1.
</event>
<event>
12    1  0.8453150E-002  0.1872101E+03  0.7818608E-02  0.1161305E+00
         21   -1    0    0  503  502  0.00000000000E+00  0.00000000000E+00  0.14866309604E+04  0.14866309604E+04  0.00000000000E+00 0. -1.
         21   -1    0    0  501  503 -0.00000000000E+00 -0.00000000000E+00 -0.85749177748E+02  0.85749177748E+02  0.00000000000E+00 0.  1.
          6    2    1    2  501    0 -0.70359759726E+02 -0.42796439209E+01  0.29433929491E+02  0.18821365770E+03  0.17201515514E+03 0.  0.
         24    2    3    3    0    0 -0.82829183615E+02  0.39078638737E+02  0.54958376482E+02  0.13616546271E+03  0.84455884497E+02 0.  0.
         -6    2    1    2    0  502  0.70359759726E+02  0.42796439209E+01  0.13714478532E+04  0.13841664804E+04  0.17343246675E+03 0.  0.
        -24    2    5    5    0    0 -0.27861027622E+02  0.24017614483E+01  0.78141916100E+03  0.78599694171E+03  0.79958000681E+02 0.  0.
          5    1    3    3  501    0  0.12469423889E+02 -0.43358282658E+02 -0.25524446991E+02  0.52048194986E+02  0.47000000000E+01 0. -1.
        -11    1    4    4    0    0 -0.76640043599E+02 -0.74829121518E+01  0.27561325797E+02  0.81788244491E+02  0.00000000000E+00 0.  1.
         12    1    4    4    0    0 -0.61891400156E+01  0.46561550888E+02  0.27397050685E+02  0.54377218221E+02  0.00000000000E+00 0. -1.
         -5    1    5    5    0  502  0.98220787348E+02  0.18778824726E+01  0.59002869215E+03  0.59816953874E+03  0.47000000000E+01 0.  1.
         13    1    6    6    0    0  0.21489602467E+02 -0.19025384332E+01  0.48399386719E+03  0.48447444323E+03  0.00000000000E+00 0. -1.
        -14    1    6    6    0    0 -0.49350630090E+02  0.43042998815E+01  0.29742529381E+03  0.30152249848E+03  0.00000000000E+00 0.  1.
</event>
<event>
12    1  0.8453150E-002  0.1900334E+03  0.7818608E-02  0.1158664E+00
         21   -1    0    0  501  502  0.00000000000E+00  0.00000000000E+00  0.14736133927E+03  0.14736133927E+03  0.00000000000E+00 0. -1.
         21   -1    0    0  502  503 -0.00000000000E+00 -0.00000000000E+00 -0.35552920067E+03  0.35552920067E+03  0.00000000000E+00 0.  1.
         -6    2    1    2    0  503  0.29089597841E+02  0.73007848540E+02  0.36721035402E+02  0.19354877580E+03  0.17302122275E+03 0.  0.
        -24    2    3    3    0    0 -0.28024714493E+02  0.36178795985E+02  0.64483613960E+02  0.11998740990E+03  0.90247172608E+02 0.  0.
          6    2    1    2  501    0 -0.29089597841E+02 -0.73007848540E+02 -0.24488889681E+03  0.30934176414E+03  0.17188776748E+03 0.  0.
         24    2    5    5    0    0  0.48948113507E+02 -0.35879286814E+02 -0.10808159210E+03  0.14745679538E+03  0.79866356591E+02 0.  0.
          5    1    5    5  501    0 -0.78037711348E+02 -0.37128561726E+02 -0.13680730471E+03  0.16188496876E+03  0.47000000000E+01 0. -1.
        -11    1    6    6    0    0  0.42965221225E+02 -0.59946875580E+02 -0.67968199929E+02  0.10029613317E+03  0.00000000000E+00 0.  1.
         12    1    6    6    0    0  0.59828922821E+01  0.24067588766E+02 -0.40113392166E+02  0.47160662211E+02  0.00000000000E+00 0. -1.
         -5    1    3    3    0  503  0.57114312334E+02  0.36829052555E+02 -0.27762578558E+02  0.73561365904E+02  0.47000000000E+01 0.  1.
         13    1    4    4    0    0  0.16050431889E-01  0.44484852390E+02  0.76400304160E+02  0.88407628774E+02  0.00000000000E+00 0. -1.
        -14    1    4    4    0    0 -0.28040764925E+02 -0.83060564052E+01 -0.11916690200E+02  0.31579781125E+02  0.00000000000E+00 0.  1.
</event>
<event>
12    1  0.8453150E-002  0.2035460E+03  0.7818608E-02  0.1146964E+00
         21   -1    0    0  501  502  0.00000000000E+00  0.00000000000E+00  0.15744144098E+03  0.15744144098E+03  0.00000000000E+00 0. -1.
         21   -1    0    0  502  503 -0.00000000000E+00 -0.00000000000E+00 -0.26472313533E+03  0.26472313533E+03  0.00000000000E+00 0.  1.
         -6    2    1    2    0  503  0.98373796130E+02 -0.43158098469E+02 -0.32379058685E+02  0.20610529221E+03  0.17289003097E+03 0.  0.
        -24    2    3    3    0    0  0.89428408585E+01 -0.71721692171E+02 -0.48943773454E+01  0.10817025071E+03  0.80329774547E+02 0.  0.
          6    2    1    2  501    0 -0.98373796130E+02  0.43158098469E+02 -0.74902635666E+02  0.21605928410E+03  0.17184639707E+03 0.  0.
         24    2    5    5    0    0 -0.11681886911E+03  0.64485762176E+02 -0.29425694075E+02  0.16234399602E+03  0.87662077716E+02 0.  0.
          5    1    5    5  501    0  0.18445072979E+02 -0.21327663706E+02 -0.45476941590E+02  0.53715288073E+02  0.47000000000E+01 0. -1.
        -13    1    6    6    0    0 -0.37748809294E+02 -0.18596566384E+02 -0.21810578465E+02  0.47397322892E+02  0.00000000000E+00 0.  1.
         14    1    6    6    0    0 -0.79070059815E+02  0.83082328559E+02 -0.76151156106E+01  0.11494667313E+03  0.00000000000E+00 0. -1.
         -5    1    3    3    0  503  0.89430955272E+02  0.28563593702E+02 -0.27484681339E+02  0.97935041504E+02  0.47000000000E+01 0.  1.
         13    1    4    4    0    0  0.36662997513E+02 -0.56170886131E+02  0.17459801057E+02  0.69312253522E+02  0.00000000000E+00 0. -1.
        -14    1    4    4    0    0 -0.27720156655E+02 -0.15550806040E+02 -0.22354178403E+02  0.38857997189E+02  0.00000000000E+00 0.  1.
</event>
<event>
12    1  0.8453150E-002  0.2334141E+03  0.7818608E-02  0.1124306E+00
         21   -1    0    0  503  502  0.00000000000E+00  0.00000000000E+00  0.18216269335E+03  0.18216269335E+03  0.00000000000E+00 0.  1.
         21   -1    0    0  501  503 -0.00000000000E+00 -0.00000000000E+00 -0.38634113554E+03  0.38634113554E+03  0.00000000000E+00 0.  1.
          6    2    1    2  501    0  0.13892936799E+03  0.74540972143E+02 -0.23739541845E+03  0.33273803086E+03  0.17175647488E+03 0.  0.
         24    2    3    3    0    0  0.12736271524E+03  0.10541397651E+03 -0.23615068128E+03  0.29941282681E+03  0.80916802420E+02 0.  0.
         -6    2    1    2    0  502 -0.13892936799E+03 -0.74540972143E+02  0.33216976260E+02  0.23576579802E+03  0.17211745463E+03 0.  0.
        -24    2    5    5    0    0 -0.19661705988E+02 -0.46626198768E+02 -0.30275538904E+02  0.97717258538E+02  0.77919633382E+02 0.  0.
          5    1    3    3  501    0  0.11566652752E+02 -0.30873004363E+02 -0.12447371634E+01  0.33325204049E+02  0.47000000000E+01 0. -1.
        -11    1    4    4    0    0  0.13105831639E+03  0.98050045652E+02 -0.18255076166E+03  0.24518334839E+03  0.00000000000E+00 0.  1.
         12    1    4    4    0    0 -0.36956011565E+01  0.73639308548E+01 -0.53599919627E+02  0.54229478419E+02  0.00000000000E+00 0. -1.
         -5    1    5    5    0  502 -0.11926766200E+03 -0.27914773375E+02  0.63492515163E+02  0.13804853948E+03  0.47000000000E+01 0.  1.
         13    1    6    6    0    0  0.15885650682E+02 -0.14471328069E+02  0.19209861242E+02  0.28823462710E+02  0.00000000000E+00 0. -1.
        -14    1    6    6    0    0 -0.35547356670E+02 -0.32154870699E+02 -0.49485400146E+02  0.68893795828E+02  0.00000000000E+00 0.  1.
</event>
<event>
12    1  0.8453150E-002  0.3620919E+03  0.7818608E-02  0.1057778E+00
         21   -1    0    0  503  502  0.00000000000E+00  0.00000000000E+00  0.22832915994E+03  0.22832915994E+03  0.00000000000E+00 0. -1.
         21   -1    0    0  501  503 -0.00000000000E+00 -0.00000000000E+00 -0.61072249763E+03  0.61072249763E+03  0.00000000000E+00 0. -1.
          6    2    1    2  501    0 -0.18436307445E+03 -0.25895491045E+03 -0.88137960975E+02  0.37247182160E+03  0.17297274020E+03 0.  0.
         24    2    3    3    0    0 -0.42750821368E+02 -0.68455866165E+02 -0.70976166242E+02  0.13443709032E+03  0.80758137291E+02 0.  0.
         -6    2    1    2    0  502  0.18436307445E+03  0.25895491045E+03 -0.29425537672E+03  0.46657983597E+03  0.17338721908E+03 0.  0.
        -24    2    5    5    0    0  0.15800650073E+02  0.97724389450E+02 -0.12375197985E+03  0.17761258842E+03  0.80199515038E+02 0.  0.
          5    1    3    3  501    0 -0.14161225308E+03 -0.19049904429E+03 -0.17161794733E+02  0.23803473128E+03  0.47000000000E+01 0. -1.
        -13    1    4    4    0    0 -0.48205158649E+02 -0.81342510841E+02 -0.74063426686E+02  0.12010717115E+03  0.00000000000E+00 0.  1.
         14    1    4    4    0    0  0.54543372802E+01  0.12886644676E+02  0.30872604443E+01  0.14329919164E+02  0.00000000000E+00 0. -1.
         -5    1    5    5    0  502  0.16856242437E+03  0.16123052100E+03 -0.17050339687E+03  0.28896724755E+03  0.47000000000E+01 0.  1.
         11    1    6    6    0    0  0.31101117178E+02  0.47695715812E+02 -0.18151148229E+02  0.59763073704E+02  0.00000000000E+00 0. -1.
        -12    1    6    6    0    0 -0.15300467105E+02  0.50028673638E+02 -0.10560083162E+03  0.11784951472E+03  0.00000000000E+00 0.  1.
</event>
<event>
12    1  0.8453150E-002  0.1803686E+03  0.7818608E-02  0.1167482E+00
         21   -1    0    0  501  502  0.00000000000E+00  0.00000000000E+00  0.53379294968E+03  0.53379294968E+03  0.00000000000E+00 0.  1.
         21   -1    0    0  502  503 -0.00000000000E+00 -0.00000000000E+00 -0.20971896894E+03  0.20971896894E+03  0.00000000000E+00 0.  1.
         -6    2    1    2    0  503 -0.21729823909E+02 -0.49655748518E+02 -0.15114573051E+03  0.23521418187E+03  0.17188019344E+03 0.  0.
        -24    2    3    3    0    0 -0.79616037923E+02 -0.29863537858E+02 -0.85495581561E+02  0.14535552936E+03  0.81167672506E+02 0.  0.
          6    2    1    2  501    0  0.21729823909E+02  0.49655748518E+02  0.47521971125E+03  0.50829773675E+03  0.17203178955E+03 0.  0.
         24    2    5    5    0    0  0.67998536270E+02 -0.31836297725E+01  0.21963756603E+03  0.24319942179E+03  0.79191930849E+02 0.  0.
          5    1    5    5  501    0 -0.46268712360E+02  0.52839378290E+02  0.25558214522E+03  0.26509831496E+03  0.47000000000E+01 0. -1.
        -13    1    6    6    0    0  0.30523590152E+02 -0.21193723879E+02  0.18612120871E+03  0.18979454107E+03  0.00000000000E+00 0.  1.
         14    1    6    6    0    0  0.37474946117E+02  0.18010094106E+02  0.33516357317E+02  0.53404880713E+02  0.00000000000E+00 0. -1.
         -5    1    3    3    0  503  0.57886214014E+02 -0.19792210660E+02 -0.65650148947E+02  0.89858652518E+02  0.47000000000E+01 0.  1.
         11    1    4    4    0    0 -0.50349657737E+02 -0.28894778712E+02 -0.33515961616E+01  0.58148340199E+02  0.00000000000E+00 0. -1.
        -12    1    4    4    0    0 -0.29266380186E+02 -0.96875914604E+00 -0.82143985399E+02  0.87207189157E+02  0.00000000000E+00 0.  1.
</event>
<event>
12    1  0.8453150E-002  0.1831959E+03  0.7818608E-02  0.1165173E+00
         21   -1    0    0  501  502  0.00000000000E+00  0.00000000000E+00  0.14163446277E+03  0.14163446277E+03  0.00000000000E+00 0.  1.
         21   -1    0    0  502  503 -0.00000000000E+00 -0.00000000000E+00 -0.45978146063E+03  0.45978146063E+03  0.00000000000E+00 0.  1.
         -6    2    1    2    0  503 -0.17544916880E+02 -0.57288716924E+02 -0.36990168568E+03  0.41278082869E+03  0.17312115489E+03 0.  0.
        -24    2    3    3    0    0 -0.24771896276E+02  0.34345966934E+02 -0.19323330794E+03  0.21357503006E+03  0.80510184921E+02 0.  0.
          6    2    1    2  501    0  0.17544916880E+02  0.57288716924E+02  0.51754687827E+02  0.18863509470E+03  0.17121574124E+03 0.  0.
         24    2    5    5    0    0  0.42129484958E+02  0.75129746974E+02 -0.11932360811E+02  0.11791852306E+03  0.79643106814E+02 0.  0.
          5    1    5    5  501    0 -0.24584568079E+02 -0.17841030050E+02  0.63687048638E+02  0.70716571644E+02  0.47000000000E+01 0. -1.
        -11    1    6    6    0    0  0.61218562461E+02  0.32876858243E+02 -0.16219286634E+02  0.71355906950E+02  0.00000000000E+00 0.  1.
         12    1    6    6    0    0 -0.19089077503E+02  0.42252888731E+02  0.42869258225E+01  0.46562616111E+02  0.00000000000E+00 0. -1.
         -5    1    3    3    0  503  0.72269793962E+01 -0.91634683858E+02 -0.17666837774E+03  0.19920579864E+03  0.47000000000E+01 0.  1.
         13    1    4    4    0    0 -0.30732794345E+02 -0.10189492445E+02 -0.14102286931E+03  0.14469201800E+03  0.00000000000E+00 0. -1.
        -14    1    4    4    0    0  0.59608980684E+01  0.44535459379E+02 -0.52210438631E+02  0.68883012056E+02  0.00000000000E+00 0.  1.
</event>
<event>
12    1  0.8453150E-002  0.2184190E+03  0.7818608E-02  0.1135111E+00
         21   -1    0    0  503  502  0.00000000000E+00  0.00000000000E+00  0.28864171601E+04  0.28864171601E+04  0.00000000000E+00 0.  1.
         21   -1    0    0  501  503 -0.00000000000E+00 -0.00000000000E+00 -0.39842049025E+02  0.39842049025E+02  0.00000000000E+00 0.  1.
          6    2    1    2  501    0 -0.13410196910E+03  0.10754984607E+02  0.30394743151E+03  0.37428721064E+03  0.17206936716E+03 0.  0.
         24    2    3    3    0    0 -0.13044284135E+03  0.18552318397E+02  0.13403812554E+03  0.20409481984E+03  0.79554717079E+02 0.  0.
         -6    2    1    2    0  502  0.13410196910E+03 -0.10754984607E+02  0.25426276795E+04  0.25519719985E+04  0.17177472562E+03 0.  0.
        -24    2    5    5    0    0  0.10778188817E+03  0.43965029467E+02  0.21776100391E+04  0.21819084979E+04  0.72037154842E+02 0.  0.
          5    1    3    3  501    0 -0.36591277447E+01 -0.77973337896E+01  0.16990930597E+03  0.17019239079E+03  0.47000000000E+01 0. -1.
        -11    1    4    4    0    0 -0.63594854215E+02 -0.22353851382E+02  0.95144098871E+02  0.11660360073E+03  0.00000000000E+00 0.  1.
         12    1    4    4    0    0 -0.66847987138E+02  0.40906169778E+02  0.38894026672E+02  0.87491219109E+02  0.00000000000E+00 0. -1.
         -5    1    5    5    0  502  0.26320080924E+02 -0.54720014074E+02  0.36501764044E+03  0.37006350054E+03  0.47000000000E+01 0.  1.
         11    1    6    6    0    0  0.29095849424E+02 -0.15954678268E+02  0.33310305311E+03  0.33475179492E+03  0.00000000000E+00 0. -1.
        -12    1    6    6    0    0  0.78686038749E+02  0.59919707735E+02  0.18445069860E+04  0.18471567030E+04  0.00000000000E+00 0.  1.
</event>
<event>
12    1  0.8453150E-002  0.1890316E+03  0.7818608E-02  0.1159583E+00
         21   -1    0    0  501  502  0.00000000000E+00  0.00000000000E+00  0.16613022179E+03  0.16613022179E+03  0.00000000000E+00 0.  1.
         21   -1    0    0  502  503 -0.00000000000E+00 -0.00000000000E+00 -0.48487327333E+03  0.48487327333E+03  0.00000000000E+00 0.  1.
         -6    2    1    2    0  503 -0.52659838637E+02  0.58502960035E+02 -0.40292007061E+03  0.44505903617E+03  0.17186421220E+03 0.  0.
        -24    2    3    3    0    0 -0.46038454258E+02  0.32844713431E+02 -0.40645982932E+03  0.41791482423E+03  0.79024635335E+02 0.  0.
          6    2    1    2  501    0  0.52659838637E+02 -0.58502960035E+02  0.84177019068E+02  0.20594445895E+03  0.17068009461E+03 0.  0.
         24    2    5    5    0    0  0.64465356122E+02 -0.84695533696E+02  0.21298569878E+02  0.13665369095E+03  0.83014978181E+02 0.  0.
          5    1    5    5  501    0 -0.11805517485E+02  0.26192573661E+02  0.62878449190E+02  0.69290768004E+02  0.47000000000E+01 0. -1.
        -13    1    6    6    0    0  0.50954611989E+02 -0.19159386996E+02 -0.20029538903E+02  0.58005491306E+02  0.00000000000E+00 0.  1.
         14    1    6    6    0    0  0.13510744133E+02 -0.65536146700E+02  0.41328108781E+02  0.78648199640E+02  0.00000000000E+00 0. -1.
         -5    1    3    3    0  503 -0.66213843791E+01  0.25658246605E+02  0.35397587090E+01  0.27144211936E+02  0.47000000000E+01 0.  1.
         13    1    4    4    0    0 -0.20640609562E+01  0.19203149048E+02 -0.31431181465E+03  0.31490464923E+03  0.00000000000E+00 0. -1.
        -14    1    4    4    0    0 -0.43974393302E+02  0.13641564383E+02 -0.92148014672E+02  0.10301017500E+03  0.00000000000E+00 0.  1.
</event>
<event>
12    1  0.8453150E-002  0.1849644E+03  0.7818608E-02  0.1163141E+00
         21   -1    0    0  501  502  0.00000000000E+00  0.00000000000E+00  0.70305998810E+02  0.70305998810E+02  0.00000000000E+00 0. -1.
         21   -1    0    0  502  503 -0.00000000000E+00 -0.00000000000E+00 -0.50549452541E+03  0.50549452541E+03  0.00000000000E+00 0. -1.
         -6    2    1    2    0  503 -0.15709703093E+02  0.73851272708E+02 -0.16086979335E+03  0.24494921185E+03  0.16858297874E+03 0.  0.
        -24    2    3    3    0    0 -0.61915917642E+02  0.74517080600E+02 -0.74949736730E+02  0.14727729320E+03  0.81772623156E+02 0.  0.
          6    2    1    2  501    0  0.15709703093E+02 -0.73851272708E+02 -0.27431873325E+03  0.33085131237E+03  0.16885206020E+03 0.  0.
         24    2    5    5    0    0  0.56266214251E+02 -0.11938872523E+02 -0.21472920986E+03  0.23571468855E+03  0.78385950830E+02 0.  0.
          5    1    5    5  501    0 -0.40556511159E+02 -0.61912400186E+02 -0.59589523389E+02  0.95136623820E+02  0.47000000000E+01 0. -1.
        -11    1    6    6    0    0  0.38167709468E+02  0.31468530629E+02 -0.95640999802E+02  0.10767656806E+03  0.00000000000E+00 0.  1.
         12    1    6    6    0    0  0.18098504783E+02 -0.43407403151E+02 -0.11908821006E+03  0.12803812049E+03  0.00000000000E+00 0. -1.
         -5    1    3    3    0  503  0.46206214550E+02 -0.66580789162E+00 -0.85920056618E+02  0.97671918648E+02  0.47000000000E+01 0.  1.
         13    1    4    4    0    0  0.14566309553E+02  0.38881120979E+02 -0.16730159053E+02  0.44764016402E+02  0.00000000000E+00 0. -1.
        -14    1    4    4    0    0 -0.76482227196E+02  0.35635959621E+02 -0.58219577677E+02  0.10251327680E+03  0.00000000000E+00 0.  1.
</event>
<event>
12    1  0.8453150E-002  0.1995489E+03  0.7818608E-02  0.1150599E+00
         21   -1    0    0  503  502  0.00000000000E+00  0.00000000000E+00  0.87057299968E+02  0.87057299968E+02  0.00000000000E+00 0. -1.
         21   -1    0    0  501  503 -0.00000000000E+00 -0.00000000000E+00 -0.46528058778E+03  0.46528058778E+03  0.00000000000E+00 0. -1.
          6    2    1    2  501    0 -0.69178617964E+02  0.61380417476E+02 -0.14394786637E+03  0.24605030887E+03  0.17682344141E+03 0.  0.
         24    2    3    3    0    0 -0.11695176577E+02  0.82315991407E+02 -0.14371360928E+03  0.18469243109E+03  0.80901131113E+02 0.  0.
         -6    2    1    2    0  502  0.69178617964E+02 -0.61380417476E+02 -0.23427542145E+03  0.30628757888E+03  0.17428101172E+03 0.  0.
        -24    2    5    5    0    0  0.31530345568E+02  0.18974753681E+02 -0.18559981311E+03  0.20496753746E+03  0.78804801993E+02 0.  0.
          5    1    3    3  501    0 -0.57483441387E+02 -0.20935573930E+02 -0.23425709202E+00  0.61357877781E+02  0.47000000000E+01 0. -1.
        -13    1    4    4    0    0 -0.15221806193E+02  0.42979199797E+02 -0.11947157916E+02  0.47134377913E+02  0.00000000000E+00 0.  1.
         14    1    4    4    0    0  0.35266296155E+01  0.39336791609E+02 -0.13176645136E+03  0.13755805318E+03  0.00000000000E+00 0. -1.
         -5    1    5    5    0  502  0.37648272396E+02 -0.80355171157E+02 -0.48675608342E+02  0.10132004142E+03  0.47000000000E+01 0.  1.
         11    1    6    6    0    0  0.37702188983E+02  0.38374166876E+02 -0.73781718834E+02  0.91311410961E+02  0.00000000000E+00 0. -1.
        -12    1    6    6    0    0 -0.61718434145E+01 -0.19399413195E+02 -0.11181809427E+03  0.11365612650E+03  0.00000000000E+00 0.  1.
</event>
<event>
12    1  0.8453150E-002  0.1791966E+03  0.7818608E-02  0.1168741E+00
         21   -1    0    0  503  502  0.00000000000E+00  0.00000000000E+00  0.49113849152E+02  0.49113849152E+02  0.00000000000E+00 0. -1.
         21   -1    0    0  501  503 -0.00000000000E+00 -0.00000000000E+00 -0.83840317209E+03  0.83840317209E+03  0.00000000000E+00 0. -1.
          6    2    1    2  501    0 -0.33265045165E+02  0.33224076030E+02 -0.60363848805E+03  0.62949057188E+03  0.17224561932E+03 0.  0.
         24    2    3    3    0    0  0.42969672460E+02  0.20089727759E+01 -0.25469914089E+03  0.27092834180E+03  0.81731788791E+02 0.  0.
         -6    2    1    2    0  502  0.33265045165E+02 -0.33224076030E+02 -0.18565083489E+03  0.25802644936E+03  0.17291909558E+03 0.  0.
        -24    2    5    5    0    0 -0.39402870142E+02  0.18784104022E+02 -0.95537938974E+02  0.13103077732E+03  0.78333505490E+02 0.  0.
          5    1    3    3  501    0 -0.76234717625E+02  0.31215103254E+02 -0.34893934716E+03  0.35856223008E+03  0.47000000000E+01 0. -1.
        -11    1    4    4    0    0 -0.95386055092E+01 -0.10233740859E+02 -0.40763489312E+01  0.14571584253E+02  0.00000000000E+00 0.  1.
         12    1    4    4    0    0  0.52508277969E+02  0.12242713634E+02 -0.25062279196E+03  0.25635675755E+03  0.00000000000E+00 0. -1.
         -5    1    5    5    0  502  0.72667915307E+02 -0.52008180052E+02 -0.90112895917E+02  0.12699567204E+03  0.47000000000E+01 0.  1.
         13    1    6    6    0    0  0.14564907606E+02 -0.44749857637E+01  0.37166107011E+01  0.15683597363E+02  0.00000000000E+00 0. -1.
        -14    1    6    6    0    0 -0.53967777748E+02  0.23259089786E+02 -0.99254549675E+02  0.11534717996E+03  0.00000000000E+00 0.  1.
</event>
<event>
12    1  0.8453150E-002  0.3623883E+03  0.7818608E-02  0.1057794E+00
         21   -1    0    0  501  502  0.00000000000E+00  0.00000000000E+00  0.15824824626E+03  0.15824824626E+03  0.00000000000E+00 0. -1.
         21   -1    0    0  502  503 -0.00000000000E+00 -0.00000000000E+00 -0.88515092949E+03  0.88515092949E+03  0.00000000000E+00 0.  1.
         -6    2    1    2    0  503 -0.31777636369E+03  0.21856701629E+02 -0.49719664236E+03  0.61434188395E+03  0.16956390085E+03 0.  0.
        -24    2    3    3    0    0 -0.71439636022E+02 -0.10098045646E+02 -0.10108685675E+03  0.14676521480E+03  0.78204114649E+02 0.  0.
          6    2    1    2  501    0  0.31777636369E+03 -0.21856701629E+02 -0.22970604086E+03  0.42905729180E+03  0.17281713375E+03 0.  0.
         24    2    5    5    0    0  0.17440561989E+03 -0.59403560656E+02 -0.73832477883E+02  0.21392106883E+03  0.79780233336E+02 0.  0.
          5    1    5    5  501    0  0.14337074380E+03  0.37546859027E+02 -0.15587356298E+03  0.21513622297E+03  0.47000000000E+01 0. -1.
        -13    1    6    6    0    0 -0.72079936992E+01 -0.41801099632E+00  0.33508090238E+01  0.79597630288E+01  0.00000000000E+00 0.  1.
         14    1    6    6    0    0  0.18161361359E+03 -0.58985549660E+02 -0.77183286907E+02  0.20596130580E+03  0.00000000000E+00 0. -1.
         -5    1    3    3    0  503 -0.24633672767E+03  0.31954747275E+02 -0.39610978562E+03  0.46757666915E+03  0.47000000000E+01 0.  1.
         11    1    4    4    0    0 -0.47103542624E+02  0.92794857492E+01 -0.80676165913E+01  0.48682019483E+02  0.00000000000E+00 0. -1.
        -12    1    4    4    0    0 -0.24336093398E+02 -0.19377531395E+02 -0.93019240154E+02  0.98083195318E+02  0.00000000000E+00 0.  1.
</event>
<event>
12    1  0.8453150E-002  0.1782787E+03  0.7818608E-02  0.1169497E+00
         21   -1    0    0  503  502  0.00000000000E+00  0.00000000000E+00  0.23920692886E+03  0.23920692886E+03  0.00000000000E+00 0.  1.
         21   -1    0    0  501  503 -0.00000000000E+00 -0.00000000000E+00 -0.34781592296E+03  0.34781592296E+03  0.00000000000E+00 0.  1.
          6    2    1    2  501    0 -0.41358541428E+02  0.25032823253E+02 -0.28507353971E+03  0.33622943487E+03  0.17159877227E+03 0.  0.
         24    2    3    3    0    0 -0.86339391082E+02 -0.13708613276E+02 -0.17835015517E+03  0.21401590637E+03  0.79697012506E+02 0.  0.
         -6    2    1    2    0  502  0.41358541428E+02 -0.25032823253E+02  0.17646454560E+03  0.25079341695E+03  0.17152384949E+03 0.  0.
        -24    2    5    5    0    0 -0.43252411085E+02 -0.15886982945E+02  0.82475144946E+02  0.12391253929E+03  0.80181048684E+02 0.  0.
          5    1    3    3  501    0  0.44980849654E+02  0.38741436530E+02 -0.10672338454E+03  0.12221352850E+03  0.47000000000E+01 0. -1.
        -11    1    4    4    0    0 -0.30279494698E+02 -0.28586089093E+02 -0.13591071465E+03  0.14214687702E+03  0.00000000000E+00 0.  1.
         12    1    4    4    0    0 -0.56059896384E+02  0.14877475816E+02 -0.42439440513E+02  0.71869029354E+02  0.00000000000E+00 0. -1.
         -5    1    5    5    0  502  0.84610952513E+02 -0.91458403088E+01  0.93989400652E+02  0.12688087766E+03  0.47000000000E+01 0.  1.
         13    1    6    6    0    0 -0.54326998859E+02  0.17320859034E+02  0.45072751545E+02  0.72684165363E+02  0.00000000000E+00 0. -1.
        -14    1    6    6    0    0  0.11074587774E+02 -0.33207841979E+02  0.37402393401E+02  0.51228373929E+02  0.00000000000E+00 0.  1.
</event>
<event>
12    1  0.8453150E-002  0.1827243E+03  0.7818608E-02  0.1165381E+00
         21   -1    0    0  503  502  0.00000000000E+00  0.00000000000E+00  0.20456302297E+03  0.20456302297E+03  0.00000000000E+00 0.  1.
         21   -1    0    0  501  503 -0.00000000000E+00 -0.00000000000E+00 -0.18316875136E+03  0.18316875136E+03  0.00000000000E+00 0.  1.
          6    2    1    2  501    0  0.12720384031E+02 -0.58115839832E+02  0.75826912376E+02  0.19783299789E+03  0.17276838659E+03 0.  0.
         24    2    3    3    0    0 -0.11028120646E+02 -0.76326615185E+02 -0.20577618712E+02  0.96780796395E+02  0.54733102676E+02 0.  0.
         -6    2    1    2    0  502 -0.12720384031E+02  0.58115839832E+02 -0.54432640763E+02  0.18989877644E+03  0.17192839761E+03 0.  0.
        -24    2    5    5    0    0 -0.25435453748E+01  0.93095062831E+02 -0.25439852968E+02  0.14310362893E+03  0.10563286490E+03 0.  0.
          5    1    3    3  501    0  0.23748504677E+02  0.18210775353E+02  0.96404531088E+02  0.10105220150E+03  0.47000000000E+01 0. -1.
        -13    1    4    4    0    0 -0.33382321572E+02 -0.46509511081E+02 -0.10891970646E+02  0.58276487875E+02  0.00000000000E+00 0.  1.
         14    1    4    4    0    0  0.22354200926E+02 -0.29817104105E+02 -0.96856480652E+01  0.38504308521E+02  0.00000000000E+00 0. -1.
         -5    1    5    5    0  502 -0.10176838657E+02 -0.34979222999E+02 -0.28992787795E+02  0.46795147513E+02  0.47000000000E+01 0.  1.
         11    1    6    6    0    0 -0.18975201025E+02  0.27152647326E+02 -0.58730821313E+02  0.67428731879E+02  0.00000000000E+00 0. -1.
        -12    1    6    6    0    0  0.16431655650E+02  0.65942415505E+02  0.33290968345E+02  0.75674897050E+02  0.00000000000E+00 0.  1.
</event>
<event>
12    1  0.8453150E-002  0.2122283E+03  0.7818608E-02  0.1141216E+00
         21   -1    0    0  503  502  0.00000000000E+00  0.00000000000E+00  0.65266981540E+03  0.65266981540E+03  0.00000000000E+00 0. -1.
         21   -1    0    0  501  503 -0.00000000000E+00 -0.00000000000E+00 -0.10405685248E+03  0.10405685248E+03  0.00000000000E+00 0. -1.
          6    2    1    2  501    0  0.11915740527E+03 -0.33579768237E+02  0.50704902331E+02  0.21820136995E+03  0.17237970489E+03 0.  0.
         24    2    3    3    0    0  0.30121065225E+01 -0.18734289927E+01  0.46025794374E+02  0.97623567587E+02  0.86019792367E+02 0.  0.
         -6    2    1    2    0  502 -0.11915740527E+03  0.33579768237E+02  0.49790806059E+03  0.53852529793E+03  0.16361837195E+03 0.  0.
        -24    2    5    5    0    0 -0.11724846420E+02  0.34949610538E+02  0.16629466370E+03  0.18990922520E+03  0.83980065130E+02 0.  0.
          5    1    3    3  501    0  0.11614529875E+03 -0.31706339245E+02  0.46791079570E+01  0.12057780236E+03  0.47000000000E+01 0. -1.
        -11    1    4    4    0    0  0.20452985596E+02  0.12912241198E+01 -0.20374339361E+02  0.28898193437E+02  0.00000000000E+00 0.  1.
         12    1    4    4    0    0 -0.17440879073E+02 -0.31646531125E+01  0.66400133735E+02  0.68725374151E+02  0.00000000000E+00 0. -1.
         -5    1    5    5    0  502 -0.10743255885E+03 -0.13698423004E+01  0.33161339689E+03  0.34861607273E+03  0.47000000000E+01 0.  1.
         11    1    6    6    0    0 -0.40923788763E+02 -0.59662386937E+01  0.70841073827E+02  0.82029325438E+02  0.00000000000E+00 0. -1.
        -12    1    6    6    0    0  0.29198942342E+02  0.40915849232E+02  0.95453589876E+02  0.10787989976E+03  0.00000000000E+00 0.  1.
</event>
<event>
12    1  0.8453150E-002  0.2177084E+03  0.7818608E-02  0.1135740E+00
         21   -1    0    0  501  502  0.00000000000E+00  0.00000000000E+00  0.22356435051E+04  0.22356435051E+04  0.00000000000E+00 0.  1.
         21   -1    0    0  502  503 -0.00000000000E+00 -0.00000000000E+00 -0.22664287755E+02  0.22664287755E+02  0.00000000000E+00 0.  1.
         -6    2    1    2    0  503 -0.11041129508E+03 -0.72703479148E+02  0.14019538011E+04  0.14187569963E+04  0.17297544413E+03 0.  0.
        -24    2    3    3    0    0 -0.15390512511E+02 -0.30856860283E+02  0.30653818272E+03  0.31842179486E+03  0.78979543369E+02 0.  0.
          6    2    1    2  501    0  0.11041129508E+03  0.72703479148E+02  0.81102541632E+03  0.83955079660E+03  0.17206645281E+03 0.  0.
         24    2    5    5    0    0  0.72447584948E+02  0.11267633041E+03  0.52896351843E+03  0.55211371415E+03  0.84157836939E+02 0.  0.
          5    1    5    5  501    0  0.37963710130E+02 -0.39972851262E+02  0.28206189789E+03  0.28743708245E+03  0.47000000000E+01 0. -1.
        -11    1    6    6    0    0  0.45976674777E+02  0.45401531462E+02  0.11522035074E+03  0.13210178995E+03  0.00000000000E+00 0.  1.
         12    1    6    6    0    0  0.26470910172E+02  0.67274798947E+02  0.41374316769E+03  0.42001192420E+03  0.00000000000E+00 0. -1.
         -5    1    3    3    0  503 -0.95020782567E+02 -0.41846618864E+02  0.10954156183E+04  0.11003352014E+04  0.47000000000E+01 0.  1.
         13    1    4    4    0    0 -0.20102703480E+02  0.21278888155E+02  0.65176089548E+02  0.71448109961E+02  0.00000000000E+00 0. -1.
        -14    1    4    4    0    0  0.47121909689E+01 -0.52135748438E+02  0.24136209317E+03  0.24697368490E+03  0.00000000000E+00 0.  1.
</event>
<event>
12    1  0.8453150E-002  0.2159123E+03  0.7818608E-02  0.1137007E+00
         21   -1    0    0  503  502  0.00000000000E+00  0.00000000000E+00  0.19514481611E+04  0.19514481611E+04  0.00000000000E+00 0. -1.
         21   -1    0    0  501  503 -0.00000000000E+00 -0.00000000000E+00 -0.66599049162E+02  0.66599049162E+02  0.00000000000E+00 0. -1.
          6    2    1    2  501    0 -0.10215956282E+03  0.83293039254E+02  0.13401170111E+03  0.25394694262E+03  0.17075013021E+03 0.  0.
         24    2    3    3    0    0 -0.46768304305E+02  0.12516513168E+02  0.86930800244E+00  0.93240704386E+02  0.79681465024E+02 0.  0.
         -6    2    1    2    0  502  0.10215956282E+03 -0.83293039254E+02  0.17508374109E+04  0.17641002677E+04  0.17100821176E+03 0.  0.
        -24    2    5    5    0    0  0.12356711085E+03 -0.22108439982E+02  0.13366165792E+04  0.13448117922E+04  0.78849620151E+02 0.  0.
          5    1    3    3  501    0 -0.55391258511E+02  0.70776526086E+02  0.13314239311E+03  0.16070623823E+03  0.47000000000E+01 0. -1.
        -11    1    4    4    0    0 -0.46992354938E+02 -0.25368476495E+02  0.98542108121E+01  0.54304203272E+02  0.00000000000E+00 0.  1.
         12    1    4    4    0    0  0.22405063229E+00  0.37884989663E+02 -0.89849028097E+01  0.38936501114E+02  0.00000000000E+00 0. -1.
         -5    1    5    5    0  502 -0.21407548039E+02 -0.61184599272E+02  0.41422083164E+03  0.41928847548E+03  0.47000000000E+01 0.  1.
         13    1    6    6    0    0  0.11719487664E+03 -0.43718058646E+02  0.10841241248E+04  0.10913161896E+04  0.00000000000E+00 0. -1.
        -14    1    6    6    0    0  0.63722342174E+01  0.21609618664E+02  0.25249245439E+03  0.25349560255E+03  0.00000000000E+00 0.  1.
</event>
<event>
12    1  0.8453150E-002  0.2227713E+03  0.7818608E-02  0.1132329E+00
         21   -1    0    0  503  502  0.00000000000E+00  0.00000000000E+00  0.62861363455E+03  0.62861363455E+03  0.00000000000E+00 0.  1.
         21   -1    0    0  501  503 -0.00000000000E+00 -0.00000000000E+00 -0.78000444661E+02  0.78000444661E+02  0.00000000000E+00 0.  1.
          6    2    1    2  501    0  0.13180771593E+03 -0.32650627514E+02  0.27820355654E+03  0.35640463084E+03  0.17660040927E+03 0.  0.
         24    2    3    3    0    0  0.26608560550E+02 -0.59631114667E+02  0.75518305652E+02  0.12640852237E+03  0.77538472446E+02 0.  0.
         -6    2    1    2    0  502 -0.13180771593E+03  0.32650627514E+02  0.27240963335E+03  0.35020944838E+03  0.17320598123E+03 0.  0.
        -24    2    5    5    0    0 -0.79439464562E+01 -0.16093172491E+02  0.10460269506E+03  0.13596787920E+03  0.84990845814E+02 0.  0.
          5    1    3    3  501    0  0.10519915538E+03  0.26980487153E+02  0.20268525089E+03  0.22999610846E+03  0.47000000000E+01 0. -1.
        -11    1    4    4    0    0 -0.18774614325E+02 -0.28146425253E+02  0.60253754994E+02  0.69102983933E+02  0.00000000000E+00 0.  1.
         12    1    4    4    0    0  0.45383174875E+02 -0.31484689414E+02  0.15264550659E+02  0.57305538441E+02  0.00000000000E+00 0. -1.
         -5    1    5    5    0  502 -0.12386376948E+03  0.48743800005E+02  0.16780693829E+03  0.21424156918E+03  0.47000000000E+01 0.  1.
         11    1    6    6    0    0 -0.28947776228E+02 -0.27500958607E+02  0.10471133186E+03  0.11206578198E+03  0.00000000000E+00 0. -1.
        -12    1    6    6    0    0  0.21003829772E+02  0.11407786115E+02 -0.10863679200E+00  0.23902097211E+02  0.00000000000E+00 0.  1.
</event>
<event>
12    1  0.8453150E-002  0.1790661E+03  0.7818608E-02  0.1169238E+00
         21   -1    0    0  503  502  0.00000000000E+00  0.00000000000E+00  0.10837282827E+03  0.10837282827E+03  0.00000000000E+00 0.  1.
         21   -1    0    0  501  503 -0.00000000000E+00 -0.00000000000E+00 -0.29636358105E+03  0.29636358105E+03  0.00000000000E+00 0.  1.
          6    2    1    2  501    0  0.45383284244E+02 -0.24392744473E+00 -0.69818465942E+02  0.19019189437E+03  0.17099308907E+03 0.  0.
         24    2    3    3    0    0  0.52667868161E+02 -0.10596155761E+02  0.21033876062E+02  0.98341625775E+02  0.79639616802E+02 0.  0.
         -6    2    1    2    0  502 -0.45383284244E+02  0.24392744473E+00 -0.11817228684E+03  0.21454451494E+03  0.17321939131E+03 0.  0.
        -24    2    5    5    0    0 -0.26163951942E+02 -0.14900098433E+02  0.20203099700E+01  0.91796502404E+02  0.86694583953E+02 0.  0.
          5    1    3    3  501    0 -0.72845839170E+01  0.10352228316E+02 -0.90852342004E+02  0.91850268599E+02  0.47000000000E+01 0. -1.
        -11    1    4    4    0    0 -0.17100749423E+02 -0.18667255911E+02  0.11273621952E+01  0.25341132958E+02  0.00000000000E+00 0.  1.
         12    1    4    4    0    0  0.69768617584E+02  0.80711001498E+01  0.19906513867E+02  0.73000492817E+02  0.00000000000E+00 0. -1.
         -5    1    5    5    0  502 -0.19219332302E+02  0.15144025877E+02 -0.12019259681E+03  0.12274801254E+03  0.47000000000E+01 0.  1.
         13    1    6    6    0    0 -0.23802494507E+02 -0.36959561043E+02 -0.29724871367E+02  0.53067276876E+02  0.00000000000E+00 0. -1.
        -14    1    6    6    0    0 -0.23614574344E+01  0.22059462611E+02  0.31745181337E+02  0.38729225528E+02  0.00000000000E+00 0.  1.
</event>
<event>
12    1  0.8453150E-002  0.1720936E+03  0.7818608E-02  0.1175745E+00
         21   -1    0    0  503  502  0.00000000000E+00  0.00000000000E+00  0.57430231566E+03  0.57430231566E+03  0.00000000000E+00 0. -1.
         21   -1    0    0  501  503 -0.00000000000E+00 -0.00000000000E+00 -0.95736975091E+02  0.95736975091E+02  0.00000000000E+00 0. -1.
          6    2    1    2  501    0  0.83638636673E+01 -0.12993389041E+02  0.11448285596E+02  0.17222955018E+03  0.17115248271E+03 0.  0.
         24    2    3    3    0    0 -0.17942490519E+02  0.35020309821E+02  0.53364391002E+02  0.10311812246E+03  0.78976160240E+02 0.  0.
         -6    2    1    2    0  502 -0.83638636673E+01  0.12993389041E+02  0.46711705497E+03  0.49780974057E+03  0.17139840252E+03 0.  0.
        -24    2    5    5    0    0 -0.19313825826E+02  0.50644562798E+02  0.43900553775E+03  0.44933438645E+03  0.78978687405E+02 0.  0.
          5    1    3    3  501    0  0.26306354186E+02 -0.48013698862E+02 -0.41916105407E+02  0.69111427719E+02  0.47000000000E+01 0. -1.
        -13    1    4    4    0    0 -0.21532278021E+02  0.58979544223E+02  0.30489325776E+02  0.69798457145E+02  0.00000000000E+00 0.  1.
         14    1    4    4    0    0  0.35897875024E+01 -0.23959234403E+02  0.22875065226E+02  0.33319665313E+02  0.00000000000E+00 0. -1.
         -5    1    5    5    0  502  0.10949962159E+02 -0.37651173757E+02  0.28111517224E+02  0.48475354121E+02  0.47000000000E+01 0.  1.
         13    1    6    6    0    0  0.29123417948E+02  0.98096879695E+01  0.18574949810E+03  0.18827447914E+03  0.00000000000E+00 0. -1.
        -14    1    6    6    0    0 -0.48437243774E+02  0.40834874828E+02  0.25325603965E+03  0.26105990731E+03  0.00000000000E+00 0.  1.
</event>
<event>
12    1  0.8453150E-002  0.1882497E+03  0.7818608E-02  0.1163701E+00
         21   -1    0    0  501  502  0.00000000000E+00  0.00000000000E+00  0.13524580488E+03  0.13524580488E+03  0.00000000000E+00 0.  1.
         21   -1    0    0  502  503 -0.00000000000E+00 -0.00000000000E+00 -0.24792661555E+03  0.24792661555E+03  0.00000000000E+00 0. -1.
         -6    2    1    2    0  503 -0.43113288381E+02  0.63304285774E+02 -0.22424328917E+02  0.17440412741E+03  0.15507340487E+03 0.  0.
        -24    2    3    3    0    0 -0.62329919714E+02  0.55226292195E+01  0.16371818207E+02  0.10204923963E+03  0.78933469156E+02 0.  0.
          6    2    1    2  501    0  0.43113288381E+02 -0.63304285774E+02 -0.90256481747E+02  0.20876829302E+03  0.17196447145E+03 0.  0.
         24    2    5    5    0    0  0.20880747922E+02 -0.97442338969E+02 -0.23537585658E+02  0.13045358414E+03  0.80827622871E+02 0.  0.
          5    1    5    5  501    0  0.22232540459E+02  0.34138053195E+02 -0.66718896089E+02  0.78314708877E+02  0.47000000000E+01 0. -1.
        -13    1    6    6    0    0 -0.24295666431E+02 -0.72980855852E+02 -0.12981547937E+02  0.78006444062E+02  0.00000000000E+00 0.  1.
         14    1    6    6    0    0  0.45176414353E+02 -0.24461483117E+02 -0.10556037721E+02  0.52447140079E+02  0.00000000000E+00 0. -1.
         -5    1    3    3    0  503  0.19216631333E+02  0.57781656554E+02 -0.38796147124E+02  0.72354887779E+02  0.47000000000E+01 0.  1.
         11    1    4    4    0    0 -0.74867546362E+02  0.14362206528E+02 -0.42456151893E+01  0.76350820054E+02  0.00000000000E+00 0. -1.
        -12    1    4    4    0    0  0.12537626648E+02 -0.88395773083E+01  0.20617433396E+02  0.25698419578E+02  0.00000000000E+00 0.  1.
</event>
<event>
12    1  0.8453150E-002  0.1875540E+03  0.7818608E-02  0.1161423E+00
         21   -1    0    0  501  502  0.00000000000E+00  0.00000000000E+00  0.13608203211E+03  0.13608203211E+03  0.00000000000E+00 0.  1.
         21   -1    0    0  502  503 -0.00000000000E+00 -0.00000000000E+00 -0.25475081560E+03  0.25475081560E+03  0.00000000000E+00 0.  1.
         -6    2    1    2    0  503 -0.12647558296E+02 -0.64727144917E+02 -0.49139386330E+02  0.19080570959E+03  0.17217019343E+03 0.  0.
        -24    2    3    3    0    0  0.35460200488E+02 -0.23261683863E+02 -0.78398769156E+02  0.12072045865E+03  0.81415787031E+02 0.  0.
          6    2    1    2  501    0  0.12647558296E+02  0.64727144917E+02 -0.69529397159E+02  0.20002713811E+03  0.17557606583E+03 0.  0.
         24    2    5    5    0    0  0.50421618869E+02  0.88263152225E+02 -0.16183337096E+02  0.13039442011E+03  0.80050488476E+02 0.  0.
          5    1    5    5  501    0 -0.37774060573E+02 -0.23536007308E+02 -0.53346060063E+02  0.69632718003E+02  0.47000000000E+01 0. -1.
        -11    1    6    6    0    0  0.36990657903E+02  0.92923441227E+02  0.10088321447E+02  0.10052287765E+03  0.00000000000E+00 0.  1.
         12    1    6    6    0    0  0.13430960967E+02 -0.46602890026E+01 -0.26271658543E+02  0.29871542455E+02  0.00000000000E+00 0. -1.
         -5    1    3    3    0  503 -0.48107758785E+02 -0.41465461054E+02  0.29259382825E+02  0.70085250938E+02  0.47000000000E+01 0.  1.
         13    1    4    4    0    0  0.15490076018E+02  0.64434411261E+01  0.13860025272E+02  0.21761449610E+02  0.00000000000E+00 0. -1.
        -14    1    4    4    0    0  0.19970124470E+02 -0.29705124989E+02 -0.92258794427E+02  0.98959009045E+02  0.00000000000E+00 0.  1.
</event>
<event>
12    1  0.8453150E-002  0.1861128E+03  0.7818608E-02  0.1162950E+00
         21   -1    0    0  501  502  0.00000000000E+00  0.00000000000E+00  0.17666051086E+04  0.17666051086E+04  0.00000000000E+00 0.  1.
         21   -1    0    0  502  503 -0.00000000000E+00 -0.00000000000E+00 -0.20646761335E+02  0.20646761335E+02  0.00000000000E+00 0. -1.
         -6    2    1    2    0  503  0.48450901739E+02  0.54850681135E+02  0.62672617643E+03  0.65265122947E+03  0.16676882204E+03 0.  0.
        -24    2    3    3    0    0  0.41277570894E+02 -0.61718371011E-01  0.55394188236E+03  0.56107354792E+03  0.79044768787E+02 0.  0.
          6    2    1    2  501    0 -0.48450901739E+02 -0.54850681135E+02  0.11192321708E+04  0.11346006405E+04  0.17111947293E+03 0.  0.
         24    2    5    5    0    0 -0.54657987110E+02 -0.96735786251E+02  0.71960461028E+03  0.73270865611E+03  0.81767179834E+02 0.  0.
          5    1    5    5  501    0  0.62070853711E+01  0.41885105115E+02  0.39962756055E+03  0.40189198436E+03  0.47000000000E+01 0. -1.
        -13    1    6    6    0    0 -0.74533737726E+02 -0.89015655615E+02  0.58269055388E+03  0.59414421362E+03  0.00000000000E+00 0.  1.
         14    1    6    6    0    0  0.19875750616E+02 -0.77201306354E+01  0.13691405641E+03  0.13856444249E+03  0.00000000000E+00 0. -1.
         -5    1    3    3    0  503  0.71733308456E+01  0.54912399506E+02  0.72784294071E+02  0.91577681551E+02  0.47000000000E+01 0.  1.
         11    1    4    4    0    0 -0.17307661282E+02 -0.13028151522E+02  0.66192010534E+02  0.69646752471E+02  0.00000000000E+00 0. -1.
        -12    1    4    4    0    0  0.58585232175E+02  0.12966433151E+02  0.48774987182E+03  0.49142679545E+03  0.00000000000E+00 0.  1.
</event>
<event>
12    1  0.8453150E-002  0.2503796E+03  0.7818608E-02  0.1113345E+00
         21   -1    0    0  503  502  0.00000000000E+00  0.00000000000E+00  0.20970628914E+04  0.20970628914E+04  0.00000000000E+00 0.  1.
         21   -1    0    0  501  503 -0.00000000000E+00 -0.00000000000E+00 -0.39994360835E+02  0.39994360835E+02  0.00000000000E+00 0.  1.
          6    2    1    2  501    0 -0.11373633492E+03  0.13905983882E+03  0.15683682721E+04  0.15879508067E+04  0.17185789229E+03 0.  0.
         24    2    3    3    0    0 -0.11549565239E+03  0.10724559243E+03  0.15172200668E+04  0.15275068626E+04  0.80496096937E+02 0.  0.
         -6    2    1    2    0  502  0.11373633492E+03 -0.13905983882E+03  0.48870025851E+03  0.54910644551E+03  0.17440284739E+03 0.  0.
        -24    2    5    5    0    0  0.10720987269E+03 -0.11183005302E+03  0.49061113180E+03  0.52064950645E+03  0.79854294546E+02 0.  0.
          5    1    3    3  501    0  0.17593174660E+01  0.31814246396E+02  0.51148205292E+02  0.60443944083E+02  0.47000000000E+01 0. -1.
        -11    1    4    4    0    0 -0.52145541180E+02  0.47346110931E+02  0.10404183242E+04  0.10427996456E+04  0.00000000000E+00 0.  1.
         12    1    4    4    0    0 -0.63350111205E+02  0.59899481495E+02  0.47680174260E+03  0.48470721701E+03  0.00000000000E+00 0. -1.
         -5    1    5    5    0  502  0.65264622313E+01 -0.27229785804E+02 -0.19108732868E+01  0.28456939065E+02  0.47000000000E+01 0.  1.
         13    1    6    6    0    0  0.88331955677E+02 -0.36551274846E+02  0.24163477420E+03  0.25985744974E+03  0.00000000000E+00 0. -1.
        -14    1    6    6    0    0  0.18877917011E+02 -0.75278778171E+02  0.24897635760E+03  0.26079205670E+03  0.00000000000E+00 0.  1.
</event>
<event>
12    1  0.8453150E-002  0.2615627E+03  0.7818608E-02  0.1106376E+00
         21   -1    0    0  503  502  0.00000000000E+00  0.00000000000E+00  0.43884946745E+03  0.43884946745E+03  0.00000000000E+00 0. -1.
         21   -1    0    0  501  503 -0.00000000000E+00 -0.00000000000E+00 -0.21859909231E+03  0.21859909231E+03  0.00000000000E+00 0.  1.
          6    2    1    2  501    0 -0.19637543069E+03  0.39749469376E+01 -0.67038022204E+02  0.26892617103E+03  0.17102069776E+03 0.  0.
         24    2    3    3    0    0 -0.19829738104E+03 -0.33070866999E+02 -0.36440971361E+02  0.22061100008E+03  0.83221003306E+02 0.  0.
         -6    2    1    2    0  502  0.19637543069E+03 -0.39749469376E+01  0.28728839735E+03  0.38852238873E+03  0.17273075381E+03 0.  0.
        -24    2    5    5    0    0  0.77688030123E+02  0.37279828357E+02  0.21362606464E+03  0.24279358308E+03  0.76729478445E+02 0.  0.
          5    1    3    3  501    0  0.19219503515E+01  0.37045813936E+02 -0.30597050843E+02  0.48315170947E+02  0.47000000000E+01 0. -1.
        -11    1    4    4    0    0  0.52676731158E+01 -0.41916173993E+00 -0.11859670279E+02  0.12983676511E+02  0.00000000000E+00 0.  1.
         12    1    4    4    0    0 -0.20356505416E+03 -0.32651705259E+02 -0.24581301083E+02  0.20762732357E+03  0.00000000000E+00 0. -1.
         -5    1    5    5    0  502  0.11868740057E+03 -0.41254775295E+02  0.73662332711E+02  0.14572880566E+03  0.47000000000E+01 0.  1.
         11    1    6    6    0    0  0.78869814928E+02  0.28606209503E+02  0.10777141654E+03  0.13657760121E+03  0.00000000000E+00 0. -1.
        -12    1    6    6    0    0 -0.11817848056E+01  0.86736188540E+01  0.10585464810E+03  0.10621598187E+03  0.00000000000E+00 0.  1.
</event>
<event>
12    1  0.8453150E-002  0.2073170E+03  0.7818608E-02  0.1143783E+00
         21   -1    0    0  501  502  0.00000000000E+00  0.00000000000E+00  0.75600095333E+03  0.75600095333E+03  0.00000000000E+00 0.  1.
         21   -1    0    0  502  503 -0.00000000000E+00 -0.00000000000E+00 -0.57055017589E+02  0.57055017589E+02  0.00000000000E+00 0.  1.
         -6    2    1    2    0  503  0.56982003731E+02  0.96457002735E+02  0.37950241173E+03  0.43243775820E+03  0.17444033962E+03 0.  0.
        -24    2    3    3    0    0  0.46051953614E+02  0.41421510086E+02  0.35817705302E+03  0.37222785561E+03  0.80163902389E+02 0.  0.
          6    2    1    2  501    0 -0.56982003731E+02 -0.96457002735E+02  0.31944352401E+03  0.38061821271E+03  0.17399757668E+03 0.  0.
         24    2    5    5    0    0 -0.93402295379E+02 -0.33769838781E+02  0.15126087345E+03  0.19741446789E+03  0.78919132674E+02 0.  0.
          5    1    5    5  501    0  0.36420291648E+02 -0.62687163954E+02  0.16818265056E+03  0.18320374482E+03  0.47000000000E+01 0. -1.
        -13    1    6    6    0    0 -0.11893541984E+02 -0.43184312891E+02  0.54813600431E+02  0.70787513115E+02  0.00000000000E+00 0.  1.
         14    1    6    6    0    0 -0.81508753395E+02  0.94144741092E+01  0.96447273019E+02  0.12662695478E+03  0.00000000000E+00 0. -1.
         -5    1    3    3    0  503  0.10930050117E+02  0.55035492650E+02  0.21325358702E+02  0.60209902595E+02  0.47000000000E+01 0.  1.
         11    1    4    4    0    0  0.66756665784E+02  0.41410885063E+02  0.24877151338E+03  0.26088039347E+03  0.00000000000E+00 0. -1.
        -12    1    4    4    0    0 -0.20704712170E+02  0.10625022910E-01  0.10940553964E+03  0.11134746213E+03  0.00000000000E+00 0.  1.
</event>
<event>
12    1  0.8453150E-002  0.1997445E+03  0.7818608E-02  0.1151093E+00
         21   -1    0    0  503  502  0.00000000000E+00  0.00000000000E+00  0.32441892371E+02  0.32441892371E+02  0.00000000000E+00 0. -1.
         21   -1    0    0  501  503 -0.00000000000E+00 -0.00000000000E+00 -0.12405830945E+04  0.12405830945E+04  0.00000000000E+00 0.  1.
          6    2    1    2  501    0 -0.36980673666E+02 -0.84991494879E+02 -0.73073905492E+03  0.75754698537E+03  0.17693711944E+03 0.  0.
         24    2    3    3    0    0 -0.71367943920E+02 -0.90800776985E+01 -0.51693226620E+03  0.52802474132E+03  0.80095745042E+02 0.  0.
         -6    2    1    2    0  502  0.36980673666E+02  0.84991494879E+02 -0.47740214717E+03  0.51547800145E+03  0.17091996793E+03 0.  0.
        -24    2    5    5    0    0 -0.33631075124E+02  0.50997794156E+02 -0.16281157508E+03  0.19123903279E+03  0.79579736486E+02 0.  0.
          5    1    3    3  501    0  0.34387270254E+02 -0.75911417181E+02 -0.21380678872E+03  0.22952224405E+03  0.47000000000E+01 0. -1.
        -13    1    4    4    0    0 -0.85105960936E+02 -0.19029566082E+02 -0.37108891221E+03  0.38119828140E+03  0.00000000000E+00 0.  1.
         14    1    4    4    0    0  0.13738017016E+02  0.99494883839E+01 -0.14584335399E+03  0.14682645993E+03  0.00000000000E+00 0. -1.
         -5    1    5    5    0  502  0.70611748790E+02  0.33993700724E+02 -0.31459057208E+03  0.32423896866E+03  0.47000000000E+01 0.  1.
         13    1    6    6    0    0 -0.49051788391E+02  0.26318455160E+02 -0.14893667892E+03  0.15899960174E+03  0.00000000000E+00 0. -1.
        -14    1    6    6    0    0  0.15420713267E+02  0.24679338995E+02 -0.13874896165E+02  0.32239431051E+02  0.00000000000E+00 0.  1.
</event>
<event>
12    1  0.8453150E-002  0.1763523E+03  0.7818608E-02  0.1171501E+00
         21   -1    0    0  501  502  0.00000000000E+00  0.00000000000E+00  0.39402722075E+03  0.39402722075E+03  0.00000000000E+00 0. -1.
         21   -1    0    0  502  503 -0.00000000000E+00 -0.00000000000E+00 -0.51182146995E+03  0.51182146995E+03  0.00000000000E+00 0. -1.
         -6    2    1    2    0  503  0.30981674261E+01  0.22674138881E+02 -0.47552855914E+03  0.50700792885E+03  0.17437291689E+03 0.  0.
        -24    2    3    3    0    0  0.59789550403E+02  0.34317308842E+02 -0.21238394027E+03  0.23753314942E+03  0.81009820174E+02 0.  0.
          6    2    1    2  501    0 -0.30981674261E+01 -0.22674138881E+02  0.35773430994E+03  0.39884076185E+03  0.17486109227E+03 0.  0.
         24    2    5    5    0    0 -0.62908795565E+02  0.20330661505E+02  0.22093821689E+03  0.24339950230E+03  0.77838099188E+02 0.  0.
          5    1    5    5  501    0  0.59810628139E+02 -0.43004800386E+02  0.13679609305E+03  0.15544125955E+03  0.47000000000E+01 0. -1.
        -13    1    6    6    0    0  0.54536614928E+01  0.32252498240E+02  0.73098419783E+02  0.80083363074E+02  0.00000000000E+00 0.  1.
         14    1    6    6    0    0 -0.68362457058E+02 -0.11921836736E+02  0.14783979710E+03  0.16331613923E+03  0.00000000000E+00 0. -1.
         -5    1    3    3    0  503 -0.56691382977E+02 -0.11643169960E+02 -0.26314461887E+03  0.26947477943E+03  0.47000000000E+01 0.  1.
         13    1    4    4    0    0  0.18672917675E+02  0.54777233933E+02 -0.14363407201E+03  0.15485467333E+03  0.00000000000E+00 0. -1.
        -14    1    4    4    0    0  0.41116632728E+02 -0.20459925092E+02 -0.68749868265E+02  0.82678476087E+02  0.00000000000E+00 0.  1.
</event>
<event>
12    1  0.8453150E-002  0.3111460E+03  0.7818608E-02  0.1079800E+00
         21   -1    0    0  501  502  0.00000000000E+00  0.00000000000E+00  0.90221094623E+03  0.90221094623E+03  0.00000000000E+00 0. -1.
         21   -1    0    0  502  503 -0.00000000000E+00 -0.00000000000E+00 -0.10869864084E+03  0.10869864084E+03  0.00000000000E+00 0.  1.
         -6    2    1    2    0  503  0.11648633193E+03 -0.23126244626E+03  0.33939651194E+03  0.46042526939E+03  0.17248203328E+03 0.  0.
        -24    2    3    3    0    0  0.59115781093E+02 -0.17888145396E+03  0.32157418968E+03  0.38058246366E+03  0.77070111108E+02 0.  0.
          6    2    1    2  501    0 -0.11648633193E+03  0.23126244626E+03  0.45411579345E+03  0.55048431768E+03  0.17251216065E+03 0.  0.
         24    2    5    5    0    0 -0.12765263390E+03  0.13185726002E+03  0.36560749707E+03  0.41683595114E+03  0.80011475954E+02 0.  0.
          5    1    5    5  501    0  0.11166301974E+02  0.99405186237E+02  0.88508296383E+02  0.13364836654E+03  0.47000000000E+01 0. -1.
        -13    1    6    6    0    0 -0.99250232934E+02  0.90185252167E+02  0.17978263478E+03  0.22428950981E+03  0.00000000000E+00 0.  1.
         14    1    6    6    0    0 -0.28402400968E+02  0.41672007854E+02  0.18582486230E+03  0.19254644132E+03  0.00000000000E+00 0. -1.
         -5    1    3    3    0  503  0.57370550835E+02 -0.52380992302E+02  0.17822322254E+02  0.79842805738E+02  0.47000000000E+01 0.  1.
         13    1    4    4    0    0  0.77239758033E+02 -0.15717798686E+03  0.27174769417E+03  0.32329198731E+03  0.00000000000E+00 0. -1.
        -14    1    4    4    0    0 -0.18123976940E+02 -0.21703467101E+02  0.49826495518E+02  0.57290476345E+02  0.00000000000E+00 0.  1.
</event>
<event>
12    1  0.8453150E-002  0.1846846E+03  0.7818608E-02  0.1163792E+00
         21   -1    0    0  503  502  0.00000000000E+00  0.00000000000E+00  0.28612619996E+03  0.28612619996E+03  0.00000000000E+00 0.  1.
         21   -1    0    0  501  503 -0.00000000000E+00 -0.00000000000E+00 -0.14379910714E+03  0.14379910714E+03  0.00000000000E+00 0.  1.
          6    2    1    2  501    0  0.64195288336E+02  0.15668876671E+01 -0.19615653145E+02  0.18572338299E+03  0.17316151697E+03 0.  0.
         24    2    3    3    0    0  0.53858170811E+01  0.44160739486E+02  0.31792689539E+02  0.96629624401E+02  0.79670140367E+02 0.  0.
         -6    2    1    2    0  502 -0.64195288336E+02 -0.15668876671E+01  0.16194274596E+03  0.24420192412E+03  0.17113046658E+03 0.  0.
        -24    2    5    5    0    0  0.22889206753E+02 -0.82894481177E+01  0.30758923413E+02  0.86530787243E+02  0.77128691390E+02 0.  0.
          5    1    3    3  501    0  0.58809471255E+02 -0.42593851819E+02 -0.51408342684E+02  0.89093758590E+02  0.47000000000E+01 0. -1.
        -11    1    4    4    0    0  0.40146241155E+02  0.39239227737E+02  0.19070502913E+02  0.59288462230E+02  0.00000000000E+00 0.  1.
         12    1    4    4    0    0 -0.34760424074E+02  0.49215117492E+01  0.12722186627E+02  0.37341162171E+02  0.00000000000E+00 0. -1.
         -5    1    5    5    0  502 -0.87084495089E+02  0.67225604506E+01  0.13118382255E+03  0.15767113687E+03  0.47000000000E+01 0.  1.
         11    1    6    6    0    0 -0.23103224609E+02  0.15763704434E+02  0.43802221011E+01  0.28309710534E+02  0.00000000000E+00 0. -1.
        -12    1    6    6    0    0  0.45992431363E+02 -0.24053152552E+02  0.26378701312E+02  0.58221076710E+02  0.00000000000E+00 0.  1.
</event>
<event>
12    1  0.8453150E-002  0.1867002E+03  0.7818608E-02  0.1162114E+00
         21   -1    0    0  501  502  0.00000000000E+00  0.00000000000E+00  0.99879300898E+02  0.99879300898E+02  0.00000000000E+00 0. -1.
         21   -1    0    0  502  503 -0.00000000000E+00 -0.00000000000E+00 -0.48561448366E+03  0.48561448366E+03  0.00000000000E+00 0. -1.
         -6    2    1    2    0  503 -0.47664431341E+02 -0.46779668594E+02 -0.35205572928E+03  0.39849741509E+03  0.17434654544E+03 0.  0.
        -24    2    3    3    0    0  0.10656616312E+02 -0.83551136511E+02 -0.19874709287E+03  0.23033346696E+03  0.80366306346E+02 0.  0.
          6    2    1    2  501    0  0.47664431341E+02  0.46779668594E+02 -0.33679453484E+02  0.18699636947E+03  0.17138582555E+03 0.  0.
         24    2    5    5    0    0  0.11518805761E+02 -0.12463621074E+02  0.35713641318E+02  0.88742793322E+02  0.79446802666E+02 0.  0.
          5    1    5    5  501    0  0.36145625580E+02  0.59243289668E+02 -0.69393094802E+02  0.98253576146E+02  0.47000000000E+01 0. -1.
        -11    1    6    6    0    0 -0.64148998809E+01 -0.16271958870E+02 -0.22046943166E+02  0.28142410858E+02  0.00000000000E+00 0.  1.
         12    1    6    6    0    0  0.17933705642E+02  0.38083377961E+01  0.57760584484E+02  0.60600382464E+02  0.00000000000E+00 0. -1.
         -5    1    3    3    0  503 -0.58321047653E+02  0.36771467917E+02 -0.15330863641E+03  0.16816394812E+03  0.47000000000E+01 0.  1.
         11    1    4    4    0    0 -0.22715291671E+02 -0.76150228244E+02 -0.11410490699E+03  0.13904952908E+03  0.00000000000E+00 0. -1.
        -12    1    4    4    0    0  0.33371907983E+02 -0.74009082678E+01 -0.84642185879E+02  0.91283937886E+02  0.00000000000E+00 0.  1.
</event>
<event>
12    1  0.8453150E-002  0.1938588E+03  0.7818608E-02  0.1155897E+00
         21   -1    0    0  501  502  0.00000000000E+00  0.00000000000E+00  0.61472736492E+03  0.61472736492E+03  0.00000000000E+00 0. -1.
         21   -1    0    0  502  503 -0.00000000000E+00 -0.00000000000E+00 -0.64138407600E+02  0.64138407600E+02  0.00000000000E+00 0. -1.
         -6    2    1    2    0  503 -0.29775450125E+02  0.77579640665E+02  0.19071170778E+03  0.27194152278E+03  0.17514581997E+03 0.  0.
        -24    2    3    3    0    0  0.40498861058E+02  0.42476257537E+02  0.52941243933E+02  0.11327987956E+03  0.81149033288E+02 0.  0.
          6    2    1    2  501    0  0.29775450125E+02 -0.77579640665E+02  0.35987724954E+03  0.40692424974E+03  0.17079382955E+03 0.  0.
         24    2    5    5    0    0 -0.40948481259E+02 -0.10233089287E+02  0.18898758413E+03  0.21004154304E+03  0.81361223037E+02 0.  0.
          5    1    5    5  501    0  0.70723931384E+02 -0.67346551378E+02  0.17088966541E+03  0.19688270670E+03  0.47000000000E+01 0. -1.
        -11    1    6    6    0    0 -0.30114181936E+02  0.15680749052E+02  0.17573454942E+03  0.17898430575E+03  0.00000000000E+00 0.  1.
         12    1    6    6    0    0 -0.10834299323E+02 -0.25913838339E+02  0.13253034712E+02  0.31057237294E+02  0.00000000000E+00 0. -1.
         -5    1    3    3    0  503 -0.70274311183E+02  0.35103383128E+02  0.13777046384E+03  0.15866164321E+03  0.47000000000E+01 0.  1.
         13    1    4    4    0    0 -0.41185677939E+01  0.12858909760E+02 -0.19176370113E+02  0.23453087890E+02  0.00000000000E+00 0. -1.
        -14    1    4    4    0    0  0.44617428852E+02  0.29617347778E+02  0.72117614046E+02  0.89826791674E+02  0.00000000000E+00 0.  1.
</event>
<event>
12    1  0.8453150E-002  0.1836581E+03  0.7818608E-02  0.1164510E+00
         21   -1    0    0  501  502  0.00000000000E+00  0.00000000000E+00  0.21419487355E+03  0.21419487355E+03  0.00000000000E+00 0.  1.
         21   -1    0    0  502  503 -0.00000000000E+00 -0.00000000000E+00 -0.15675788256E+03  0.15675788256E+03  0.00000000000E+00 0. -1.
         -6    2    1    2    0  503  0.14099718557E+02  0.60681698032E+02  0.27195489684E+02  0.18566071078E+03  0.17276930957E+03 0.  0.
        -24    2    3    3    0    0  0.33744859734E+02  0.16600170782E+02  0.77092995709E+02  0.11608367633E+03  0.78216422146E+02 0.  0.
          6    2    1    2  501    0 -0.14099718557E+02 -0.60681698032E+02  0.30241501314E+02  0.18529204533E+03  0.17186483969E+03 0.  0.
         24    2    5    5    0    0  0.58218238163E+01 -0.94309652454E+02  0.57538077647E+02  0.13738692818E+03  0.81463694230E+02 0.  0.
          5    1    5    5  501    0 -0.19921542374E+02  0.33627954422E+02 -0.27296576333E+02  0.47905117145E+02  0.47000000000E+01 0. -1.
        -13    1    6    6    0    0 -0.89373023938E+00 -0.50103400655E+02  0.74313145291E+02  0.89630313365E+02  0.00000000000E+00 0.  1.
         14    1    6    6    0    0  0.67155540557E+01 -0.44206251799E+02 -0.16775067644E+02  0.47756614817E+02  0.00000000000E+00 0. -1.
         -5    1    3    3    0  503 -0.19645141176E+02  0.44081527250E+02 -0.49897506025E+02  0.69577034458E+02  0.47000000000E+01 0.  1.
         13    1    4    4    0    0 -0.23702615443E+01  0.37547933670E+02  0.13422423823E+02  0.39945299148E+02  0.00000000000E+00 0. -1.
        -14    1    4    4    0    0  0.36115121278E+02 -0.20947762888E+02  0.63670571886E+02  0.76138377177E+02  0.00000000000E+00 0.  1.
</event>
<event>
12    1  0.8453150E-002  0.2009044E+03  0.7818608E-02  0.1149467E+00
         21   -1    0    0  503  502  0.00000000000E+00  0.00000000000E+00  0.13366204608E+03  0.13366204608E+03  0.00000000000E+00 0.  1.
         21   -1    0    0  501  503 -0.00000000000E+00 -0.00000000000E+00 -0.30707242825E+03  0.30707242825E+03  0.00000000000E+00 0.  1.
          6    2    1    2  501    0  0.45374345549E+02  0.90414613604E+02 -0.12401280835E+03  0.23609689331E+03  0.17357687866E+03 0.  0.
         24    2    3    3    0    0 -0.32510040297E+02  0.60593135572E+02 -0.28667724964E+02  0.10933699019E+03  0.80026921541E+02 0.  0.
         -6    2    1    2    0  502 -0.45374345549E+02 -0.90414613604E+02 -0.49397573815E+02  0.20463758103E+03  0.17088822570E+03 0.  0.
        -24    2    5    5    0    0  0.26395456662E+02 -0.20091174733E+02  0.96604587819E+01  0.87991827663E+02  0.80925038381E+02 0.  0.
          5    1    3    3  501    0  0.77884385846E+02  0.29821478032E+02 -0.95345083391E+02  0.12675990311E+03  0.47000000000E+01 0. -1.
        -13    1    4    4    0    0  0.15463990555E+02  0.64961906577E+01  0.16948697970E+02  0.23845206223E+02  0.00000000000E+00 0.  1.
         14    1    4    4    0    0 -0.47974030852E+02  0.54096944914E+02 -0.45616422934E+02  0.85491783971E+02  0.00000000000E+00 0. -1.
         -5    1    5    5    0  502 -0.71769802211E+02 -0.70323438871E+02 -0.59058032597E+02  0.11664575337E+03  0.47000000000E+01 0.  1.
         11    1    6    6    0    0  0.31784126663E+01 -0.72682953596E+01  0.43939604265E+02  0.44649963578E+02  0.00000000000E+00 0. -1.
        -12    1    6    6    0    0  0.23217043995E+02 -0.12822879374E+02 -0.34279145483E+02  0.43341864085E+02  0.00000000000E+00 0.  1.
</event>
<event>
12    1  0.8453150E-002  0.3011817E+03  0.7818608E-02  0.1084711E+00
         21   -1    0    0  501  502  0.00000000000E+00  0.00000000000E+00  0.46540809805E+03  0.46540809805E+03  0.00000000000E+00 0. -1.
         21   -1    0    0  502  503 -0.00000000000E+00 -0.00000000000E+00 -0.25883995487E+03  0.25883995487E+03  0.00000000000E+00 0.  1.
         -6    2    1    2    0  503 -0.22031784352E+02 -0.24737555882E+03 -0.77065055641E+02  0.31088494353E+03  0.17038297653E+03 0.  0.
        -24    2    3    3    0    0  0.17870603192E+02 -0.10422414337E+03  0.20050458553E+02  0.13329541294E+03  0.78635969532E+02 0.  0.
          6    2    1    2  501    0  0.22031784352E+02  0.24737555882E+03  0.28363319882E+03  0.41336310939E+03  0.16953230402E+03 0.  0.
         24    2    5    5    0    0  0.32616732418E+02  0.24942429349E+03  0.20789797581E+03  0.33672008985E+03  0.82960961580E+02 0.  0.
          5    1    5    5  501    0 -0.10584948066E+02 -0.20487346725E+01  0.75735223011E+02  0.76643019537E+02  0.47000000000E+01 0. -1.
        -13    1    6    6    0    0  0.48304199322E+02  0.76207078927E+02  0.59400574285E+02  0.10802426938E+03  0.00000000000E+00 0.  1.
         14    1    6    6    0    0 -0.15687466904E+02  0.17321721456E+03  0.14849740152E+03  0.22869582047E+03  0.00000000000E+00 0. -1.
         -5    1    3    3    0  503 -0.39902387544E+02 -0.14315141545E+03 -0.97115514194E+02  0.17758953059E+03  0.47000000000E+01 0.  1.
         13    1    4    4    0    0 -0.27518301577E+02 -0.47373870202E+02  0.25327386381E+02  0.60357410486E+02  0.00000000000E+00 0. -1.
        -14    1    4    4    0    0  0.45388904769E+02 -0.56850273167E+02 -0.52769278282E+01  0.72938002459E+02  0.00000000000E+00 0.  1.
</event>
<event>
12    1  0.8453150E-002  0.1842954E+03  0.7818608E-02  0.1164342E+00
         21   -1    0    0  501  502  0.00000000000E+00  0.00000000000E+00  0.47599141524E+02  0.47599141524E+02  0.00000000000E+00 0. -1.
         21   -1    0    0  502  503 -0.00000000000E+00 -0.00000000000E+00 -0.84958188110E+03  0.84958188110E+03  0.00000000000E+00 0. -1.
         -6    2    1    2    0  503 -0.19316845173E+01  0.64383549342E+02 -0.58959070697E+03  0.61772323083E+03  0.17267256681E+03 0.  0.
        -24    2    3    3    0    0 -0.47123587380E+02  0.48957703091E+02 -0.53397499352E+03  0.54426941950E+03  0.80513465415E+02 0.  0.
          6    2    1    2  501    0  0.19316845173E+01 -0.64383549342E+02 -0.21239203261E+03  0.27945779180E+03  0.16981551475E+03 0.  0.
         24    2    5    5    0    0  0.63278381635E+00  0.12293496069E+02 -0.38327939170E+02  0.89190992118E+02  0.79589394350E+02 0.  0.
          5    1    5    5  501    0  0.12989007009E+01 -0.76677045411E+02 -0.17406409344E+03  0.19026679968E+03  0.47000000000E+01 0. -1.
        -13    1    6    6    0    0  0.15946883232E+02 -0.27272254047E+02  0.61983008015E+00  0.31598466971E+02  0.00000000000E+00 0.  1.
         14    1    6    6    0    0 -0.15314099416E+02  0.39565750116E+02 -0.38947769251E+02  0.57592525146E+02  0.00000000000E+00 0. -1.
         -5    1    3    3    0  503  0.45191902863E+02  0.15425846251E+02 -0.55615713452E+02  0.73453811335E+02  0.47000000000E+01 0.  1.
         13    1    4    4    0    0 -0.90571745985E+01  0.27012901630E+02 -0.44584251143E+02  0.52910157023E+02  0.00000000000E+00 0. -1.
        -14    1    4    4    0    0 -0.38066412782E+02  0.21944801462E+02 -0.48939074238E+03  0.49135926247E+03  0.00000000000E+00 0.  1.
</event>
<event>
12    1  0.8453150E-002  0.2062526E+03  0.7818608E-02  0.1145030E+00
         21   -1    0    0  501  502  0.00000000000E+00  0.00000000000E+00  0.18305496656E+03  0.18305496656E+03  0.00000000000E+00 0.  1.
         21   -1    0    0  502  503 -0.00000000000E+00 -0.00000000000E+00 -0.23931319358E+03  0.23931319358E+03  0.00000000000E+00 0.  1.
         -6    2    1    2    0  503 -0.20189879807E+02  0.11194601331E+03  0.13723101869E+02  0.20670866092E+03  0.17204826600E+03 0.  0.
        -24    2    3    3    0    0 -0.65077469109E+02  0.32025744465E+02 -0.19847388624E+02  0.10897835407E+03  0.78877357503E+02 0.  0.
          6    2    1    2  501    0  0.20189879807E+02 -0.11194601331E+03 -0.69981328895E+02  0.21565949922E+03  0.16932835577E+03 0.  0.
         24    2    5    5    0    0 -0.33402231274E+02 -0.59541003968E+02 -0.89507557696E+02  0.13805947999E+03  0.79924820436E+02 0.  0.
          5    1    5    5  501    0  0.53592111081E+02 -0.52405009339E+02  0.19526228801E+02  0.77600019234E+02  0.47000000000E+01 0. -1.
        -13    1    6    6    0    0 -0.59023735938E+02 -0.42717245274E+02 -0.73446901069E+02  0.10345536102E+03  0.00000000000E+00 0.  1.
         14    1    6    6    0    0  0.25621504665E+02 -0.16823758694E+02 -0.16060656626E+02  0.34604118962E+02  0.00000000000E+00 0. -1.
         -5    1    3    3    0  503  0.44887589301E+02  0.79920268842E+02  0.33570490492E+02  0.97730306850E+02  0.47000000000E+01 0.  1.
         13    1    4    4    0    0 -0.66017503812E+01 -0.13094814626E+02 -0.30988199634E+02  0.34283024877E+02  0.00000000000E+00 0. -1.
        -14    1    4    4    0    0 -0.58475718727E+02  0.45120559091E+02  0.11140811010E+02  0.74695329193E+02  0.00000000000E+00 0.  1.
</event>
<event>
12    1  0.8453150E-002  0.2097158E+03  0.7818608E-02  0.1142098E+00
         21   -1    0    0  501  502  0.00000000000E+00  0.00000000000E+00  0.35011360969E+03  0.35011360969E+03  0.00000000000E+00 0.  1.
         21   -1    0    0  502  503 -0.00000000000E+00 -0.00000000000E+00 -0.15567750849E+03  0.15567750849E+03  0.00000000000E+00 0.  1.
         -6    2    1    2    0  503  0.43248510852E+02 -0.11141248505E+03  0.21031989220E+03  0.29701042657E+03  0.17232980277E+03 0.  0.
        -24    2    3    3    0    0 -0.40438926229E+02 -0.48288044424E+02  0.85121370185E+02  0.13365485720E+03  0.81553241521E+02 0.  0.
          6    2    1    2  501    0 -0.43248510852E+02  0.11141248505E+03 -0.15883791006E+02  0.20878069161E+03  0.17045206615E+03 0.  0.
         24    2    5    5    0    0 -0.37135397819E+02  0.32859458351E+02  0.49726581887E+02  0.10614171662E+03  0.79589881812E+02 0.  0.
          5    1    5    5  501    0 -0.61131130336E+01  0.78553026702E+02 -0.65610372893E+02  0.10263897499E+03  0.47000000000E+01 0. -1.
        -11    1    6    6    0    0 -0.39463176270E+02  0.24166702281E+02 -0.86492428555E+01  0.47076333570E+02  0.00000000000E+00 0.  1.
         12    1    6    6    0    0  0.23277784511E+01  0.86927560705E+01  0.58375824743E+02  0.59065383051E+02  0.00000000000E+00 0. -1.
         -5    1    3    3    0  503  0.83687437082E+02 -0.63124440629E+02  0.12519852202E+03  0.16335556937E+03  0.47000000000E+01 0.  1.
         11    1    4    4    0    0 -0.42027540864E+01 -0.63858810405E+00 -0.15774297186E+02  0.16337055683E+02  0.00000000000E+00 0. -1.
        -12    1    4    4    0    0 -0.36236172143E+02 -0.47649456320E+02  0.10089566737E+03  0.11731780152E+03  0.00000000000E+00 0.  1.
</event>
<event>
12    1  0.8453150E-002  0.3761202E+03  0.7818608E-02  0.1052404E+00
         21   -1    0    0  501  502  0.00000000000E+00  0.00000000000E+00  0.25605317435E+03  0.25605317435E+03  0.00000000000E+00 0. -1.
         21   -1    0    0  502  503 -0.00000000000E+00 -0.00000000000E+00 -0.70123291411E+03  0.70123291411E+03  0.00000000000E+00 0.  1.
         -6    2    1    2    0  503 -0.19403214658E+02  0.33399483822E+03 -0.18999264201E+01  0.37612499445E+03  0.17186437975E+03 0.  0.
        -24    2    3    3    0    0 -0.35300061118E+02  0.16198767668E+03 -0.59705340084E+02  0.19390883381E+03  0.80930874713E+02 0.  0.
          6    2    1    2  501    0  0.19403214658E+02 -0.33399483822E+03 -0.44327981334E+03  0.58116109402E+03  0.17123722606E+03 0.  0.
         24    2    5    5    0    0  0.56473043158E+02 -0.29264034042E+03 -0.42018658307E+03  0.52083072059E+03  0.76683123798E+02 0.  0.
          5    1    5    5  501    0 -0.37069828500E+02 -0.41354497802E+02 -0.23093230265E+02  0.60330373425E+02  0.47000000000E+01 0. -1.
        -11    1    6    6    0    0 -0.13783255902E+02 -0.98964024583E+02 -0.16449370129E+03  0.19246307196E+03  0.00000000000E+00 0.  1.
         12    1    6    6    0    0  0.70256299060E+02 -0.19367631584E+03 -0.25569288178E+03  0.32836764863E+03  0.00000000000E+00 0. -1.
         -5    1    3    3    0  503  0.15896846460E+02  0.17200716154E+03  0.57805413664E+02  0.18221616064E+03  0.47000000000E+01 0.  1.
         11    1    4    4    0    0 -0.52715147279E+02  0.11156284552E+03 -0.14985392867E+02  0.12429689156E+03  0.00000000000E+00 0. -1.
        -12    1    4    4    0    0  0.17415086161E+02  0.50424831166E+02 -0.44719947217E+02  0.69611942246E+02  0.00000000000E+00 0.  1.
</event>
<event>
12    1  0.8453150E-002  0.2172594E+03  0.7818608E-02  0.1136207E+00
         21   -1    0    0  501  502  0.00000000000E+00  0.00000000000E+00  0.36811203329E+02  0.36811203329E+02  0.00000000000E+00 0.  1.
         21   -1    0    0  502  503 -0.00000000000E+00 -0.00000000000E+00 -0.21175340306E+04  0.21175340306E+04  0.00000000000E+00 0.  1.
         -6    2    1    2    0  503 -0.10717398311E+03  0.77338724045E+02 -0.17222080845E+04  0.17358578142E+04  0.17243585504E+03 0.  0.
        -24    2    3    3    0    0 -0.86273096319E+02  0.90150270171E+02 -0.16824019478E+04  0.16888726964E+04  0.79022479333E+02 0.  0.
          6    2    1    2  501    0  0.10717398311E+03 -0.77338724045E+02 -0.35851474281E+03  0.41848741972E+03  0.17067911048E+03 0.  0.
         24    2    5    5    0    0  0.11975271508E+03 -0.98674604501E+02 -0.35017291198E+03  0.39193331581E+03  0.83146048700E+02 0.  0.
          5    1    5    5  501    0 -0.12578731969E+02  0.21335880456E+02 -0.83418308383E+01  0.26554103911E+02  0.47000000000E+01 0. -1.
        -13    1    6    6    0    0  0.82786393490E+02 -0.70078575712E+02 -0.31583056825E+03  0.33393643342E+03  0.00000000000E+00 0.  1.
         14    1    6    6    0    0  0.36966321587E+02 -0.28596028789E+02 -0.34342343721E+02  0.57996882386E+02  0.00000000000E+00 0. -1.
         -5    1    3    3    0  503 -0.20900886789E+02 -0.12811546125E+02 -0.39806136656E+02  0.46985117837E+02  0.47000000000E+01 0.  1.
         11    1    4    4    0    0 -0.26567337814E+02 -0.31966060137E+01 -0.64807862047E+03  0.64863081952E+03  0.00000000000E+00 0. -1.
        -12    1    4    4    0    0 -0.59705758505E+02  0.93346876184E+02 -0.10343233274E+04  0.10402418769E+04  0.00000000000E+00 0.  1.
</event>
<event>
12    1  0.8453150E-002  0.3001319E+03  0.7818608E-02  0.1085179E+00
         21   -1    0    0  501  502  0.00000000000E+00  0.00000000000E+00  0.49853496289E+03  0.49853496289E+03  0.00000000000E+00 0. -1.
         21   -1    0    0  502  503 -0.00000000000E+00 -0.00000000000E+00 -0.52882057458E+03  0.52882057458E+03  0.00000000000E+00 0. -1.
         -6    2    1    2    0  503  0.24421602754E+03  0.28130415603E+02 -0.43193691405E+03  0.52595457076E+03  0.17212183009E+03 0.  0.
        -24    2    3    3    0    0  0.19680621825E+03  0.52177719921E+02 -0.23145701544E+03  0.31849314637E+03  0.80064550785E+02 0.  0.
          6    2    1    2  501    0 -0.24421602754E+03 -0.28130415603E+02  0.40165130237E+03  0.50140096671E+03  0.17218121947E+03 0.  0.
         24    2    5    5    0    0 -0.51895007451E+02 -0.22731076630E+02  0.19965441450E+03  0.22240032095E+03  0.79938875933E+02 0.  0.
          5    1    5    5  501    0 -0.19232102009E+03 -0.53993389738E+01  0.20199688786E+03  0.27900064576E+03  0.47000000000E+01 0. -1.
        -11    1    6    6    0    0 -0.36312762302E+02 -0.31514148773E+02  0.42320745697E+02  0.64053132596E+02  0.00000000000E+00 0.  1.
         12    1    6    6    0    0 -0.15582245149E+02  0.87830721435E+01  0.15733366881E+03  0.15834718836E+03  0.00000000000E+00 0. -1.
         -5    1    3    3    0  503  0.47409809297E+02 -0.24047304318E+02 -0.20047989861E+03  0.20746142439E+03  0.47000000000E+01 0.  1.
         13    1    4    4    0    0  0.14743738034E+03  0.50649772995E+02 -0.21668808103E+03  0.26693989040E+03  0.00000000000E+00 0. -1.
        -14    1    4    4    0    0  0.49368837902E+02  0.15279469260E+01 -0.14768934414E+02  0.51553255972E+02  0.00000000000E+00 0.  1.
</event>
<event>
12    1  0.8453150E-002  0.2202836E+03  0.7818608E-02  0.1133683E+00
         21   -1    0    0  501  502  0.00000000000E+00  0.00000000000E+00  0.41382325508E+03  0.41382325508E+03  0.00000000000E+00 0.  1.
         21   -1    0    0  502  503 -0.00000000000E+00 -0.00000000000E+00 -0.14345764589E+03  0.14345764589E+03  0.00000000000E+00 0. -1.
         -6    2    1    2    0  503 -0.13028944238E+03  0.45650601603E+02  0.16049465831E+02  0.22086745808E+03  0.17165527217E+03 0.  0.
        -24    2    3    3    0    0 -0.59904687322E+02  0.33395898215E+02  0.74148291077E+02  0.12866249620E+03  0.79700760844E+02 0.  0.
          6    2    1    2  501    0  0.13028944238E+03 -0.45650601603E+02  0.25431614336E+03  0.33641344288E+03  0.17157502020E+03 0.  0.
         24    2    5    5    0    0  0.99719223402E+02  0.10713855206E+02  0.81786850945E+02  0.15229408752E+03  0.80285054000E+02 0.  0.
          5    1    5    5  501    0  0.30570218982E+02 -0.56364456810E+02  0.17252929241E+03  0.18411935536E+03  0.47000000000E+01 0. -1.
        -13    1    6    6    0    0  0.10391380442E+03  0.18144256427E+02  0.91303712594E+02  0.13951222428E+03  0.00000000000E+00 0.  1.
         14    1    6    6    0    0 -0.41945810155E+01 -0.74304012208E+01 -0.95168616486E+01  0.12781863238E+02  0.00000000000E+00 0. -1.
         -5    1    3    3    0  503 -0.70384755062E+02  0.12254703388E+02 -0.58098825246E+02  0.92204961880E+02  0.47000000000E+01 0.  1.
         11    1    4    4    0    0 -0.58635747299E+02  0.41677470320E+02  0.21117663010E+02  0.74974116098E+02  0.00000000000E+00 0. -1.
        -12    1    4    4    0    0 -0.12689400228E+01 -0.82815721047E+01  0.53030628067E+02  0.53688380106E+02  0.00000000000E+00 0.  1.
</event>
<event>
12    1  0.8453150E-002  0.2127083E+03  0.7818608E-02  0.1139974E+00
         21   -1    0    0  503  502  0.00000000000E+00  0.00000000000E+00  0.23374856634E+03  0.23374856634E+03  0.00000000000E+00 0.  1.
         21   -1    0    0  501  503 -0.00000000000E+00 -0.00000000000E+00 -0.40364797174E+03  0.40364797174E+03  0.00000000000E+00 0. -1.
          6    2    1    2  501    0 -0.50920055343E+02  0.10871285731E+03 -0.31595860167E+03  0.37936921579E+03  0.17227834030E+03 0.  0.
         24    2    3    3    0    0 -0.30551635782E+01  0.44852373584E+02 -0.27286835912E+03  0.28855033973E+03  0.82359502850E+02 0.  0.
         -6    2    1    2    0  502  0.50920055343E+02 -0.10871285731E+03  0.14605919627E+03  0.25802732229E+03  0.17559462648E+03 0.  0.
        -24    2    5    5    0    0  0.92862238447E+02 -0.36085396832E+02  0.97368392569E+02  0.16093572067E+03  0.80586296121E+02 0.  0.
          5    1    3    3  501    0 -0.47864891765E+02  0.63860483726E+02 -0.43090242554E+02  0.90818876060E+02  0.47000000000E+01 0. -1.
        -13    1    4    4    0    0  0.77812984092E+01 -0.23280594862E+02 -0.82075066950E+02  0.85667095882E+02  0.00000000000E+00 0.  1.
         14    1    4    4    0    0 -0.10836461987E+02  0.68132968446E+02 -0.19079329217E+03  0.20288324385E+03  0.00000000000E+00 0. -1.
         -5    1    5    5    0  502 -0.41942183104E+02 -0.72627460478E+02  0.48690803705E+02  0.97091601617E+02  0.47000000000E+01 0.  1.
         11    1    6    6    0    0 -0.39893994992E+01  0.72357572620E+01 -0.79313493991E+01  0.11453287511E+02  0.00000000000E+00 0. -1.
        -12    1    6    6    0    0  0.96851637946E+02 -0.43321154094E+02  0.10529974197E+03  0.14948243316E+03  0.00000000000E+00 0.  1.
</event>
<event>
12    1  0.8453150E-002  0.1936864E+03  0.7818608E-02  0.1155574E+00
         21   -1    0    0  503  502  0.00000000000E+00  0.00000000000E+00  0.37319162682E+02  0.37319162682E+02  0.00000000000E+00 0. -1.
         21   -1    0    0  501  503 -0.00000000000E+00 -0.00000000000E+00 -0.11167412672E+04  0.11167412672E+04  0.00000000000E+00 0. -1.
          6    2    1    2  501    0  0.79862987195E+02  0.41924378071E+02 -0.73172424372E+03  0.75692456301E+03  0.17140208588E+03 0.  0.
         24    2    3    3    0    0  0.97664153812E+02 -0.19716325527E+02 -0.46511057259E+03  0.48265936743E+03  0.81885284419E+02 0.  0.
         -6    2    1    2    0  502 -0.79862987195E+02 -0.41924378071E+02 -0.34769786084E+03  0.39713586691E+03  0.16937338679E+03 0.  0.
        -24    2    5    5    0    0 -0.68671298832E+02 -0.52730196904E+00 -0.10283100505E+03  0.14849789945E+03  0.82227642619E+02 0.  0.
          5    1    3    3  501    0 -0.17801166618E+02  0.61640703599E+02 -0.26661367113E+03  0.27426519558E+03  0.47000000000E+01 0. -1.
        -13    1    4    4    0    0 -0.10954023564E+02  0.13234310723E+01 -0.12278852254E+02  0.16507947017E+02  0.00000000000E+00 0.  1.
         14    1    4    4    0    0  0.10861817738E+03 -0.21039756600E+02 -0.45283172034E+03  0.46615142042E+03  0.00000000000E+00 0. -1.
         -5    1    5    5    0  502 -0.11191688362E+02 -0.41397076102E+02 -0.24486685579E+03  0.24863796746E+03  0.47000000000E+01 0.  1.
         13    1    6    6    0    0 -0.46131043957E+02  0.33198077612E+02 -0.89079219455E+02  0.10566594964E+03  0.00000000000E+00 0. -1.
        -14    1    6    6    0    0 -0.22540254875E+02 -0.33725379581E+02 -0.13751785591E+02  0.42831949811E+02  0.00000000000E+00 0.  1.
</event>
<event>
12    1  0.8453150E-002  0.1746978E+03  0.7818608E-02  0.1173393E+00
         21   -1    0    0  501  502  0.00000000000E+00  0.00000000000E+00  0.95670874726E+02  0.95670874726E+02  0.00000000000E+00 0. -1.
         21   -1    0    0  502  503 -0.00000000000E+00 -0.00000000000E+00 -0.53088149197E+03  0.53088149197E+03  0.00000000000E+00 0. -1.
         -6    2    1    2    0  503 -0.20016142106E+02  0.19087359532E+02 -0.19020460454E+02  0.17573014514E+03  0.17249444269E+03 0.  0.
        -24    2    3    3    0    0 -0.63171569615E+02  0.73638968795E+01 -0.57566284417E+02  0.11650429737E+03  0.78832100175E+02 0.  0.
          6    2    1    2  501    0  0.20016142106E+02 -0.19087359532E+02 -0.41619015679E+03  0.45082222155E+03  0.17105980123E+03 0.  0.
         24    2    5    5    0    0 -0.12627091218E+02  0.47690402274E+02 -0.18496975960E+03  0.20790286820E+03  0.81092371651E+02 0.  0.
          5    1    5    5  501    0  0.32643233324E+02 -0.66777761806E+02 -0.23122039719E+03  0.24291935335E+03  0.47000000000E+01 0. -1.
        -11    1    6    6    0    0 -0.99750850700E+01  0.20296658873E+02 -0.18108846319E+01  0.22687793783E+02  0.00000000000E+00 0.  1.
         12    1    6    6    0    0 -0.26520061476E+01  0.27393743400E+02 -0.18315887496E+03  0.18521507442E+03  0.00000000000E+00 0. -1.
         -5    1    3    3    0  503  0.43155427508E+02  0.11723462652E+02  0.38545823963E+02  0.59225847778E+02  0.47000000000E+01 0.  1.
         13    1    4    4    0    0 -0.40762394257E+02  0.42878908949E+02 -0.36589987928E+02  0.69562927158E+02  0.00000000000E+00 0. -1.
        -14    1    4    4    0    0 -0.22409175358E+02 -0.35515012069E+02 -0.20976296489E+02  0.46941370207E+02  0.00000000000E+00 0.  1.
</event>
<event>
12    1  0.8453150E-002  0.1853749E+03  0.7818608E-02  0.1163284E+00
         21   -1    0    0  501  502  0.00000000000E+00  0.00000000000E+00  0.92275912077E+02  0.92275912077E+02  0.00000000000E+00 0.  1.
         21   -1    0    0  502  503 -0.00000000000E+00 -0.00000000000E+00 -0.58139527159E+03  0.58139527159E+03  0.00000000000E+00 0. -1.
         -6    2    1    2    0  503  0.32761317430E+02 -0.56776813861E+02 -0.44994522477E+03  0.48663597229E+03  0.17339825179E+03 0.  0.
        -24    2    3    3    0    0  0.73381074280E+02 -0.18077307074E+02 -0.19016074912E+03  0.22082084808E+03  0.83000996057E+02 0.  0.
          6    2    1    2  501    0 -0.32761317430E+02  0.56776813861E+02 -0.39174134744E+02  0.18703521138E+03  0.17073560540E+03 0.  0.
         24    2    5    5    0    0 -0.32382815326E+02  0.71668541967E+02  0.30874044226E+02  0.11526652596E+03  0.78410067997E+02 0.  0.
          5    1    5    5  501    0 -0.37850210469E+00 -0.14891728106E+02 -0.70048178971E+02  0.71768685420E+02  0.47000000000E+01 0. -1.
        -11    1    6    6    0    0 -0.39802757993E+02  0.37894035067E+02  0.51237217188E+02  0.75136341823E+02  0.00000000000E+00 0.  1.
         12    1    6    6    0    0  0.74199426670E+01  0.33774506900E+02 -0.20363172961E+02  0.40130184134E+02  0.00000000000E+00 0. -1.
         -5    1    3    3    0  503 -0.40619756850E+02 -0.38699506788E+02 -0.25978447565E+03  0.26581512421E+03  0.47000000000E+01 0.  1.
         13    1    4    4    0    0  0.40061794140E+02  0.62422170434E+01 -0.17025928595E+03  0.17502039045E+03  0.00000000000E+00 0. -1.
        -14    1    4    4    0    0  0.33319280141E+02 -0.24319524117E+02 -0.19901463178E+02  0.45800457629E+02  0.00000000000E+00 0.  1.
</event>
<event>
12    1  0.8453150E-002  0.2238667E+03  0.7818608E-02  0.1131222E+00
         21   -1    0    0  501  502  0.00000000000E+00  0.00000000000E+00  0.87157826307E+03  0.87157826307E+03  0.00000000000E+00 0. -1.
         21   -1    0    0  502  503 -0.00000000000E+00 -0.00000000000E+00 -0.22397216870E+03  0.22397216870E+03  0.00000000000E+00 0. -1.
         -6    2    1    2    0  503  0.70308708589E+02 -0.12349024935E+03 -0.14901788515E+03  0.26806868190E+03  0.17164303636E+03 0.  0.
        -24    2    3    3    0    0 -0.23446613072E+02 -0.28127486015E+02 -0.69931621262E+02  0.11263109279E+03  0.80339481437E+02 0.  0.
          6    2    1    2  501    0 -0.70308708589E+02  0.12349024935E+03  0.79662397952E+03  0.82748174988E+03  0.17298302069E+03 0.  0.
         24    2    5    5    0    0 -0.75003063345E+02  0.15597508331E+03  0.66343107074E+03  0.69022380893E+03  0.79463417132E+02 0.  0.
          5    1    5    5  501    0  0.46943547565E+01 -0.32484833966E+02  0.13319290878E+03  0.13725794095E+03  0.47000000000E+01 0. -1.
        -13    1    6    6    0    0 -0.19088462121E+02  0.59579155297E+02  0.11835685540E+03  0.13387453213E+03  0.00000000000E+00 0.  1.
         14    1    6    6    0    0 -0.55914601224E+02  0.96395928014E+02  0.54507421534E+03  0.55634927680E+03  0.00000000000E+00 0. -1.
         -5    1    3    3    0  503  0.93755321661E+02 -0.95362763330E+02 -0.79086263891E+02  0.15543758910E+03  0.47000000000E+01 0.  1.
         11    1    4    4    0    0  0.18835138419E+02 -0.39658883722E+02 -0.28659215379E+02  0.52430335908E+02  0.00000000000E+00 0. -1.
        -12    1    4    4    0    0 -0.42281751491E+02  0.11531397707E+02 -0.41272405883E+02  0.60200756886E+02  0.00000000000E+00 0.  1.
</event>
<event>
12    1  0.8453150E-002  0.2267039E+03  0.7818608E-02  0.1129001E+00
         21   -1    0    0  501  502  0.00000000000E+00  0.00000000000E+00  0.25750321566E+03  0.25750321566E+03  0.00000000000E+00 0.  1.
         21   -1    0    0  502  503 -0.00000000000E+00 -0.00000000000E+00 -0.21741808178E+03  0.21741808178E+03  0.00000000000E+00 0.  1.
         -6    2    1    2    0  503  0.12989050118E+03 -0.73433873550E+02 -0.48147477464E+02  0.23165257918E+03  0.17053053032E+03 0.  0.
        -24    2    3    3    0    0  0.10295120752E+03 -0.63518000484E+02 -0.97214408512E+02  0.17461133266E+03  0.80031173649E+02 0.  0.
          6    2    1    2  501    0 -0.12989050118E+03  0.73433873550E+02  0.88232611342E+02  0.24326871827E+03  0.17067688626E+03 0.  0.
         24    2    5    5    0    0 -0.97404539970E+02 -0.36686467498E+01  0.93251880711E+02  0.15931980894E+03  0.84769009014E+02 0.  0.
          5    1    5    5  501    0 -0.32485961214E+02  0.77102520299E+02 -0.50192693688E+01  0.83948909329E+02  0.47000000000E+01 0. -1.
        -11    1    6    6    0    0 -0.92395161190E+02 -0.81887828407E+01  0.32638520800E+02  0.98332065043E+02  0.00000000000E+00 0.  1.
         12    1    6    6    0    0 -0.50093787806E+01  0.45201360909E+01  0.60613359911E+02  0.60987743898E+02  0.00000000000E+00 0. -1.
         -5    1    3    3    0  503  0.26939293662E+02 -0.99158730658E+01  0.49066931049E+02  0.57041246517E+02  0.47000000000E+01 0.  1.
         11    1    4    4    0    0  0.20247590929E+02 -0.57520962306E+02 -0.52135879723E+02  0.80229520736E+02  0.00000000000E+00 0. -1.
        -12    1    4    4    0    0  0.82703616593E+02 -0.59970381777E+01 -0.45078528789E+02  0.94381811925E+02  0.00000000000E+00 0.  1.
</event>
<event>
12    1  0.8453150E-002  0.2712643E+03  0.7818608E-02  0.1100712E+00
         21   -1    0    0  503  502  0.00000000000E+00  0.00000000000E+00  0.10188425458E+04  0.10188425458E+04  0.00000000000E+00 0.  1.
         21   -1    0    0  501  503 -0.00000000000E+00 -0.00000000000E+00 -0.73987652416E+02  0.73987652416E+02  0.00000000000E+00 0.  1.
          6    2    1    2  501    0 -0.59214073005E+02  0.20120001368E+03  0.56251010648E+03  0.62403188546E+03  0.17032446166E+03 0.  0.
         24    2    3    3    0    0  0.13907834870E+01  0.18842769148E+03  0.47594551196E+03  0.51748799841E+03  0.75912903699E+02 0.  0.
         -6    2    1    2    0  502  0.59214073005E+02 -0.20120001368E+03  0.38234478693E+03  0.46879831278E+03  0.17203653689E+03 0.  0.
        -24    2    5    5    0    0  0.73925934100E+01 -0.20361546120E+03  0.31144344773E+03  0.38081882634E+03  0.80697279271E+02 0.  0.
          5    1    3    3  501    0 -0.60604856492E+02  0.12772322201E+02  0.86564594520E+02  0.10654388706E+03  0.47000000000E+01 0. -1.
        -11    1    4    4    0    0 -0.16254561336E+02  0.85861262743E+02  0.13333699183E+03  0.15942120497E+03  0.00000000000E+00 0.  1.
         12    1    4    4    0    0  0.17645344823E+02  0.10256642873E+03  0.34260852013E+03  0.35806679344E+03  0.00000000000E+00 0. -1.
         -5    1    5    5    0  502  0.51821479595E+02  0.24154475184E+01  0.70901339199E+02  0.87979486441E+02  0.47000000000E+01 0.  1.
         11    1    6    6    0    0 -0.61717019015E+01  0.48218403882E+01  0.25724152762E+02  0.26889999710E+02  0.00000000000E+00 0. -1.
        -12    1    6    6    0    0  0.13564295311E+02 -0.20843730158E+03  0.28571929497E+03  0.35392882663E+03  0.00000000000E+00 0.  1.
</event>
<event>
12    1  0.8453150E-002  0.1913332E+03  0.7818608E-02  0.1158294E+00
         21   -1    0    0  503  502  0.00000000000E+00  0.00000000000E+00  0.75759596418E+02  0.75759596418E+02  0.00000000000E+00 0.  1.
         21   -1    0    0  501  503 -0.00000000000E+00 -0.00000000000E+00 -0.58644297890E+03  0.58644297890E+03  0.00000000000E+00 0.  1.
          6    2    1    2  501    0  0.69565539430E+02 -0.20877819928E+02 -0.39925815387E+03  0.44078898465E+03  0.17208314245E+03 0.  0.
         24    2    3    3    0    0  0.11531641799E+03 -0.39111860290E+02 -0.31553122682E+03  0.34353719068E+03  0.60251409986E+02 0.  0.
         -6    2    1    2    0  502 -0.69565539430E+02  0.20877819928E+02 -0.11142522861E+03  0.22141359067E+03  0.17701171973E+03 0.  0.
        -24    2    5    5    0    0 -0.16686262652E+02  0.67547235473E+02 -0.24806832610E+02  0.10961426694E+03  0.80986716145E+02 0.  0.
          5    1    3    3  501    0 -0.45750878564E+02  0.18234040361E+02 -0.83726927051E+02  0.97251793972E+02  0.47000000000E+01 0. -1.
        -13    1    4    4    0    0  0.51653386828E+02 -0.35912095433E+02 -0.94713253870E+02  0.11370290862E+03  0.00000000000E+00 0.  1.
         14    1    4    4    0    0  0.63663031167E+02 -0.31997648564E+01 -0.22081797295E+03  0.22983428206E+03  0.00000000000E+00 0. -1.
         -5    1    5    5    0  502 -0.52879276778E+02 -0.46669415545E+02 -0.86618396001E+02  0.11179932373E+03  0.47000000000E+01 0.  1.
         13    1    6    6    0    0  0.11115829537E+02  0.30893942834E+01 -0.36651023832E+02  0.38423997336E+02  0.00000000000E+00 0. -1.
        -14    1    6    6    0    0 -0.27802092189E+02  0.64457841190E+02  0.11844191223E+02  0.71190269606E+02  0.00000000000E+00 0.  1.
</event>
<event>
12    1  0.8453150E-002  0.2158050E+03  0.7818608E-02  0.1137890E+00
         21   -1    0    0  501  502  0.00000000000E+00  0.00000000000E+00  0.52373092995E+03  0.52373092995E+03  0.00000000000E+00 0. -1.
         21   -1    0    0  502  503 -0.00000000000E+00 -0.00000000000E+00 -0.17696913915E+03  0.17696913915E+03  0.00000000000E+00 0. -1.
         -6    2    1    2    0  503 -0.10384291857E+03 -0.75211253438E+02 -0.75353461304E+02  0.22858249795E+03  0.17358493557E+03 0.  0.
        -24    2    3    3    0    0 -0.55477398753E+01 -0.77838457482E+02 -0.13814608953E+02  0.11248786111E+03  0.79831526322E+02 0.  0.
          6    2    1    2  501    0  0.10384291857E+03  0.75211253438E+02  0.42211525211E+03  0.47211757116E+03  0.16814764511E+03 0.  0.
         24    2    5    5    0    0  0.31438960050E+02  0.62161666059E+02  0.35960003345E+03  0.37545906143E+03  0.82491465090E+02 0.  0.
          5    1    5    5  501    0  0.72403958517E+02  0.13049587379E+02  0.62515218651E+02  0.96658509727E+02  0.47000000000E+01 0. -1.
        -13    1    6    6    0    0  0.30434231922E+02 -0.30859952150E+01  0.21040837357E+03  0.21262043530E+03  0.00000000000E+00 0.  1.
         14    1    6    6    0    0  0.10047281278E+01  0.65247661274E+02  0.14919165988E+03  0.16283862613E+03  0.00000000000E+00 0. -1.
         -5    1    3    3    0  503 -0.98295178692E+02  0.26272040442E+01 -0.61538852351E+02  0.11609463684E+03  0.47000000000E+01 0.  1.
         11    1    4    4    0    0 -0.31116024565E+01 -0.90688832986E+02 -0.26227029581E+02  0.94456358065E+02  0.00000000000E+00 0. -1.
        -12    1    4    4    0    0 -0.24361374188E+01  0.12850375503E+02  0.12412420628E+02  0.18031503042E+02  0.00000000000E+00 0.  1.
</event>
<event>
12    1  0.8453150E-002  0.2168402E+03  0.7818608E-02  0.1136397E+00
         21   -1    0    0  503  502  0.00000000000E+00  0.00000000000E+00  0.34610822894E+02  0.34610822894E+02  0.00000000000E+00 0.  1.
         21   -1    0    0  501  503 -0.00000000000E+00 -0.00000000000E+00 -0.14843025179E+04  0.14843025179E+04  0.00000000000E+00 0.  1.
          6    2    1    2  501    0  0.70312356107E+00  0.13288292893E+03 -0.95091883436E+03  0.97532880700E+03  0.17135134967E+03 0.  0.
         24    2    3    3    0    0  0.12597408475E+02  0.79922318892E+02 -0.87141711431E+03  0.87894979621E+03  0.81478128271E+02 0.  0.
         -6    2    1    2    0  502 -0.70312356107E+00 -0.13288292893E+03 -0.49877286062E+03  0.54358453377E+03  0.17044474670E+03 0.  0.
        -24    2    5    5    0    0 -0.34157526208E+01 -0.13756380441E+02 -0.31562124176E+03  0.32503225535E+03  0.76343260334E+02 0.  0.
          5    1    3    3  501    0 -0.11894284914E+02  0.52960610042E+02 -0.79501720048E+02  0.96379010787E+02  0.47000000000E+01 0. -1.
        -11    1    4    4    0    0  0.41917184625E+02  0.29108324212E+02 -0.27847082333E+03  0.28310836150E+03  0.00000000000E+00 0.  1.
         12    1    4    4    0    0 -0.29319776151E+02  0.50813994680E+02 -0.59294629099E+03  0.59584143472E+03  0.00000000000E+00 0. -1.
         -5    1    5    5    0  502  0.27126290598E+01 -0.11912654849E+03 -0.18315161887E+03  0.21855227843E+03  0.47000000000E+01 0.  1.
         13    1    6    6    0    0  0.30470469723E+02  0.86980585207E+01 -0.82170604147E+02  0.88068802269E+02  0.00000000000E+00 0. -1.
        -14    1    6    6    0    0 -0.33886222344E+02 -0.22454438961E+02 -0.23345063761E+03  0.23696345308E+03  0.00000000000E+00 0.  1.
</event>
<event>
12    1  0.8453150E-002  0.1953088E+03  0.7818608E-02  0.1154675E+00
         21   -1    0    0  501  502  0.00000000000E+00  0.00000000000E+00  0.80789116120E+02  0.80789116120E+02  0.00000000000E+00 0. -1.
         21   -1    0    0  502  503 -0.00000000000E+00 -0.00000000000E+00 -0.47681803253E+03  0.47681803253E+03  0.00000000000E+00 0.  1.
         -6    2    1    2    0  503 -0.71445207678E+02 -0.64348391794E+02 -0.24484904258E+03  0.31062361434E+03  0.16519940347E+03 0.  0.
        -24    2    3    3    0    0 -0.70396711530E+02 -0.66706676827E+02 -0.85927841770E+02  0.15161198294E+03  0.78721799093E+02 0.  0.
          6    2    1    2  501    0  0.71445207678E+02  0.64348391794E+02 -0.15117987382E+03  0.24698353431E+03  0.17000111395E+03 0.  0.
         24    2    5    5    0    0  0.39361200879E+02  0.11215936892E+03 -0.13393321203E+03  0.18669414578E+03  0.52797448939E+02 0.  0.
          5    1    5    5  501    0  0.32084006799E+02 -0.47810977122E+02 -0.17246661795E+02  0.60289388525E+02  0.47000000000E+01 0. -1.
        -11    1    6    6    0    0  0.18645358605E+02  0.41948373274E+01 -0.28915841669E+02  0.34660812991E+02  0.00000000000E+00 0.  1.
         12    1    6    6    0    0  0.20715842274E+02  0.10796453159E+03 -0.10501737036E+03  0.15203333279E+03  0.00000000000E+00 0. -1.
         -5    1    3    3    0  503 -0.10484961477E+01  0.23582850336E+01 -0.15892120081E+03  0.15901163140E+03  0.47000000000E+01 0.  1.
         11    1    4    4    0    0 -0.32843105272E+02  0.62197940920E+01 -0.85984061918E+00  0.33437923505E+02  0.00000000000E+00 0. -1.
        -12    1    4    4    0    0 -0.37553606259E+02 -0.72926470919E+02 -0.85068001151E+02  0.11817405944E+03  0.00000000000E+00 0.  1.
</event>
<event>
12    1  0.8453150E-002  0.1788863E+03  0.7818608E-02  0.1170936E+00
         21   -1    0    0  501  502  0.00000000000E+00  0.00000000000E+00  0.40243990393E+03  0.40243990393E+03  0.00000000000E+00 0.  1.
         21   -1    0    0  502  503 -0.00000000000E+00 -0.00000000000E+00 -0.15488002902E+03  0.15488002902E+03  0.00000000000E+00 0.  1.
         -6    2    1    2    0  503  0.48523618950E+02  0.81271799013E+01 -0.73745256474E+02  0.19349075750E+03  0.17198755110E+03 0.  0.
        -24    2    3    3    0    0  0.95872631423E+02 -0.20834206347E+02 -0.52118779402E+02  0.13373721880E+03  0.74455697679E+02 0.  0.
          6    2    1    2  501    0 -0.48523618950E+02 -0.81271799013E+01  0.32130513139E+03  0.36382917545E+03  0.16344445174E+03 0.  0.
         24    2    5    5    0    0 -0.89152513709E+02  0.19230279199E+02  0.19698178969E+03  0.23012232840E+03  0.76396899280E+02 0.  0.
          5    1    5    5  501    0  0.40628894760E+02 -0.27357459100E+02  0.12432334169E+03  0.13370684705E+03  0.47000000000E+01 0. -1.
        -11    1    6    6    0    0 -0.28366734611E+02  0.24082983145E+01  0.14676920283E+03  0.14950475054E+03  0.00000000000E+00 0.  1.
         12    1    6    6    0    0 -0.60785779099E+02  0.16821980884E+02  0.50212586862E+02  0.80617577866E+02  0.00000000000E+00 0. -1.
         -5    1    3    3    0  503 -0.47349012474E+02  0.28961386248E+02 -0.21626477072E+02  0.59753538692E+02  0.47000000000E+01 0.  1.
         11    1    4    4    0    0  0.38763464641E+02 -0.46427801593E+02 -0.22933496857E+02  0.64684559438E+02  0.00000000000E+00 0. -1.
        -12    1    4    4    0    0  0.57109166783E+02  0.25593595246E+02 -0.29185282545E+02  0.69052659365E+02  0.00000000000E+00 0.  1.
</event>
<event>
12    1  0.8453150E-002  0.2173472E+03  0.7818608E-02  0.1136267E+00
         21   -1    0    0  501  502  0.00000000000E+00  0.00000000000E+00  0.44121035717E+02  0.44121035717E+02  0.00000000000E+00 0.  1.
         21   -1    0    0  502  503 -0.00000000000E+00 -0.00000000000E+00 -0.11439512395E+04  0.11439512395E+04  0.00000000000E+00 0. -1.
         -6    2    1    2    0  503  0.20227715314E+02 -0.12913553756E+03 -0.70783620224E+03  0.73985458496E+03  0.17107767289E+03 0.  0.
        -24    2    3    3    0    0  0.33860531650E+02 -0.16808310403E+02 -0.19455807990E+03  0.21423135439E+03  0.81321410763E+02 0.  0.
          6    2    1    2  501    0 -0.20227715314E+02  0.12913553756E+03 -0.39199400151E+03  0.44821769022E+03  0.17365095185E+03 0.  0.
         24    2    5    5    0    0  0.14136047429E+02  0.15196172154E+02 -0.51623186776E+02  0.87610662137E+02  0.67675130011E+02 0.  0.
          5    1    5    5  501    0 -0.34363762743E+02  0.11393936541E+03 -0.34037081473E+03  0.36060702808E+03  0.47000000000E+01 0. -1.
        -13    1    6    6    0    0  0.74264575074E+01  0.38494058468E+02 -0.11717985330E+02  0.40917673305E+02  0.00000000000E+00 0.  1.
         14    1    6    6    0    0  0.67095899219E+01 -0.23297886314E+02 -0.39905201446E+02  0.46692988832E+02  0.00000000000E+00 0. -1.
         -5    1    3    3    0  503 -0.13632816337E+02 -0.11232722716E+03 -0.51327812234E+03  0.52562323057E+03  0.47000000000E+01 0.  1.
         13    1    4    4    0    0  0.13060691460E+02 -0.43484611594E+02 -0.15813123271E+03  0.16452045425E+03  0.00000000000E+00 0. -1.
        -14    1    4    4    0    0  0.20799840190E+02  0.26676301191E+02 -0.36426847186E+02  0.49710900144E+02  0.00000000000E+00 0.  1.
</event>
<event>
12    1  0.8453150E-002  0.2071834E+03  0.7818608E-02  0.1144044E+00
         21   -1    0    0  503  502  0.00000000000E+00  0.00000000000E+00  0.69501372679E+03  0.69501372679E+03  0.00000000000E+00 0. -1.
         21   -1    0    0  501  503 -0.00000000000E+00 -0.00000000000E+00 -0.23149601843E+03  0.23149601843E+03  0.00000000000E+00 0. -1.
          6    2    1    2  501    0 -0.16707767068E+02  0.11448136386E+03 -0.16513872260E+03  0.26494480818E+03  0.17187152623E+03 0.  0.
         24    2    3    3    0    0 -0.76543832180E+02  0.93468033295E+02 -0.10155605670E+03  0.17501839297E+03  0.75647694829E+02 0.  0.
         -6    2    1    2    0  502  0.16707767068E+02 -0.11448136386E+03  0.62865643096E+03  0.66156493704E+03  0.17051136496E+03 0.  0.
        -24    2    5    5    0    0  0.11640332844E+02 -0.13752877702E+03  0.38382794739E+03  0.41555693207E+03  0.79460737057E+02 0.  0.
          5    1    3    3  501    0  0.59836065112E+02  0.21013330563E+02 -0.63582665903E+02  0.89926415211E+02  0.47000000000E+01 0. -1.
        -13    1    4    4    0    0 -0.51444960958E+02  0.29287521295E+02 -0.93905588361E+01  0.59937680193E+02  0.00000000000E+00 0.  1.
         14    1    4    4    0    0 -0.25098871222E+02  0.64180512000E+02 -0.92165497864E+02  0.11508071278E+03  0.00000000000E+00 0. -1.
         -5    1    5    5    0  502  0.50674342235E+01  0.23047413162E+02  0.24482848357E+03  0.24600800497E+03  0.47000000000E+01 0.  1.
         13    1    6    6    0    0  0.96331945894E+01 -0.98541022050E+02  0.35053275181E+03  0.36424763768E+03  0.00000000000E+00 0. -1.
        -14    1    6    6    0    0  0.20071382549E+01 -0.38987754971E+02  0.33295195579E+02  0.51309294385E+02  0.00000000000E+00 0.  1.
</event>
<event>
12    1  0.8453150E-002  0.2313457E+03  0.7818608E-02  0.1125762E+00
         21   -1    0    0  501  502  0.00000000000E+00  0.00000000000E+00  0.29787650781E+04  0.29787650781E+04  0.00000000000E+00 0.  1.
         21   -1    0    0  502  503 -0.00000000000E+00 -0.00000000000E+00 -0.18348049210E+02  0.18348049210E+02  0.00000000000E+00 0. -1.
         -6    2    1    2    0  503 -0.14240190171E+03  0.58642778260E+02  0.17030105663E+04  0.17186015612E+04  0.17213093893E+03 0.  0.
        -24    2    3    3    0    0 -0.13809287532E+03 -0.67053736064E+01  0.13689269377E+04  0.13781270254E+04  0.78476321080E+02 0.  0.
          6    2    1    2  501    0  0.14240190171E+03 -0.58642778260E+02  0.12574064626E+04  0.12785115661E+04  0.17263700499E+03 0.  0.
         24    2    5    5    0    0  0.53422255833E+02 -0.55967456449E+02  0.99759841919E+03  0.10038356769E+04  0.80605003330E+02 0.  0.
          5    1    5    5  501    0  0.88979645880E+02 -0.26753218110E+01  0.25980804338E+03  0.27467588925E+03  0.47000000000E+01 0. -1.
        -13    1    6    6    0    0 -0.18231127515E+02 -0.20634965951E+02  0.15219330133E+03  0.15466407728E+03  0.00000000000E+00 0.  1.
         14    1    6    6    0    0  0.71653383348E+02 -0.35332490498E+02  0.84540511786E+03  0.84917159958E+03  0.00000000000E+00 0. -1.
         -5    1    3    3    0  503 -0.43090263975E+01  0.65348151866E+02  0.33408362857E+03  0.34047453582E+03  0.47000000000E+01 0.  1.
         13    1    4    4    0    0 -0.84326464252E+02  0.34505595464E+02  0.81135001939E+03  0.81644990211E+03  0.00000000000E+00 0. -1.
        -14    1    4    4    0    0 -0.53766411064E+02 -0.41210969070E+02  0.55757691835E+03  0.56167712327E+03  0.00000000000E+00 0.  1.
</event>
<event>
12    1  0.8453150E-002  0.2821006E+03  0.7818608E-02  0.1095093E+00
         21   -1    0    0  501  502  0.00000000000E+00  0.00000000000E+00  0.20315260433E+03  0.20315260433E+03  0.00000000000E+00 0. -1.
         21   -1    0    0  502  503 -0.00000000000E+00 -0.00000000000E+00 -0.73445435313E+03  0.73445435313E+03  0.00000000000E+00 0.  1.
         -6    2    1    2    0  503  0.56000626742E+02 -0.21545799211E+03 -0.58946802023E+03  0.65349316964E+03  0.17327019168E+03 0.  0.
        -24    2    3    3    0    0  0.41298424728E+02 -0.23657215620E+03 -0.52097225645E+03  0.58017385209E+03  0.86704450240E+02 0.  0.
          6    2    1    2  501    0 -0.56000626742E+02  0.21545799211E+03  0.58166271436E+02  0.28411378783E+03  0.16667067150E+03 0.  0.
         24    2    5    5    0    0 -0.41112797479E+02  0.56101872992E+02 -0.15518331408E+02  0.10785394879E+03  0.80956614242E+02 0.  0.
          5    1    5    5  501    0 -0.14887829263E+02  0.15935611912E+03  0.73684602845E+02  0.17625983904E+03  0.47000000000E+01 0. -1.
        -11    1    6    6    0    0 -0.71385340806E+01 -0.21111138278E+02 -0.14560218341E+01  0.22332909076E+02  0.00000000000E+00 0.  1.
         12    1    6    6    0    0 -0.33974263398E+02  0.77213011270E+02 -0.14062309574E+02  0.85521039712E+02  0.00000000000E+00 0. -1.
         -5    1    3    3    0  503  0.14702202013E+02  0.21114164083E+02 -0.68495763782E+02  0.73319317544E+02  0.47000000000E+01 0.  1.
         11    1    4    4    0    0 -0.24327322383E+02 -0.72084778374E+02 -0.19277802803E+03  0.20724720017E+03  0.00000000000E+00 0. -1.
        -12    1    4    4    0    0  0.65625747111E+02 -0.16448737782E+03 -0.32819422842E+03  0.37292665192E+03  0.00000000000E+00 0.  1.
</event>
<event>
12    1  0.8453150E-002  0.1889622E+03  0.7818608E-02  0.1159703E+00
         21   -1    0    0  501  502  0.00000000000E+00  0.00000000000E+00  0.92091401702E+02  0.92091401702E+02  0.00000000000E+00 0.  1.
         21   -1    0    0  502  503 -0.00000000000E+00 -0.00000000000E+00 -0.43021010324E+03  0.43021010324E+03  0.00000000000E+00 0.  1.
         -6    2    1    2    0  503  0.55170689523E+02  0.54978615067E+02 -0.25317254788E+03  0.31512391647E+03  0.17070527418E+03 0.  0.
        -24    2    3    3    0    0 -0.10280985515E+02 -0.84774323122E+01 -0.17134992794E+03  0.19253671139E+03  0.86787222024E+02 0.  0.
          6    2    1    2  501    0 -0.55170689523E+02 -0.54978615067E+02 -0.84946153657E+02  0.20717758847E+03  0.17216344283E+03 0.  0.
         24    2    5    5    0    0 -0.67686758372E+02 -0.75964639962E+02 -0.17762419908E+02  0.13553396140E+03  0.87760055534E+02 0.  0.
          5    1    5    5  501    0  0.12516068849E+02  0.20986024895E+02 -0.67183733749E+02  0.71643627077E+02  0.47000000000E+01 0. -1.
        -11    1    6    6    0    0 -0.45662480581E+02 -0.33514488070E+02  0.33193489560E+02  0.65651281728E+02  0.00000000000E+00 0.  1.
         12    1    6    6    0    0 -0.22024277791E+02 -0.42450151893E+02 -0.50955909468E+02  0.69882679668E+02  0.00000000000E+00 0. -1.
         -5    1    3    3    0  503  0.65451675038E+02  0.63456047380E+02 -0.81822619937E+02  0.12258720507E+03  0.47000000000E+01 0.  1.
         13    1    4    4    0    0 -0.27621537377E+02 -0.37808510870E+00 -0.89863818271E+01  0.29049050479E+02  0.00000000000E+00 0. -1.
        -14    1    4    4    0    0  0.17340551862E+02 -0.80993472035E+01 -0.16236354612E+03  0.16348766091E+03  0.00000000000E+00 0.  1.
</event>
<event>
12    1  0.8453150E-002  0.2003745E+03  0.7818608E-02  0.1150616E+00
         21   -1    0    0  503  502  0.00000000000E+00  0.00000000000E+00  0.21809009873E+03  0.21809009873E+03  0.00000000000E+00 0. -1.
         21   -1    0    0  501  503 -0.00000000000E+00 -0.00000000000E+00 -0.19588853189E+03  0.19588853189E+03  0.00000000000E+00 0. -1.
          6    2    1    2  501    0  0.93660254013E+01 -0.93829351224E+02  0.72008160314E+02  0.21292047735E+03  0.17680012709E+03 0.  0.
         24    2    3    3    0    0 -0.13355316203E+02  0.95814091665E+01  0.10394924124E+02  0.90330405961E+02  0.88212016875E+02 0.  0.
         -6    2    1    2    0  502 -0.93660254013E+01  0.93829351224E+02 -0.49806593471E+02  0.20105815328E+03  0.17044651555E+03 0.  0.
        -24    2    5    5    0    0  0.39231873634E+02  0.61448339908E+00 -0.14458854550E+02  0.90052207394E+02  0.79754774672E+02 0.  0.
          5    1    3    3  501    0  0.22721341604E+02 -0.10341076039E+03  0.61613236191E+02  0.12259007139E+03  0.47000000000E+01 0. -1.
        -11    1    4    4    0    0  0.26320028371E+02  0.66384216096E+01  0.34434702239E+02  0.43847021030E+02  0.00000000000E+00 0.  1.
         12    1    4    4    0    0 -0.39675344574E+02  0.29429875570E+01 -0.24039778115E+02  0.46483384931E+02  0.00000000000E+00 0. -1.
         -5    1    5    5    0  502 -0.48597899035E+02  0.93214867825E+02 -0.35347738921E+02  0.11100594588E+03  0.47000000000E+01 0.  1.
         11    1    6    6    0    0  0.13811109031E+02  0.35938405355E+02  0.10468603615E+02  0.39898713937E+02  0.00000000000E+00 0. -1.
        -12    1    6    6    0    0  0.25420764603E+02 -0.35323921956E+02 -0.24927458166E+02  0.50153493458E+02  0.00000000000E+00 0.  1.
</event>
<event>
12    1  0.8453150E-002  0.1963321E+03  0.7818608E-02  0.1152968E+00
         21   -1    0    0  503  502  0.00000000000E+00  0.00000000000E+00  0.54549874268E+03  0.54549874268E+03  0.00000000000E+00 0. -1.
         21   -1    0    0  501  503 -0.00000000000E+00 -0.00000000000E+00 -0.14684219901E+03  0.14684219901E+03  0.00000000000E+00 0. -1.
          6    2    1    2  501    0 -0.51566909705E+02 -0.78866061923E+02 -0.50378855418E+02  0.20226024182E+03  0.17173285780E+03 0.  0.
         24    2    3    3    0    0 -0.37244826541E+02  0.24135991752E+02 -0.29998905273E+02  0.96184903048E+02  0.79886657552E+02 0.  0.
         -6    2    1    2    0  502  0.51566909705E+02  0.78866061923E+02  0.44903539909E+03  0.49008069987E+03  0.17224198340E+03 0.  0.
        -24    2    5    5    0    0  0.39146998622E+02  0.39328756341E+02  0.43552662024E+03  0.44623973923E+03  0.79794920573E+02 0.  0.
          5    1    3    3  501    0 -0.14322083164E+02 -0.10300205368E+03 -0.20379950146E+02  0.10607533877E+03  0.47000000000E+01 0. -1.
        -11    1    4    4    0    0 -0.12766217965E+01 -0.16104472855E+02  0.17836730654E+02  0.24065177530E+02  0.00000000000E+00 0.  1.
         12    1    4    4    0    0 -0.35968204744E+02  0.40240464607E+02 -0.47835635926E+02  0.72119725518E+02  0.00000000000E+00 0. -1.
         -5    1    5    5    0  502  0.12419911083E+02  0.39537305582E+02  0.13508778852E+02  0.43840960643E+02  0.47000000000E+01 0.  1.
         11    1    6    6    0    0  0.35105362016E+02  0.55206181112E+02  0.20622507131E+03  0.21635362006E+03  0.00000000000E+00 0. -1.
        -12    1    6    6    0    0  0.40416366052E+01 -0.15877424772E+02  0.22930154893E+03  0.22988611917E+03  0.00000000000E+00 0.  1.
</event>
<event>
12    1  0.8453150E-002  0.2188839E+03  0.7818608E-02  0.1134834E+00
         21   -1    0    0  501  502  0.00000000000E+00  0.00000000000E+00  0.14885573910E+04  0.14885573910E+04  0.00000000000E+00 0.  1.
         21   -1    0    0  502  503 -0.00000000000E+00 -0.00000000000E+00 -0.35361210229E+02  0.35361210229E+02  0.00000000000E+00 0.  1.
         -6    2    1    2    0  503  0.12336172246E+02  0.13410501837E+03  0.49406926139E+03  0.54013273831E+03  0.17176321739E+03 0.  0.
        -24    2    3    3    0    0  0.30525101284E+01  0.15891701778E+03  0.33922732130E+03  0.38297059877E+03  0.79544752475E+02 0.  0.
          6    2    1    2  501    0 -0.12336172246E+02 -0.13410501837E+03  0.95912691938E+03  0.98378586291E+03  0.17255097650E+03 0.  0.
         24    2    5    5    0    0  0.92960594223E+01 -0.16061779233E+03  0.82810997257E+03  0.84829264913E+03  0.89161650764E+02 0.  0.
          5    1    5    5  501    0 -0.21632231668E+02  0.26512773955E+02  0.13101694680E+03  0.13549321377E+03  0.47000000000E+01 0. -1.
        -13    1    6    6    0    0  0.14166589271E+02  0.50740834321E+01  0.12522602293E+03  0.12612690194E+03  0.00000000000E+00 0.  1.
         14    1    6    6    0    0 -0.48705298489E+01 -0.16569187576E+03  0.70288394965E+03  0.72216574720E+03  0.00000000000E+00 0. -1.
         -5    1    3    3    0  503  0.92836621178E+01 -0.24811999402E+02  0.15484194008E+03  0.15716213954E+03  0.47000000000E+01 0.  1.
         13    1    4    4    0    0 -0.67886105004E+01 -0.74438419584E+01  0.11384558987E+02  0.15202111661E+02  0.00000000000E+00 0. -1.
        -14    1    4    4    0    0  0.98411206287E+01  0.16636085973E+03  0.32784276232E+03  0.36776848711E+03  0.00000000000E+00 0.  1.
</event>
<event>
12    1  0.8453150E-002  0.3004513E+03  0.7818608E-02  0.1085123E+00
         21   -1    0    0  503  502  0.00000000000E+00  0.00000000000E+00  0.14913014333E+03  0.14913014333E+03  0.00000000000E+00 0. -1.
         21   -1    0    0  501  503 -0.00000000000E+00 -0.00000000000E+00 -0.62312162851E+03  0.62312162851E+03  0.00000000000E+00 0.  1.
          6    2    1    2  501    0  0.20978686314E+03 -0.13135699417E+03 -0.30505045234E+03  0.42756048961E+03  0.16878094069E+03 0.  0.
         24    2    3    3    0    0  0.17416528354E+03 -0.32586586909E+02 -0.19548539284E+03  0.27573465997E+03  0.80122607645E+02 0.  0.
         -6    2    1    2    0  502 -0.20978686314E+03  0.13135699417E+03 -0.16894103284E+03  0.34469128223E+03  0.17031094974E+03 0.  0.
        -24    2    5    5    0    0 -0.89628199149E+02  0.40153977634E+02 -0.12446131696E+02  0.12727730190E+03  0.79994058414E+02 0.  0.
          5    1    3    3  501    0  0.35621579601E+02 -0.98770407263E+02 -0.10956505950E+03  0.15182582964E+03  0.47000000000E+01 0. -1.
        -11    1    4    4    0    0  0.19106451182E+02 -0.19296470211E+02 -0.72371865656E+02  0.77298752758E+02  0.00000000000E+00 0.  1.
         12    1    4    4    0    0  0.15505883236E+03 -0.13290116698E+02 -0.12311352719E+03  0.19843590721E+03  0.00000000000E+00 0. -1.
         -5    1    5    5    0  502 -0.12015866399E+03  0.91203016538E+02 -0.15649490115E+03  0.21741398033E+03  0.47000000000E+01 0.  1.
         11    1    6    6    0    0 -0.68905857578E+02 -0.10134916231E+02  0.58474701414E+01  0.69892250233E+02  0.00000000000E+00 0. -1.
        -12    1    6    6    0    0 -0.20722341572E+02  0.50288893865E+02 -0.18293601838E+02  0.57385051665E+02  0.00000000000E+00 0.  1.
</event>
<event>
12    1  0.8453150E-002  0.3645690E+03  0.7818608E-02  0.1056968E+00
         21   -1    0    0  501  502  0.00000000000E+00  0.00000000000E+00  0.23548934361E+04  0.23548934361E+04  0.00000000000E+00 0. -1.
         21   -1    0    0  502  503 -0.00000000000E+00 -0.00000000000E+00 -0.59827678416E+02  0.59827678416E+02  0.00000000000E+00 0. -1.
         -6    2    1    2    0  503  0.10490323013E+03  0.30347046940E+03  0.85116899939E+03  0.92595855865E+03  0.17266028296E+03 0.  0.
        -24    2    3    3    0    0  0.10351811129E+03  0.13586407590E+03  0.50315714381E+03  0.53965794601E+03  0.94279058326E+02 0.  0.
          6    2    1    2  501    0 -0.10490323013E+03 -0.30347046940E+03  0.14438967583E+04  0.14887625559E+04  0.16875155012E+03 0.  0.
         24    2    5    5    0    0 -0.13817159807E+03 -0.20921160528E+03  0.10440875148E+04  0.10766205428E+04  0.78308162307E+02 0.  0.
          5    1    5    5  501    0  0.33268367941E+02 -0.94258864121E+02  0.39980924351E+03  0.41214201311E+03  0.47000000000E+01 0. -1.
        -11    1    6    6    0    0 -0.76439300121E+02 -0.68146677712E+02  0.30727288544E+03  0.32388819431E+03  0.00000000000E+00 0.  1.
         12    1    6    6    0    0 -0.61732297948E+02 -0.14106492757E+03  0.73681462938E+03  0.75273234849E+03  0.00000000000E+00 0. -1.
         -5    1    3    3    0  503  0.13851188390E+01  0.16760639350E+03  0.34801185559E+03  0.38630061264E+03  0.47000000000E+01 0.  1.
         13    1    4    4    0    0  0.72079000248E+02  0.85874301761E+02  0.18700871484E+03  0.21804136627E+03  0.00000000000E+00 0. -1.
        -14    1    4    4    0    0  0.31439111041E+02  0.49989774139E+02  0.31614842897E+03  0.32161657974E+03  0.00000000000E+00 0.  1.
</event>
<event>
12    1  0.8453150E-002  0.1814030E+03  0.7818608E-02  0.1167846E+00
         21   -1    0    0  501  502  0.00000000000E+00  0.00000000000E+00  0.12788517048E+04  0.12788517048E+04  0.00000000000E+00 0. -1.
         21   -1    0    0  502  503 -0.00000000000E+00 -0.00000000000E+00 -0.73265566427E+02  0.73265566427E+02  0.00000000000E+00 0. -1.
         -6    2    1    2    0  503 -0.38049375691E+02 -0.25235391815E+02  0.50391884682E+02  0.18276667504E+03  0.16964591204E+03 0.  0.
        -24    2    3    3    0    0 -0.73063868311E+02 -0.61136341015E+02  0.44975675205E+02  0.13210783403E+03  0.79710020749E+02 0.  0.
          6    2    1    2  501    0  0.38049375691E+02  0.25235391815E+02  0.11551942537E+04  0.11693505962E+04  0.17556330213E+03 0.  0.
         24    2    5    5    0    0  0.41660888899E+02  0.83339487117E+02  0.70158188954E+03  0.71199362857E+03  0.77696072074E+02 0.  0.
          5    1    5    5  501    0 -0.36115132080E+01 -0.58104095302E+02  0.45361236415E+03  0.45735696762E+03  0.47000000000E+01 0. -1.
        -11    1    6    6    0    0 -0.13111960584E+02  0.12750429941E+00  0.26137236242E+02  0.29242005507E+02  0.00000000000E+00 0.  1.
         12    1    6    6    0    0  0.54772849483E+02  0.83211982818E+02  0.67544465330E+03  0.68275162306E+03  0.00000000000E+00 0. -1.
         -5    1    3    3    0  503  0.35014492620E+02  0.35900949200E+02  0.54162094779E+01  0.50658841006E+02  0.47000000000E+01 0.  1.
         11    1    4    4    0    0 -0.22937128772E+02  0.18937990219E+02  0.10515167133E+02  0.31548820734E+02  0.00000000000E+00 0. -1.
        -12    1    4    4    0    0 -0.50126739539E+02 -0.80074331234E+02  0.34460508071E+02  0.10055901330E+03  0.00000000000E+00 0.  1.
</event>
<event>
12    1  0.8453150E-002  0.1759793E+03  0.7818608E-02  0.1172518E+00
         21   -1    0    0  501  502  0.00000000000E+00  0.00000000000E+00  0.50766457783E+02  0.50766457783E+02  0.00000000000E+00 0. -1.
         21   -1    0    0  502  503 -0.00000000000E+00 -0.00000000000E+00 -0.74135384642E+03  0.74135384642E+03  0.00000000000E+00 0. -1.
         -6    2    1    2    0  503 -0.33996222149E+02  0.49736849037E+01 -0.52096999254E+03  0.54988948711E+03  0.17259268304E+03 0.  0.
        -24    2    3    3    0    0  0.21549650615E+02 -0.51566647910E+02 -0.30157419652E+03  0.31656833820E+03  0.78390114971E+02 0.  0.
          6    2    1    2  501    0  0.33996222149E+02 -0.49736849037E+01 -0.16961739610E+03  0.24223081710E+03  0.16948518233E+03 0.  0.
         24    2    5    5    0    0  0.79731449568E+02  0.18629132103E+02 -0.12011223248E+03  0.17066507653E+03  0.89417399558E+02 0.  0.
          5    1    5    5  501    0 -0.45735227419E+02 -0.23602817007E+02 -0.49505163619E+02  0.71565740565E+02  0.47000000000E+01 0. -1.
        -11    1    6    6    0    0  0.27060433926E+02 -0.19549055229E+02 -0.95408078742E+02  0.10107984039E+03  0.00000000000E+00 0.  1.
         12    1    6    6    0    0  0.52671015642E+02  0.38178187331E+02 -0.24704153735E+02  0.69585236138E+02  0.00000000000E+00 0. -1.
         -5    1    3    3    0  503 -0.55545872764E+02  0.56540332813E+02 -0.21939579602E+03  0.23332114891E+03  0.47000000000E+01 0.  1.
         11    1    4    4    0    0  0.45490491295E+02 -0.28501704460E+02 -0.11320416332E+03  0.12528732797E+03  0.00000000000E+00 0. -1.
        -12    1    4    4    0    0 -0.23940840680E+02 -0.23064943450E+02 -0.18837003320E+03  0.19128101023E+03  0.00000000000E+00 0.  1.
</event>
<event>
12    1  0.8453150E-002  0.2437485E+03  0.7818608E-02  0.1117325E+00
         21   -1    0    0  503  502  0.00000000000E+00  0.00000000000E+00  0.15008025501E+03  0.15008025501E+03  0.00000000000E+00 0. -1.
         21   -1    0    0  501  503 -0.00000000000E+00 -0.00000000000E+00 -0.55592392595E+03  0.55592392595E+03  0.00000000000E+00 0. -1.
          6    2    1    2  501    0  0.21900386799E+02 -0.17212296589E+03 -0.39234484166E+03  0.46188222923E+03  0.17115716923E+03 0.  0.
         24    2    3    3    0    0  0.27074848799E+02 -0.17712635180E+02 -0.17219956556E+03  0.19289271666E+03  0.80672950105E+02 0.  0.
         -6    2    1    2    0  502 -0.21900386799E+02  0.17212296589E+03 -0.13498829287E+02  0.24412195173E+03  0.17119394438E+03 0.  0.
        -24    2    5    5    0    0 -0.72522611964E+02  0.64803481219E+02 -0.31205418277E+01  0.12491674915E+03  0.78329024074E+02 0.  0.
          5    1    3    3  501    0 -0.51744620002E+01 -0.15441033071E+03 -0.22014527610E+03  0.26898951258E+03  0.47000000000E+01 0. -1.
        -13    1    4    4    0    0  0.50905306214E+02 -0.26236504253E+02 -0.88186107396E+02  0.10514986397E+03  0.00000000000E+00 0.  1.
         14    1    4    4    0    0 -0.23830457416E+02  0.85238690731E+01 -0.84013458160E+02  0.87742852681E+02  0.00000000000E+00 0. -1.
         -5    1    5    5    0  502  0.50622225166E+02  0.10731948467E+03 -0.10378287459E+02  0.11920520258E+03  0.47000000000E+01 0.  1.
         11    1    6    6    0    0 -0.45139130245E+02  0.66697966665E+02  0.26259279408E+02  0.84709560214E+02  0.00000000000E+00 0. -1.
        -12    1    6    6    0    0 -0.27383481719E+02 -0.18944854463E+01 -0.29379821236E+02  0.40207188935E+02  0.00000000000E+00 0.  1.
</event>
<event>
12    1  0.8453150E-002  0.2722001E+03  0.7818608E-02  0.1100197E+00
         21   -1    0    0  501  502  0.00000000000E+00  0.00000000000E+00  0.44250469966E+02  0.44250469966E+02  0.00000000000E+00 0.  1.
         21   -1    0    0  502  503 -0.00000000000E+00 -0.00000000000E+00 -0.18186090656E+04  0.18186090656E+04  0.00000000000E+00 0.  1.
         -6    2    1    2    0  503 -0.38883894667E+02  0.20791468098E+03 -0.11578702919E+04  0.11894353828E+04  0.17132555310E+03 0.  0.
        -24    2    3    3    0    0 -0.55597521435E+02  0.16777145847E+03 -0.10990585372E+04  0.11161432542E+04  0.81288061123E+02 0.  0.
          6    2    1    2  501    0  0.38883894667E+02 -0.20791468098E+03 -0.61648830368E+03  0.67342415272E+03  0.16941602363E+03 0.  0.
         24    2    5    5    0    0 -0.85737119283E+01 -0.96524513966E+02 -0.18374525185E+03  0.22403720071E+03  0.83903869944E+02 0.  0.
          5    1    5    5  501    0  0.47457606596E+02 -0.11139016701E+03 -0.43274305182E+03  0.44938695200E+03  0.47000000000E+01 0. -1.
        -13    1    6    6    0    0 -0.34644457623E+02 -0.70109946233E+02 -0.16469803575E+03  0.18232138104E+03  0.00000000000E+00 0.  1.
         14    1    6    6    0    0  0.26070745695E+02 -0.26414567733E+02 -0.19047216106E+02  0.41715819673E+02  0.00000000000E+00 0. -1.
         -5    1    3    3    0  503  0.16713626767E+02  0.40143222503E+02 -0.58811754687E+02  0.73292128650E+02  0.47000000000E+01 0.  1.
         11    1    4    4    0    0 -0.60537910604E+02  0.55462687185E+02 -0.45599000681E+03  0.46332260317E+03  0.00000000000E+00 0. -1.
        -12    1    4    4    0    0  0.49403891690E+01  0.11230877129E+03 -0.64306853042E+03  0.65282065100E+03  0.00000000000E+00 0.  1.
</event>
<event>
12    1  0.8453150E-002  0.2324763E+03  0.7818608E-02  0.1124974E+00
         21   -1    0    0  501  502  0.00000000000E+00  0.00000000000E+00  0.76869404456E+03  0.76869404456E+03  0.00000000000E+00 0.  1.
         21   -1    0    0  502  503 -0.00000000000E+00 -0.00000000000E+00 -0.70220358745E+02  0.70220358745E+02  0.00000000000E+00 0.  1.
         -6    2    1    2    0  503  0.13380123933E+03 -0.80437936975E+02  0.35764555128E+03  0.42656251934E+03  0.17225623125E+03 0.  0.
        -24    2    3    3    0    0  0.53429414092E+02  0.22872866788E+02  0.17991727713E+03  0.20578620290E+03  0.81239549304E+02 0.  0.
          6    2    1    2  501    0 -0.13380123933E+03  0.80437936975E+02  0.34082813453E+03  0.41235188396E+03  0.17174756351E+03 0.  0.
         24    2    5    5    0    0 -0.15984470009E+03  0.38317913687E+02  0.27494444960E+03  0.32979821566E+03  0.78446300297E+02 0.  0.
          5    1    5    5  501    0  0.26043460764E+02  0.42120023288E+02  0.65883684933E+02  0.82553668305E+02  0.47000000000E+01 0. -1.
        -11    1    6    6    0    0 -0.11920854889E+03  0.17221366505E+02  0.12744265781E+03  0.17535359883E+03  0.00000000000E+00 0.  1.
         12    1    6    6    0    0 -0.40636151204E+02  0.21096547182E+02  0.14750179179E+03  0.15444461683E+03  0.00000000000E+00 0. -1.
         -5    1    3    3    0  503  0.80371825233E+02 -0.10331080376E+03  0.17772827415E+03  0.22077631643E+03  0.47000000000E+01 0.  1.
         11    1    4    4    0    0  0.57648765089E+02  0.26718692373E+02  0.65602082216E+02  0.91328537870E+02  0.00000000000E+00 0. -1.
        -12    1    4    4    0    0 -0.42193509968E+01 -0.38458255850E+01  0.11431519491E+03  0.11445766503E+03  0.00000000000E+00 0.  1.
</event>
<event>
12    1  0.8453150E-002  0.1862305E+03  0.7818608E-02  0.1161955E+00
         21   -1    0    0  503  502  0.00000000000E+00  0.00000000000E+00  0.70794196328E+03  0.70794196328E+03  0.00000000000E+00 0.  1.
         21   -1    0    0  501  503 -0.00000000000E+00 -0.00000000000E+00 -0.48948697325E+02  0.48948697325E+02  0.00000000000E+00 0.  1.
          6    2    1    2  501    0 -0.70055017331E+02  0.13983774056E+02  0.33604549881E+03  0.38409439155E+03  0.17175177717E+03 0.  0.
         24    2    3    3    0    0  0.16760202663E+02 -0.94304328198E+01  0.22808580862E+03  0.24351526005E+03  0.83106608216E+02 0.  0.
         -6    2    1    2    0  502  0.70055017331E+02 -0.13983774056E+02  0.32294776714E+03  0.37279626905E+03  0.17198414615E+03 0.  0.
        -24    2    5    5    0    0  0.42615714520E+02  0.34111610887E+02  0.29487806635E+03  0.31053810096E+03  0.80629628623E+02 0.  0.
          5    1    3    3  501    0 -0.86815219994E+02  0.23414206876E+02  0.10795969019E+03  0.14057913150E+03  0.47000000000E+01 0. -1.
        -13    1    4    4    0    0 -0.30087136307E+02 -0.45569101238E+01  0.43987893493E+02  0.53487717982E+02  0.00000000000E+00 0.  1.
         14    1    4    4    0    0  0.46847338970E+02 -0.48735226960E+01  0.18409791512E+03  0.19002754207E+03  0.00000000000E+00 0. -1.
         -5    1    5    5    0  502  0.27439302811E+02 -0.48095384943E+02  0.28069700790E+02  0.62258168090E+02  0.47000000000E+01 0.  1.
         13    1    6    6    0    0  0.12218791097E+02 -0.50897436895E+01  0.22191415870E+03  0.22230856524E+03  0.00000000000E+00 0. -1.
        -14    1    6    6    0    0  0.30396923423E+02  0.39201354576E+02  0.72963907656E+02  0.88229535727E+02  0.00000000000E+00 0.  1.
</event>
<event>
12    1  0.8453150E-002  0.2235301E+03  0.7818608E-02  0.1132624E+00
         21   -1    0    0  503  502  0.00000000000E+00  0.00000000000E+00  0.11104763644E+04  0.11104763644E+04  0.00000000000E+00 0.  1.
         21   -1    0    0  501  503 -0.00000000000E+00 -0.00000000000E+00 -0.19321326913E+03  0.19321326913E+03  0.00000000000E+00 0.  1.
          6    2    1    2  501    0  0.65340305137E+02 -0.11158399119E+03 -0.11334899039E+03  0.25062664825E+03  0.18233315833E+03 0.  0.
         24    2    3    3    0    0 -0.15650639643E+01 -0.11429913056E+03 -0.11872436992E+03  0.18328657770E+03  0.80198209945E+02 0.  0.
         -6    2    1    2    0  502 -0.65340305137E+02  0.11158399119E+03  0.10306120856E+04  0.10530629853E+04  0.17337830687E+03 0.  0.
        -24    2    5    5    0    0 -0.70857826590E+02  0.13675112563E+03  0.98692939530E+03  0.10021307250E+04  0.80713423624E+02 0.  0.
          5    1    3    3  501    0  0.66905369102E+02  0.27151393748E+01  0.53753795333E+01  0.67340070549E+02  0.47000000000E+01 0. -1.
        -13    1    4    4    0    0  0.30290280031E+02 -0.98289467634E+02 -0.97914642178E+02  0.14200562547E+03  0.00000000000E+00 0.  1.
         14    1    4    4    0    0 -0.31855343995E+02 -0.16009662928E+02 -0.20809727745E+02  0.41280952229E+02  0.00000000000E+00 0. -1.
         -5    1    5    5    0  502  0.55175214532E+01 -0.25167134440E+02  0.43682690350E+02  0.50932260259E+02  0.47000000000E+01 0.  1.
         11    1    6    6    0    0 -0.51880659719E+02  0.29167010610E+02  0.24080710630E+03  0.24805317939E+03  0.00000000000E+00 0. -1.
        -12    1    6    6    0    0 -0.18977166872E+02  0.10758411502E+03  0.74612228900E+03  0.75407754562E+03  0.00000000000E+00 0.  1.
</event>
<event>
12    1  0.8453150E-002  0.2360059E+03  0.7818608E-02  0.1123049E+00
         21   -1    0    0  501  502  0.00000000000E+00  0.00000000000E+00  0.93947550417E+02  0.93947550417E+02  0.00000000000E+00 0. -1.
         21   -1    0    0  502  503 -0.00000000000E+00 -0.00000000000E+00 -0.70600648616E+03  0.70600648616E+03  0.00000000000E+00 0.  1.
         -6    2    1    2    0  503  0.11936196783E+03 -0.10179557108E+03 -0.47368050344E+03  0.52921829836E+03  0.17632121350E+03 0.  0.
        -24    2    3    3    0    0  0.11982816848E+03 -0.13491709161E+03 -0.35783151289E+03  0.40863500319E+03  0.79860895594E+02 0.  0.
          6    2    1    2  501    0 -0.11936196783E+03  0.10179557108E+03 -0.13837843230E+03  0.27073573821E+03  0.17187097417E+03 0.  0.
         24    2    5    5    0    0 -0.84875628638E+02  0.11285973409E+03 -0.16018149752E+03  0.22820119993E+03  0.80476602728E+02 0.  0.
          5    1    5    5  501    0 -0.34486339193E+02 -0.11064163004E+02  0.21803065216E+02  0.42534538281E+02  0.47000000000E+01 0. -1.
        -13    1    6    6    0    0 -0.60957462749E+02  0.16955291142E+02 -0.54595079480E+02  0.83569832271E+02  0.00000000000E+00 0.  1.
         14    1    6    6    0    0 -0.23918165890E+02  0.95904442945E+02 -0.10558641804E+03  0.14463136766E+03  0.00000000000E+00 0. -1.
         -5    1    3    3    0  503 -0.46620064506E+00  0.33121520523E+02 -0.11584899055E+03  0.12058329518E+03  0.47000000000E+01 0.  1.
         11    1    4    4    0    0  0.58030880377E+02 -0.22302929223E+02 -0.71116337301E+02  0.94459182509E+02  0.00000000000E+00 0. -1.
        -12    1    4    4    0    0  0.61797288100E+02 -0.11261416238E+03 -0.28671517559E+03  0.31417582068E+03  0.00000000000E+00 0.  1.
</event>
<event>
12    1  0.8453150E-002  0.2034670E+03  0.7818608E-02  0.1146931E+00
         21   -1    0    0  501  502  0.00000000000E+00  0.00000000000E+00  0.23696478714E+03  0.23696478714E+03  0.00000000000E+00 0.  1.
         21   -1    0    0  502  503 -0.00000000000E+00 -0.00000000000E+00 -0.17440043499E+03  0.17440043499E+03  0.00000000000E+00 0. -1.
         -6    2    1    2    0  503  0.60180171474E+02 -0.90102242907E+02  0.27916314369E+02  0.20496924604E+03  0.17173527301E+03 0.  0.
        -24    2    3    3    0    0  0.55212538652E+02  0.10201455735E+02  0.34672004847E+02  0.10420596557E+03  0.80648876098E+02 0.  0.
          6    2    1    2  501    0 -0.60180171474E+02  0.90102242907E+02  0.34648037779E+02  0.20639597609E+03  0.17221714551E+03 0.  0.
         24    2    5    5    0    0 -0.96280414333E+02  0.97776048480E+02  0.56093830802E+02  0.16345267784E+03  0.68849010139E+02 0.  0.
          5    1    5    5  501    0  0.36100242859E+02 -0.76738055727E+01 -0.21445793022E+02  0.42943298253E+02  0.47000000000E+01 0. -1.
        -11    1    6    6    0    0 -0.15264821554E+02  0.13856596132E+02  0.40926766193E+02  0.45825977616E+02  0.00000000000E+00 0.  1.
         12    1    6    6    0    0 -0.81015592779E+02  0.83919452348E+02  0.15167064609E+02  0.11762670022E+03  0.00000000000E+00 0. -1.
         -5    1    3    3    0  503  0.49676328218E+01 -0.10030369864E+03 -0.67556904782E+01  0.10076328047E+03  0.47000000000E+01 0.  1.
         11    1    4    4    0    0  0.40430359596E+01 -0.24406820098E+02 -0.11304854089E+02  0.27199976710E+02  0.00000000000E+00 0. -1.
        -12    1    4    4    0    0  0.51169502692E+02  0.34608275833E+02  0.45976858937E+02  0.77005988855E+02  0.00000000000E+00 0.  1.
</event>
<event>
12    1  0.8453150E-002  0.2171323E+03  0.7818608E-02  0.1137363E+00
         21   -1    0    0  503  502  0.00000000000E+00  0.00000000000E+00  0.13356853835E+03  0.13356853835E+03  0.00000000000E+00 0. -1.
         21   -1    0    0  501  503 -0.00000000000E+00 -0.00000000000E+00 -0.41972560372E+03  0.41972560372E+03  0.00000000000E+00 0. -1.
          6    2    1    2  501    0  0.38545910663E+02  0.12914909302E+03 -0.26031556384E+03  0.33462952678E+03  0.16139223019E+03 0.  0.
         24    2    3    3    0    0 -0.27246926239E+02  0.62625807578E+02 -0.81294282532E+02  0.13257816190E+03  0.79396611232E+02 0.  0.
         -6    2    1    2    0  502 -0.38545910663E+02 -0.12914909302E+03 -0.25841501530E+02  0.21866461528E+03  0.17023852478E+03 0.  0.
        -24    2    5    5    0    0  0.25634601793E+02 -0.12325167354E+03  0.50595809280E+00  0.14887782309E+03  0.79474790817E+02 0.  0.
          5    1    3    3  501    0  0.65792836902E+02  0.66523285437E+02 -0.17902128130E+03  0.20205136489E+03  0.47000000000E+01 0. -1.
        -11    1    4    4    0    0 -0.14717692154E+01 -0.78329078316E+01  0.11033453801E+02  0.13610938708E+02  0.00000000000E+00 0.  1.
         12    1    4    4    0    0 -0.25775157024E+02  0.70458715409E+02 -0.92327736333E+02  0.11896722319E+03  0.00000000000E+00 0. -1.
         -5    1    5    5    0  502 -0.64180512456E+02 -0.58974194748E+01 -0.26347459623E+02  0.69786792190E+02  0.47000000000E+01 0.  1.
         11    1    6    6    0    0 -0.17900967390E+02 -0.39067962996E+02  0.26645886191E+02  0.50564351247E+02  0.00000000000E+00 0. -1.
        -12    1    6    6    0    0  0.43535569183E+02 -0.84183710545E+02 -0.26139928098E+02  0.98313471845E+02  0.00000000000E+00 0.  1.
</event>
<event>
12    1  0.8453150E-002  0.2159259E+03  0.7818608E-02  0.1137449E+00
         21   -1    0    0  501  502  0.00000000000E+00  0.00000000000E+00  0.70250279091E+03  0.70250279091E+03  0.00000000000E+00 0.  1.
         21   -1    0    0  502  503 -0.00000000000E+00 -0.00000000000E+00 -0.65617028052E+02  0.65617028052E+02  0.00000000000E+00 0. -1.
         -6    2    1    2    0  503 -0.60958751516E+02 -0.11021121923E+03  0.32882249451E+03  0.39338050818E+03  0.17538959231E+03 0.  0.
        -24    2    3    3    0    0 -0.56441292076E+02 -0.53537694009E+02  0.31576594550E+03  0.33485821010E+03  0.79812182039E+02 0.  0.
          6    2    1    2  501    0  0.60958751516E+02  0.11021121923E+03  0.30806326836E+03  0.37473931079E+03  0.17223266679E+03 0.  0.
         24    2    5    5    0    0  0.11778037230E+02  0.13641700807E+03  0.23771589490E+03  0.28487091268E+03  0.76774135944E+02 0.  0.
          5    1    5    5  501    0  0.49180714286E+02 -0.26205788843E+02  0.70347373459E+02  0.89868398112E+02  0.47000000000E+01 0. -1.
        -11    1    6    6    0    0  0.22392515155E+02  0.11257000649E+03  0.23096203982E+03  0.25790869496E+03  0.00000000000E+00 0.  1.
         12    1    6    6    0    0 -0.10614477926E+02  0.23847001580E+02  0.67538550782E+01  0.26962217720E+02  0.00000000000E+00 0. -1.
         -5    1    3    3    0  503 -0.45174594395E+01 -0.56673525222E+02  0.13056549011E+02  0.58522298083E+02  0.47000000000E+01 0.  1.
         13    1    4    4    0    0 -0.15439658830E+02  0.32882601490E+00  0.41739860554E+01  0.15997291987E+02  0.00000000000E+00 0. -1.
        -14    1    4    4    0    0 -0.41001633246E+02 -0.53866520024E+02  0.31159195944E+03  0.31886091811E+03  0.00000000000E+00 0.  1.
</event>
<event>
12    1  0.8453150E-002  0.2197085E+03  0.7818608E-02  0.1134194E+00
         21   -1    0    0  501  502  0.00000000000E+00  0.00000000000E+00  0.58840297513E+03  0.58840297513E+03  0.00000000000E+00 0.  1.
         21   -1    0    0  502  503 -0.00000000000E+00 -0.00000000000E+00 -0.86600358203E+02  0.86600358203E+02  0.00000000000E+00 0. -1.
         -6    2    1    2    0  503  0.14073003733E+03  0.16878489604E+02  0.32965635904E+03  0.39588660038E+03  0.16722158500E+03 0.  0.
        -24    2    3    3    0    0  0.85927543730E+01 -0.69132432493E+01  0.14283781822E+03  0.16577887497E+03  0.83416813132E+02 0.  0.
          6    2    1    2  501    0 -0.14073003733E+03 -0.16878489604E+02  0.17214625789E+03  0.27911673295E+03  0.16787492275E+03 0.  0.
         24    2    5    5    0    0 -0.45423526350E+02  0.43426785210E+02  0.11490437927E+03  0.15255141434E+03  0.78228736557E+02 0.  0.
          5    1    5    5  501    0 -0.95306510985E+02 -0.60305274814E+02  0.57241878625E+02  0.12656531861E+03  0.47000000000E+01 0. -1.
        -11    1    6    6    0    0 -0.16739470700E+01  0.37133669103E+02  0.96655623578E+01  0.38407480723E+02  0.00000000000E+00 0.  1.
         12    1    6    6    0    0 -0.43749579280E+02  0.62931161075E+01  0.10523881691E+03  0.11414393362E+03  0.00000000000E+00 0. -1.
         -5    1    3    3    0  503  0.13213728296E+03  0.23791732853E+02  0.18681854082E+03  0.23010772541E+03  0.47000000000E+01 0.  1.
         13    1    4    4    0    0 -0.23563048854E+02  0.18642173735E+02  0.19592616688E+02  0.35869465309E+02  0.00000000000E+00 0. -1.
        -14    1    4    4    0    0  0.32155803227E+02 -0.25555416984E+02  0.12324520153E+03  0.12990940966E+03  0.00000000000E+00 0.  1.
</event>
<event>
12    1  0.8453150E-002  0.2399466E+03  0.7818608E-02  0.1119931E+00
         21   -1    0    0  501  502  0.00000000000E+00  0.00000000000E+00  0.12552078559E+04  0.12552078559E+04  0.00000000000E+00 0. -1.
         21   -1    0    0  502  503 -0.00000000000E+00 -0.00000000000E+00 -0.46158187640E+02  0.46158187640E+02  0.00000000000E+00 0.  1.
         -6    2    1    2    0  503 -0.16166049443E+03  0.39249229810E+02  0.54258925382E+03  0.59302724300E+03  0.17205695302E+03 0.  0.
        -24    2    3    3    0    0 -0.98722642846E+02 -0.27172239155E+02  0.42428908294E+03  0.44339434177E+03  0.78056553975E+02 0.  0.
          6    2    1    2  501    0  0.16166049443E+03 -0.39249229810E+02  0.66646041447E+03  0.70833880057E+03  0.17291545573E+03 0.  0.
         24    2    5    5    0    0  0.11998869163E+03 -0.31864190805E+02  0.25335021596E+03  0.29303986719E+03  0.79204918163E+02 0.  0.
          5    1    5    5  501    0  0.41671802806E+02 -0.73850390053E+01  0.41311019852E+03  0.41529893338E+03  0.47000000000E+01 0. -1.
        -11    1    6    6    0    0  0.33412649692E+02 -0.46975179579E+02  0.79048571039E+02  0.97835316932E+02  0.00000000000E+00 0.  1.
         12    1    6    6    0    0  0.86576041935E+02  0.15110988774E+02  0.17430164492E+03  0.19520455025E+03  0.00000000000E+00 0. -1.
         -5    1    3    3    0  503 -0.62937851588E+02  0.66421468965E+02  0.11830017088E+03  0.14963290123E+03  0.47000000000E+01 0.  1.
         13    1    4    4    0    0 -0.11623115272E+02  0.23196016369E+02  0.12440200033E+03  0.12707875381E+03  0.00000000000E+00 0. -1.
        -14    1    4    4    0    0 -0.87099527574E+02 -0.50368255524E+02  0.29988708261E+03  0.31631558796E+03  0.00000000000E+00 0.  1.
</event>
<event>
12    1  0.8453150E-002  0.1992213E+03  0.7818608E-02  0.1150474E+00
         21   -1    0    0  503  502  0.00000000000E+00  0.00000000000E+00  0.11780241572E+04  0.11780241572E+04  0.00000000000E+00 0. -1.
         21   -1    0    0  501  503 -0.00000000000E+00 -0.00000000000E+00 -0.33916431727E+02  0.33916431727E+02  0.00000000000E+00 0. -1.
          6    2    1    2  501    0  0.47048158563E+02 -0.87967065210E+02  0.51588249990E+03  0.55288364001E+03  0.17202857874E+03 0.  0.
         24    2    3    3    0    0 -0.22763278953E+02 -0.24887621529E+02  0.36703838478E+03  0.37673224595E+03  0.77925917788E+02 0.  0.
         -6    2    1    2    0  502 -0.47048158563E+02  0.87967065210E+02  0.62822522557E+03  0.65905694891E+03  0.17244533651E+03 0.  0.
        -24    2    5    5    0    0 -0.50676352768E+02  0.12294025081E+03  0.56988519427E+03  0.59077857198E+03  0.81041893262E+02 0.  0.
          5    1    3    3  501    0  0.69811437516E+02 -0.63079443680E+02  0.14884411512E+03  0.17615139406E+03  0.47000000000E+01 0. -1.
        -13    1    4    4    0    0  0.21810953532E+02  0.75589046371E+01  0.18760337099E+03  0.18901819897E+03  0.00000000000E+00 0.  1.
         14    1    4    4    0    0 -0.44574232484E+02 -0.32446526166E+02  0.17943501379E+03  0.18771404698E+03  0.00000000000E+00 0. -1.
         -5    1    5    5    0  502  0.36281942043E+01 -0.34973185603E+02  0.58340031293E+02  0.68278376927E+02  0.47000000000E+01 0.  1.
         11    1    6    6    0    0 -0.72688869282E+01 -0.11953171403E+02  0.48009858942E+02  0.50006615356E+02  0.00000000000E+00 0. -1.
        -12    1    6    6    0    0 -0.43407465839E+02  0.13489342222E+03  0.52187533533E+03  0.54077195663E+03  0.00000000000E+00 0.  1.
</event>
<event>
12    1  0.8453150E-002  0.2197636E+03  0.7818608E-02  0.1134158E+00
         21   -1    0    0  501  502  0.00000000000E+00  0.00000000000E+00  0.12177177716E+03  0.12177177716E+03  0.00000000000E+00 0. -1.
         21   -1    0    0  502  503 -0.00000000000E+00 -0.00000000000E+00 -0.43046148678E+03  0.43046148678E+03  0.00000000000E+00 0. -1.
         -6    2    1    2    0  503 -0.13572989412E+03  0.10697868614E+02 -0.23301998549E+03  0.32030351588E+03  0.17250791313E+03 0.  0.
        -24    2    3    3    0    0  0.64852504495E+00 -0.16064857527E+02 -0.96789452190E+02  0.12563414251E+03  0.78468079343E+02 0.  0.
          6    2    1    2  501    0  0.13572989412E+03 -0.10697868614E+02 -0.75669724134E+02  0.23192974806E+03  0.17183844836E+03 0.  0.
         24    2    5    5    0    0  0.12606918278E+03 -0.64550367239E+02 -0.40311243703E+02  0.16661716818E+03  0.77949314344E+02 0.  0.
          5    1    5    5  501    0  0.96607113426E+01  0.53852498625E+02 -0.35358480431E+02  0.65312579877E+02  0.47000000000E+01 0. -1.
        -11    1    6    6    0    0  0.80240621991E+02 -0.75193059836E+02 -0.46052798876E+02  0.11922002327E+03  0.00000000000E+00 0.  1.
         12    1    6    6    0    0  0.45828560791E+02  0.10642692596E+02  0.57415551733E+01  0.47397144911E+02  0.00000000000E+00 0. -1.
         -5    1    3    3    0  503 -0.13637841917E+03  0.26762726141E+02 -0.13623053330E+03  0.19466937337E+03  0.47000000000E+01 0.  1.
         11    1    4    4    0    0 -0.31303411900E+02 -0.17640217853E+02 -0.83667567443E+02  0.91056810422E+02  0.00000000000E+00 0. -1.
        -12    1    4    4    0    0  0.31951936945E+02  0.15753603256E+01 -0.13121884747E+02  0.34577332083E+02  0.00000000000E+00 0.  1.
</event>
<event>
12    1  0.8453150E-002  0.2329981E+03  0.7818608E-02  0.1124895E+00
         21   -1    0    0  501  502  0.00000000000E+00  0.00000000000E+00  0.36348845712E+03  0.36348845712E+03  0.00000000000E+00 0.  1.
         21   -1    0    0  502  503 -0.00000000000E+00 -0.00000000000E+00 -0.34197983892E+03  0.34197983892E+03  0.00000000000E+00 0.  1.
         -6    2    1    2    0  503  0.57461361104E+02  0.14297958106E+03 -0.25483491563E+03  0.34529546961E+03  0.17476601067E+03 0.  0.
        -24    2    3    3    0    0  0.21091274293E+02  0.65489303148E+01 -0.46956087866E+02  0.93955455459E+02  0.78326388167E+02 0.  0.
          6    2    1    2  501    0 -0.57461361104E+02 -0.14297958106E+03  0.27634353383E+03  0.36017282644E+03  0.17208645383E+03 0.  0.
         24    2    5    5    0    0  0.39325838721E+01 -0.10836491551E+03  0.93534234842E+02  0.16419139530E+03  0.80322730748E+02 0.  0.
          5    1    5    5  501    0 -0.61393944977E+02 -0.34614665553E+02  0.18280929899E+03  0.19598143113E+03  0.47000000000E+01 0. -1.
        -11    1    6    6    0    0  0.63568462094E+01 -0.12113643690E+03  0.88895363829E+02  0.15038893426E+03  0.00000000000E+00 0.  1.
         12    1    6    6    0    0 -0.24242623372E+01  0.12771521390E+02  0.46388710132E+01  0.13802461041E+02  0.00000000000E+00 0. -1.
         -5    1    3    3    0  503  0.36370086811E+02  0.13643065075E+03 -0.20787882777E+03  0.25134001415E+03  0.47000000000E+01 0.  1.
         11    1    4    4    0    0 -0.15079424744E+02  0.70597237954E+01  0.14870315254E+02  0.22323866745E+02  0.00000000000E+00 0. -1.
        -12    1    4    4    0    0  0.36170699038E+02 -0.51079348062E+00 -0.61826403121E+02  0.71631588714E+02  0.00000000000E+00 0.  1.
</event>
<event>
12    1  0.8453150E-002  0.1813633E+03  0.7818608E-02  0.1166641E+00
         21   -1    0    0  503  502  0.00000000000E+00  0.00000000000E+00  0.30075413382E+03  0.30075413382E+03  0.00000000000E+00 0. -1.
         21   -1    0    0  501  503 -0.00000000000E+00 -0.00000000000E+00 -0.10903032695E+03  0.10903032695E+03  0.00000000000E+00 0. -1.
          6    2    1    2  501    0 -0.15542753165E+02  0.53622571338E+02  0.92031294415E+02  0.20337747595E+03  0.17255631325E+03 0.  0.
         24    2    3    3    0    0  0.38813213052E+02  0.79049858875E+02  0.46154994437E+02  0.12769496203E+03  0.80127237065E+02 0.  0.
         -6    2    1    2    0  502  0.15542753165E+02 -0.53622571338E+02  0.99692512449E+02  0.20640698481E+03  0.17189615763E+03 0.  0.
        -24    2    5    5    0    0 -0.42665340033E+02 -0.51934900156E+02  0.10672667740E+03  0.14756312511E+03  0.76594563314E+02 0.  0.
          5    1    3    3  501    0 -0.54355966217E+02 -0.25427287537E+02  0.45876299979E+02  0.75682513929E+02  0.47000000000E+01 0. -1.
        -13    1    4    4    0    0 -0.19543237132E+02  0.35006485324E+02 -0.20123488342E+01  0.40142766225E+02  0.00000000000E+00 0.  1.
         14    1    4    4    0    0  0.58356450184E+02  0.44043373551E+02  0.48167343271E+02  0.87552195801E+02  0.00000000000E+00 0. -1.
         -5    1    5    5    0  502  0.58208093198E+02 -0.16876711819E+01 -0.70341649538E+01  0.58843859699E+02  0.47000000000E+01 0.  1.
         13    1    6    6    0    0 -0.47954279804E+02 -0.11278344555E+02  0.23063774589E+02  0.54394408772E+02  0.00000000000E+00 0. -1.
        -14    1    6    6    0    0  0.52889397708E+01 -0.40656555601E+02  0.83662902814E+02  0.93168716341E+02  0.00000000000E+00 0.  1.
</event>
<event>
12    1  0.8453150E-002  0.1748586E+03  0.7818608E-02  0.1173106E+00
         21   -1    0    0  503  502  0.00000000000E+00  0.00000000000E+00  0.18063866608E+04  0.18063866608E+04  0.00000000000E+00 0.  1.
         21   -1    0    0  501  503 -0.00000000000E+00 -0.00000000000E+00 -0.66127210771E+02  0.66127210771E+02  0.00000000000E+00 0.  1.
          6    2    1    2  501    0 -0.62687106878E+01 -0.21273290786E+02  0.61222253477E+02  0.18439614742E+03  0.17251644916E+03 0.  0.
         24    2    3    3    0    0 -0.35860704276E+02  0.33376643761E+02  0.78181220489E+02  0.11980514192E+03  0.76426293461E+02 0.  0.
         -6    2    1    2    0  502  0.62687106878E+01  0.21273290786E+02  0.16790371965E+04  0.16881177241E+04  0.17344651492E+03 0.  0.
        -24    2    5    5    0    0 -0.17871442941E+02  0.70865608922E+02  0.13624808111E+04  0.13667578321E+04  0.79571904805E+02 0.  0.
          5    1    3    3  501    0  0.29591993588E+02 -0.54649934547E+02 -0.16958967012E+02  0.64591005509E+02  0.47000000000E+01 0. -1.
        -11    1    4    4    0    0 -0.50680255503E+02  0.34688567936E+02  0.28058141059E+02  0.67520695516E+02  0.00000000000E+00 0.  1.
         12    1    4    4    0    0  0.14819551227E+02 -0.13119241748E+01  0.50123079431E+02  0.52284446399E+02  0.00000000000E+00 0. -1.
         -5    1    5    5    0  502  0.24140153629E+02 -0.49592318136E+02  0.31655638544E+03  0.32135989202E+03  0.47000000000E+01 0.  1.
         13    1    6    6    0    0  0.14803619861E+02  0.62314863548E+02  0.57560840133E+03  0.57916087667E+03  0.00000000000E+00 0. -1.
        -14    1    6    6    0    0 -0.32675062802E+02  0.85507453742E+01  0.78687240974E+03  0.78759695542E+03  0.00000000000E+00 0.  1.
</event>
<event>
12    1  0.8453150E-002  0.2249943E+03  0.7818608E-02  0.1132893E+00
         21   -1    0    0  503  502  0.00000000000E+00  0.00000000000E+00  0.42380692122E+02  0.42380692122E+02  0.00000000000E+00 0.  1.
         21   -1    0    0  501  503 -0.00000000000E+00 -0.00000000000E+00 -0.11199547825E+04  0.11199547825E+04  0.00000000000E+00 0.  1.
          6    2    1    2  501    0  0.23881902443E+02 -0.12964445793E+03 -0.52782326588E+03  0.56832502309E+03  0.16437122965E+03 0.  0.
         24    2    3    3    0    0 -0.48060186989E+02 -0.86507650704E+02 -0.32202053173E+03  0.34603398920E+03  0.79050260081E+02 0.  0.
         -6    2    1    2    0  502 -0.23881902443E+02  0.12964445793E+03 -0.54975082451E+03  0.59401045154E+03  0.18233051514E+03 0.  0.
        -24    2    5    5    0    0 -0.49776677382E+02  0.81979375288E+02 -0.51415308164E+03  0.52895825119E+03  0.79025973980E+02 0.  0.
          5    1    3    3  501    0  0.71942089432E+02 -0.43136807222E+02 -0.20580273414E+03  0.22229103389E+03  0.47000000000E+01 0. -1.
        -13    1    4    4    0    0 -0.42859794676E+00 -0.72195666283E+02 -0.23457751338E+03  0.24543636183E+03  0.00000000000E+00 0.  1.
         14    1    4    4    0    0 -0.47631589043E+02 -0.14311984422E+02 -0.87443018352E+02  0.10059762736E+03  0.00000000000E+00 0. -1.
         -5    1    5    5    0  502  0.25894774940E+02  0.47665082638E+02 -0.35597742872E+02  0.65052200345E+02  0.47000000000E+01 0.  1.
         13    1    6    6    0    0 -0.37972922020E+02  0.35963281442E+02 -0.42250286403E+03  0.42572757784E+03  0.00000000000E+00 0. -1.
        -14    1    6    6    0    0 -0.11803755362E+02  0.46016093847E+02 -0.91650217605E+02  0.10323067335E+03  0.00000000000E+00 0.  1.
</event>
<event>
12    1  0.8453150E-002  0.1724597E+03  0.7818608E-02  0.1175318E+00
         21   -1    0    0  501  502  0.00000000000E+00  0.00000000000E+00  0.82861326014E+02  0.82861326014E+02  0.00000000000E+00 0.  1.
         21   -1    0    0  502  503 -0.00000000000E+00 -0.00000000000E+00 -0.36560482941E+03  0.36560482941E+03  0.00000000000E+00 0.  1.
         -6    2    1    2    0  503 -0.67839584379E+01  0.72869041830E+00 -0.11091252462E+03  0.20504621086E+03  0.17232471496E+03 0.  0.
        -24    2    3    3    0    0 -0.48394294366E+02 -0.18637465451E+02 -0.17214539820E+02  0.10060546016E+03  0.84473400473E+02 0.  0.
          6    2    1    2  501    0  0.67839584379E+01 -0.72869041830E+00 -0.17183097877E+03  0.24341994457E+03  0.17228125570E+03 0.  0.
         24    2    5    5    0    0  0.18442484005E+01 -0.52123074495E+02 -0.16446065785E+03  0.19105397203E+03  0.82061538480E+02 0.  0.
          5    1    5    5  501    0  0.49397100374E+01  0.51394384077E+02 -0.73703209162E+01  0.52365972543E+02  0.47000000000E+01 0. -1.
        -11    1    6    6    0    0  0.24340495763E+02 -0.21626385785E+02 -0.14469417391E+03  0.14831238741E+03  0.00000000000E+00 0.  1.
         12    1    6    6    0    0 -0.22496247362E+02 -0.30496688711E+02 -0.19766483942E+02  0.42741584612E+02  0.00000000000E+00 0. -1.
         -5    1    3    3    0  503  0.41610335928E+02  0.19366155869E+02 -0.93697984803E+02  0.10444075069E+03  0.47000000000E+01 0.  1.
         13    1    4    4    0    0 -0.83126623762E+01 -0.84162503957E+01 -0.47748566423E+02  0.49192064624E+02  0.00000000000E+00 0. -1.
        -14    1    4    4    0    0 -0.40081631990E+02 -0.10221215055E+02  0.30534026602E+02  0.51413395538E+02  0.00000000000E+00 0.  1.
</event>
<event>
12    1  0.8453150E-002  0.2021955E+03  0.7818608E-02  0.1149387E+00
         21   -1    0    0  503  502  0.00000000000E+00  0.00000000000E+00  0.50879878253E+03  0.50879878253E+03  0.00000000000E+00 0.  1.
         21   -1    0    0  501  503 -0.00000000000E+00 -0.00000000000E+00 -0.87822792977E+02  0.87822792977E+02  0.00000000000E+00 0. -1.
          6    2    1    2  501    0 -0.10186033384E+03  0.21283540561E+02  0.11194935713E+03  0.23111836147E+03  0.17336240002E+03 0.  0.
         24    2    3    3    0    0 -0.66762813079E+02  0.15748614150E+02  0.14725785021E+03  0.18080682147E+03  0.79378461717E+02 0.  0.
         -6    2    1    2    0  502  0.10186033384E+03 -0.21283540561E+02  0.30902663242E+03  0.36550321404E+03  0.16512608278E+03 0.  0.
        -24    2    5    5    0    0  0.10774816242E+03 -0.16486103632E+02  0.13382336913E+03  0.19007244309E+03  0.79607671609E+02 0.  0.
          5    1    3    3  501    0 -0.35097520759E+02  0.55349264107E+01 -0.35308493079E+02  0.50311540001E+02  0.47000000000E+01 0. -1.
        -11    1    4    4    0    0 -0.55519631063E+02  0.43519761537E+02  0.77008152804E+02  0.10443493034E+03  0.00000000000E+00 0.  1.
         12    1    4    4    0    0 -0.11243182017E+02 -0.27771147387E+02  0.70249697401E+02  0.76371891125E+02  0.00000000000E+00 0. -1.
         -5    1    5    5    0  502 -0.58878285786E+01 -0.47974369289E+01  0.17520326329E+03  0.17543077094E+03  0.47000000000E+01 0.  1.
         11    1    6    6    0    0  0.10969196029E+03  0.83409467864E+01  0.10678200223E+03  0.15331110053E+03  0.00000000000E+00 0. -1.
        -12    1    6    6    0    0 -0.19437978763E+01 -0.24827050418E+02  0.27041366906E+02  0.36761342560E+02  0.00000000000E+00 0.  1.
</event>
<event>
12    1  0.8453150E-002  0.2067358E+03  0.7818608E-02  0.1144358E+00
         21   -1    0    0  503  502  0.00000000000E+00  0.00000000000E+00  0.23068407313E+02  0.23068407313E+02  0.00000000000E+00 0. -1.
         21   -1    0    0  501  503 -0.00000000000E+00 -0.00000000000E+00 -0.19376231842E+04  0.19376231842E+04  0.00000000000E+00 0. -1.
          6    2    1    2  501    0  0.97066614224E+02 -0.61079343295E+02 -0.74069760520E+03  0.76876862698E+03  0.17093754915E+03 0.  0.
         24    2    3    3    0    0  0.93194874405E+02 -0.78747737268E+02 -0.73473985093E+03  0.74915364927E+03  0.80635295804E+02 0.  0.
         -6    2    1    2    0  502 -0.97066614224E+02  0.61079343295E+02 -0.11738571717E+04  0.11919229646E+04  0.17200895349E+03 0.  0.
        -24    2    5    5    0    0 -0.41714828170E+02  0.31241439247E+02 -0.28130869592E+03  0.29714981321E+03  0.80294923081E+02 0.  0.
          5    1    3    3  501    0  0.38717398187E+01  0.17668393973E+02 -0.59577542726E+01  0.19614977716E+02  0.47000000000E+01 0. -1.
        -11    1    4    4    0    0  0.13397898506E+02 -0.13275555231E+02 -0.35896887198E+03  0.35946403867E+03  0.00000000000E+00 0.  1.
         12    1    4    4    0    0  0.79796975899E+02 -0.65472182037E+02 -0.37577097895E+03  0.38968961059E+03  0.00000000000E+00 0. -1.
         -5    1    5    5    0  502 -0.55351786054E+02  0.29837904049E+02 -0.89254847580E+03  0.89477315136E+03  0.47000000000E+01 0.  1.
         11    1    6    6    0    0 -0.34182910780E+02  0.28882214528E+02 -0.28496062061E+03  0.28845313138E+03  0.00000000000E+00 0. -1.
        -12    1    6    6    0    0 -0.75319173893E+01  0.23592247190E+01  0.36519246888E+01  0.86966818251E+01  0.00000000000E+00 0.  1.
</event>
<event>
12    1  0.8453150E-002  0.2310188E+03  0.7818608E-02  0.1126189E+00
         21   -1    0    0  503  502  0.00000000000E+00  0.00000000000E+00  0.34229284298E+03  0.34229284298E+03  0.00000000000E+00 0.  1.
         21   -1    0    0  501  503 -0.00000000000E+00 -0.00000000000E+00 -0.18078624309E+03  0.18078624309E+03  0.00000000000E+00 0.  1.
          6    2    1    2  501    0 -0.12897327835E+03  0.80818178110E+02  0.17993396954E+03  0.29282400521E+03  0.17379292330E+03 0.  0.
         24    2    3    3    0    0 -0.13830395590E+03  0.89728073478E+02  0.19835747869E+03  0.26984654956E+03  0.79324394540E+02 0.  0.
         -6    2    1    2    0  502  0.12897327835E+03 -0.80818178110E+02 -0.18427369652E+02  0.23025508086E+03  0.17179100636E+03 0.  0.
        -24    2    5    5    0    0  0.73136969515E+02 -0.80196258590E+02  0.52379587840E+02  0.13995671211E+03  0.71160409228E+02 0.  0.
          5    1    3    3  501    0  0.93306775450E+01 -0.89098953681E+01 -0.18423509147E+02  0.22977455652E+02  0.47000000000E+01 0. -1.
        -11    1    4    4    0    0 -0.10229283744E+03  0.21523224186E+02  0.98106445206E+02  0.14335950740E+03  0.00000000000E+00 0.  1.
         12    1    4    4    0    0 -0.36011118459E+02  0.68204849292E+02  0.10025103349E+03  0.12648704216E+03  0.00000000000E+00 0. -1.
         -5    1    5    5    0  502  0.55836308838E+02 -0.62191951974E+00 -0.70806957492E+02  0.90298368744E+02  0.47000000000E+01 0.  1.
         11    1    6    6    0    0 -0.54123998573E+01  0.90930773083E+01  0.18413066913E+01  0.10740974699E+02  0.00000000000E+00 0. -1.
        -12    1    6    6    0    0  0.78549369372E+02 -0.89289335899E+02  0.50538281149E+02  0.12921573741E+03  0.00000000000E+00 0.  1.
</event>
<event>
12    1  0.8453150E-002  0.2399302E+03  0.7818608E-02  0.1119845E+00
         21   -1    0    0  503  502  0.00000000000E+00  0.00000000000E+00  0.80499585015E+02  0.80499585015E+02  0.00000000000E+00 0. -1.
         21   -1    0    0  501  503 -0.00000000000E+00 -0.00000000000E+00 -0.86374291749E+03  0.86374291749E+03  0.00000000000E+00 0.  1.
          6    2    1    2  501    0 -0.13764817572E+03 -0.95543019436E+02 -0.19573007534E+03  0.30963972159E+03  0.17172945569E+03 0.  0.
         24    2    3    3    0    0 -0.13839608991E+03 -0.81677960661E+02 -0.86101730567E+02  0.19903563845E+03  0.79855559628E+02 0.  0.
         -6    2    1    2    0  502  0.13764817572E+03  0.95543019436E+02 -0.58751325713E+03  0.63460278092E+03  0.17167810983E+03 0.  0.
        -24    2    5    5    0    0  0.47414609631E+02 -0.15694733406E+02 -0.16726127135E+03  0.19058729058E+03  0.76503023286E+02 0.  0.
          5    1    3    3  501    0  0.74791419602E+00 -0.13865058775E+02 -0.10962834477E+03  0.11060408314E+03  0.47000000000E+01 0. -1.
        -11    1    4    4    0    0 -0.22306660380E+02 -0.40356506904E+02 -0.55333808534E+02  0.72028224424E+02  0.00000000000E+00 0.  1.
         12    1    4    4    0    0 -0.11608942953E+03 -0.41321453757E+02 -0.30767922034E+02  0.12700741402E+03  0.00000000000E+00 0. -1.
         -5    1    5    5    0  502  0.90233566088E+02  0.11123775284E+03 -0.42025198578E+03  0.44401549034E+03  0.47000000000E+01 0.  1.
         11    1    6    6    0    0  0.98916129676E+01  0.18780632358E+02 -0.68919719733E+01  0.22317155655E+02  0.00000000000E+00 0. -1.
        -12    1    6    6    0    0  0.37522996663E+02 -0.34475365764E+02 -0.16036929938E+03  0.16827013492E+03  0.00000000000E+00 0.  1.
</event>
<event>
12    1  0.8453150E-002  0.2119483E+03  0.7818608E-02  0.1140176E+00
         21   -1    0    0  503  502  0.00000000000E+00  0.00000000000E+00  0.41157737099E+02  0.41157737099E+02  0.00000000000E+00 0.  1.
         21   -1    0    0  501  503 -0.00000000000E+00 -0.00000000000E+00 -0.14404099049E+04  0.14404099049E+04  0.00000000000E+00 0.  1.
          6    2    1    2  501    0  0.95287426314E+02 -0.76674873671E+02 -0.10671232162E+04  0.10879678567E+04  0.17309930358E+03 0.  0.
         24    2    3    3    0    0  0.56238935150E+02 -0.11811560435E+03 -0.71428203725E+03  0.73053100025E+03  0.79765906073E+02 0.  0.
         -6    2    1    2    0  502 -0.95287426314E+02  0.76674873671E+02 -0.33212895163E+03  0.39359978528E+03  0.17219878221E+03 0.  0.
        -24    2    5    5    0    0  0.11059723707E+01  0.26006726817E+02 -0.66879704388E+02  0.10682774763E+03  0.79130902874E+02 0.  0.
          5    1    3    3  501    0  0.39048491164E+02  0.41440730677E+02 -0.35284117892E+03  0.35743685647E+03  0.47000000000E+01 0. -1.
        -13    1    4    4    0    0  0.12249896570E+02 -0.72051991724E+02 -0.54098588069E+03  0.54590042369E+03  0.00000000000E+00 0.  1.
         14    1    4    4    0    0  0.43989038580E+02 -0.46063612625E+02 -0.17329615657E+03  0.18463057657E+03  0.00000000000E+00 0. -1.
         -5    1    5    5    0  502 -0.96393398685E+02  0.50668146855E+02 -0.26524924725E+03  0.28677203765E+03  0.47000000000E+01 0.  1.
         13    1    6    6    0    0 -0.26703595172E+02 -0.12597158259E+02 -0.46471325610E+02  0.55057737833E+02  0.00000000000E+00 0. -1.
        -14    1    6    6    0    0  0.27809567542E+02  0.38603885076E+02 -0.20408378777E+02  0.51770009795E+02  0.00000000000E+00 0.  1.
</event>
<event>
12    1  0.8453150E-002  0.2129092E+03  0.7818608E-02  0.1139853E+00
         21   -1    0    0  501  502  0.00000000000E+00  0.00000000000E+00  0.26592578139E+03  0.26592578139E+03  0.00000000000E+00 0.  1.
         21   -1    0    0  502  503 -0.00000000000E+00 -0.00000000000E+00 -0.17037037836E+03  0.17037037836E+03  0.00000000000E+00 0. -1.
         -6    2    1    2    0  503  0.96773869964E+02 -0.61019401009E+02  0.23143689647E+02  0.21416343863E+03  0.17956001466E+03 0.  0.
        -24    2    3    3    0    0  0.91387434954E+01  0.12529276566E+02 -0.30847388631E+02  0.87567822992E+02  0.80473988557E+02 0.  0.
          6    2    1    2  501    0 -0.96773869964E+02  0.61019401009E+02  0.72411713387E+02  0.22213272112E+03  0.17609923438E+03 0.  0.
         24    2    5    5    0    0 -0.92427709840E+02  0.92895054233E+02  0.97410400809E+02  0.18112088442E+03  0.78381221870E+02 0.  0.
          5    1    5    5  501    0 -0.43461601239E+01 -0.31875653224E+02 -0.24998687422E+02  0.41011836695E+02  0.47000000000E+01 0. -1.
        -11    1    6    6    0    0 -0.31156866620E+02  0.84399522166E+02  0.67118891253E+02  0.11224515688E+03  0.00000000000E+00 0.  1.
         12    1    6    6    0    0 -0.61270843220E+02  0.84955320670E+01  0.30291509556E+02  0.68875727547E+02  0.00000000000E+00 0. -1.
         -5    1    3    3    0  503  0.87635126468E+02 -0.73548677575E+02  0.53991078278E+02  0.12659561563E+03  0.47000000000E+01 0.  1.
         11    1    4    4    0    0  0.28298846105E+02 -0.15697708519E+02  0.10445357239E+02  0.34005120666E+02  0.00000000000E+00 0. -1.
        -12    1    4    4    0    0 -0.19160102610E+02  0.28226985085E+02 -0.41292745869E+02  0.53562702326E+02  0.00000000000E+00 0.  1.
</event>
<event>
12    1  0.8453150E-002  0.1809453E+03  0.7818608E-02  0.1167263E+00
         21   -1    0    0  503  502  0.00000000000E+00  0.00000000000E+00  0.20735102040E+03  0.20735102040E+03  0.00000000000E+00 0.  1.
         21   -1    0    0  501  503 -0.00000000000E+00 -0.00000000000E+00 -0.25946446278E+03  0.25946446278E+03  0.00000000000E+00 0.  1.
          6    2    1    2  501    0  0.52062654754E+02 -0.17408694594E+02 -0.17298075428E+03  0.24921465643E+03  0.17079818782E+03 0.  0.
         24    2    3    3    0    0  0.36705023913E+01  0.41600015952E+02 -0.44141089162E+02  0.99396174134E+02  0.78658310210E+02 0.  0.
         -6    2    1    2    0  502 -0.52062654754E+02  0.17408694594E+02  0.12086731190E+03  0.21760082674E+03  0.17241702366E+03 0.  0.
        -24    2    5    5    0    0  0.12920122860E+02 -0.15508645620E+02  0.12388962743E+03  0.14454237710E+03  0.71668761184E+02 0.  0.
          5    1    3    3  501    0  0.48392152363E+02 -0.59008710546E+02 -0.12883966512E+03  0.14981848230E+03  0.47000000000E+01 0. -1.
        -13    1    4    4    0    0  0.25337124681E+02 -0.12290323954E+02 -0.26562476851E+02  0.38711589046E+02  0.00000000000E+00 0.  1.
         14    1    4    4    0    0 -0.21666622290E+02  0.53890339905E+02 -0.17578612311E+02  0.60684585088E+02  0.00000000000E+00 0. -1.
         -5    1    5    5    0  502 -0.64982777614E+02  0.32917340214E+02 -0.30223155309E+01  0.73058449644E+02  0.47000000000E+01 0.  1.
         11    1    6    6    0    0  0.11020264161E+02 -0.41204131162E+02  0.47085620563E+02  0.63531742545E+02  0.00000000000E+00 0. -1.
        -12    1    6    6    0    0  0.18998586989E+01  0.25695485543E+02  0.76804006864E+02  0.81010634554E+02  0.00000000000E+00 0.  1.
</event>
<event>
12    1  0.8453150E-002  0.2222078E+03  0.7818608E-02  0.1132337E+00
         21   -1    0    0  503  502  0.00000000000E+00  0.00000000000E+00  0.31163355610E+03  0.31163355610E+03  0.00000000000E+00 0. -1.
         21   -1    0    0  501  503 -0.00000000000E+00 -0.00000000000E+00 -0.15867234552E+03  0.15867234552E+03  0.00000000000E+00 0. -1.
          6    2    1    2  501    0 -0.36486036436E+02  0.13619539968E+03  0.62415696856E+02  0.23080732345E+03  0.17174365663E+03 0.  0.
         24    2    3    3    0    0 -0.23416614888E+01 -0.17943504587E+01  0.14532558454E+02  0.80734359767E+02  0.79360812241E+02 0.  0.
         -6    2    1    2    0  502  0.36486036436E+02 -0.13619539968E+03  0.90545513727E+02  0.23949857818E+03  0.17111592896E+03 0.  0.
        -24    2    5    5    0    0 -0.79243743992E+01 -0.15238386233E+03  0.56758791335E+02  0.18120635294E+03  0.79564720459E+02 0.  0.
          5    1    3    3  501    0 -0.34144374948E+02  0.13798975014E+03  0.47883138402E+02  0.15007296368E+03  0.47000000000E+01 0. -1.
        -13    1    4    4    0    0  0.31096659886E+02  0.70265090216E+01  0.29141916849E+02  0.43192886020E+02  0.00000000000E+00 0.  1.
         14    1    4    4    0    0 -0.33438321375E+02 -0.88208594803E+01 -0.14609358395E+02  0.37541473746E+02  0.00000000000E+00 0. -1.
         -5    1    5    5    0  502  0.44410410835E+02  0.16188462653E+02  0.33786722392E+02  0.58292225242E+02  0.47000000000E+01 0.  1.
         13    1    6    6    0    0  0.32638023759E+02 -0.73400720746E+02  0.43742234257E+02  0.91467422937E+02  0.00000000000E+00 0. -1.
        -14    1    6    6    0    0 -0.40562398158E+02 -0.78983141588E+02  0.13016557077E+02  0.89738930001E+02  0.00000000000E+00 0.  1.
</event>
<event>
12    1  0.8453150E-002  0.1665268E+03  0.7818608E-02  0.1182738E+00
         21   -1    0    0  501  502  0.00000000000E+00  0.00000000000E+00  0.14172835913E+03  0.14172835913E+03  0.00000000000E+00 0. -1.
         21   -1    0    0  502  503 -0.00000000000E+00 -0.00000000000E+00 -0.31375775000E+03  0.31375775000E+03  0.00000000000E+00 0. -1.
         -6    2    1    2    0  503  0.24739097246E+02  0.94689791476E+00 -0.22807744967E+03  0.27978026031E+03  0.16013978725E+03 0.  0.
        -24    2    3    3    0    0  0.17757225109E+02  0.34977172735E+02 -0.59771278992E+02  0.10786207270E+03  0.80764467918E+02 0.  0.
          6    2    1    2  501    0 -0.24739097246E+02 -0.94689791476E+00  0.56048058808E+02  0.17570584882E+03  0.16467616970E+03 0.  0.
         24    2    5    5    0    0  0.13967453365E+01 -0.44846890526E+02  0.55465810728E+02  0.12439580466E+03  0.10190517931E+03 0.  0.
          5    1    5    5  501    0 -0.26135842583E+02  0.43899992612E+02  0.58224808009E+00  0.51310044159E+02  0.47000000000E+01 0. -1.
        -11    1    6    6    0    0 -0.42993409318E+02 -0.40961011569E+01  0.10459304050E+01  0.43200755316E+02  0.00000000000E+00 0.  1.
         12    1    6    6    0    0  0.44390154654E+02 -0.40750789369E+02  0.54419880323E+02  0.81195049349E+02  0.00000000000E+00 0. -1.
         -5    1    3    3    0  503  0.69818721374E+01 -0.34030274820E+02 -0.16830617068E+03  0.17191818761E+03  0.47000000000E+01 0.  1.
         11    1    4    4    0    0 -0.25114600299E+02  0.21551489823E+02 -0.52922813390E+02  0.62418218805E+02  0.00000000000E+00 0. -1.
        -12    1    4    4    0    0  0.42871825407E+02  0.13425682912E+02 -0.68484656023E+01  0.45443853892E+02  0.00000000000E+00 0.  1.
</event>
<event>
12    1  0.8453150E-002  0.1831281E+03  0.7818608E-02  0.1164877E+00
         21   -1    0    0  503  502  0.00000000000E+00  0.00000000000E+00  0.43441601999E+03  0.43441601999E+03  0.00000000000E+00 0. -1.
         21   -1    0    0  501  503 -0.00000000000E+00 -0.00000000000E+00 -0.77559863516E+02  0.77559863516E+02  0.00000000000E+00 0. -1.
          6    2    1    2  501    0  0.60445455304E+02 -0.17635861435E+02  0.15837876573E+03  0.24211510083E+03  0.17196282139E+03 0.  0.
         24    2    3    3    0    0  0.33877216876E+01 -0.44105667721E+02  0.26286805157E+02  0.95736783931E+02  0.80732577617E+02 0.  0.
         -6    2    1    2    0  502 -0.60445455304E+02  0.17635861435E+02  0.19847739074E+03  0.26986078267E+03  0.17165922845E+03 0.  0.
        -24    2    5    5    0    0 -0.53030888823E+02 -0.33983220126E+02  0.19160773978E+03  0.21705181107E+03  0.80192445564E+02 0.  0.
          5    1    3    3  501    0  0.57057733617E+02  0.26469806285E+02  0.13209196058E+03  0.14637831690E+03  0.47000000000E+01 0. -1.
        -13    1    4    4    0    0 -0.11719831605E+02 -0.34791312572E+02  0.52510690527E+02  0.64071542068E+02  0.00000000000E+00 0.  1.
         14    1    4    4    0    0  0.15107553293E+02 -0.93143551486E+01 -0.26223885370E+02  0.31665241863E+02  0.00000000000E+00 0. -1.
         -5    1    5    5    0  502 -0.74145664819E+01  0.51619081561E+02  0.68696509601E+01  0.52808971602E+02  0.47000000000E+01 0.  1.
         11    1    6    6    0    0 -0.72855759477E+02 -0.36959121907E+02  0.14779941181E+03  0.16887452298E+03  0.00000000000E+00 0. -1.
        -12    1    6    6    0    0  0.19824870655E+02  0.29759017814E+01  0.43808327970E+02  0.48177288087E+02  0.00000000000E+00 0.  1.
</event>
<event>
12    1  0.8453150E-002  0.3321904E+03  0.7818608E-02  0.1070314E+00
         21   -1    0    0  503  502  0.00000000000E+00  0.00000000000E+00  0.45688164392E+03  0.45688164392E+03  0.00000000000E+00 0.  1.
         21   -1    0    0  501  503 -0.00000000000E+00 -0.00000000000E+00 -0.11108384749E+04  0.11108384749E+04  0.00000000000E+00 0. -1.
          6    2    1    2  501    0  0.28043353280E+03  0.81404809270E+01 -0.10206411398E+04  0.10729395268E+04  0.17544702350E+03 0.  0.
         24    2    3    3    0    0  0.92194597274E+02 -0.10086243642E+02 -0.58825434123E+03  0.60097920647E+03  0.80816214713E+02 0.  0.
         -6    2    1    2    0  502 -0.28043353280E+03 -0.81404809270E+01  0.36668430884E+03  0.49478059205E+03  0.17787978572E+03 0.  0.
        -24    2    5    5    0    0 -0.18102430775E+03 -0.74683905764E+02  0.24665857779E+03  0.32525629430E+03  0.81263258644E+02 0.  0.
          5    1    3    3  501    0  0.18823893553E+03  0.18226724569E+02 -0.43238679860E+03  0.47196032030E+03  0.47000000000E+01 0. -1.
        -11    1    4    4    0    0  0.20291552534E+01 -0.40332848030E+01  0.11728518390E+01  0.46648085470E+01  0.00000000000E+00 0.  1.
         12    1    4    4    0    0  0.90165442021E+02 -0.60529588393E+01 -0.58942719307E+03  0.59631439792E+03  0.00000000000E+00 0. -1.
         -5    1    5    5    0  502 -0.99409225051E+02  0.66543424837E+02  0.12002573105E+03  0.16952429775E+03  0.47000000000E+01 0.  1.
         11    1    6    6    0    0 -0.14995848139E+03 -0.87696266048E+02  0.17767013929E+03  0.24848512957E+03  0.00000000000E+00 0. -1.
        -12    1    6    6    0    0 -0.31065826359E+02  0.13012360283E+02  0.68988438500E+02  0.76771164731E+02  0.00000000000E+00 0.  1.
</event>
<event>
12    1  0.8453150E-002  0.3423815E+03  0.7818608E-02  0.1065815E+00
         21   -1    0    0  503  502  0.00000000000E+00  0.00000000000E+00  0.16987812168E+04  0.16987812168E+04  0.00000000000E+00 0. -1.
         21   -1    0    0  501  503 -0.00000000000E+00 -0.00000000000E+00 -0.80252992513E+02  0.80252992513E+02  0.00000000000E+00 0. -1.
          6    2    1    2  501    0 -0.22899423510E+02 -0.29472992550E+03  0.47571706631E+03  0.58611585183E+03  0.17272797114E+03 0.  0.
         24    2    3    3    0    0  0.45346075082E+02 -0.22358676761E+03  0.38823308714E+03  0.45422827242E+03  0.59590975326E+02 0.  0.
         -6    2    1    2    0  502  0.22899423510E+02  0.29472992550E+03  0.11428111579E+04  0.11929183574E+04  0.17218232263E+03 0.  0.
        -24    2    5    5    0    0 -0.19444224020E+02  0.15037535068E+03  0.80705041440E+03  0.82496646567E+03  0.79047290607E+02 0.  0.
          5    1    3    3  501    0 -0.68245498592E+02 -0.71143157886E+02  0.87483979167E+02  0.13188757941E+03  0.47000000000E+01 0. -1.
        -11    1    4    4    0    0  0.49990499541E+02 -0.10299305333E+03  0.20555752972E+03  0.23528815759E+03  0.00000000000E+00 0.  1.
         12    1    4    4    0    0 -0.46444244592E+01 -0.12059371428E+03  0.18267555742E+03  0.21894011483E+03  0.00000000000E+00 0. -1.
         -5    1    5    5    0  502  0.42343647530E+02  0.14435457482E+03  0.33576074355E+03  0.36795189178E+03  0.47000000000E+01 0.  1.
         13    1    6    6    0    0 -0.11629697014E+02  0.15429595580E+03  0.66991401996E+03  0.68755166058E+03  0.00000000000E+00 0. -1.
        -14    1    6    6    0    0 -0.78145270058E+01 -0.39206051201E+01  0.13713639444E+03  0.13741480509E+03  0.00000000000E+00 0.  1.
</event>
<event>
12    1  0.8453150E-002  0.1861834E+03  0.7818608E-02  0.1163411E+00
         21   -1    0    0  503  502  0.00000000000E+00  0.00000000000E+00  0.20010746096E+03  0.20010746096E+03  0.00000000000E+00 0.  1.
         21   -1    0    0  501  503 -0.00000000000E+00 -0.00000000000E+00 -0.21490891604E+03  0.21490891604E+03  0.00000000000E+00 0.  1.
          6    2    1    2  501    0 -0.15254414083E+02  0.70071897754E+02 -0.10494205081E+03  0.21372196371E+03  0.17181814730E+03 0.  0.
         24    2    3    3    0    0 -0.61478940926E+02  0.88451820814E+02 -0.88267674459E+02  0.16104698597E+03  0.80879939124E+02 0.  0.
         -6    2    1    2    0  502  0.15254414083E+02 -0.70071897754E+02  0.90140595724E+02  0.20129441329E+03  0.16507981651E+03 0.  0.
        -24    2    5    5    0    0 -0.15990473609E+02  0.15873051216E+02  0.40996535494E+02  0.97371336366E+02  0.85397963805E+02 0.  0.
          5    1    3    3  501    0  0.46224526842E+02 -0.18379923060E+02 -0.16674376348E+02  0.52674977742E+02  0.47000000000E+01 0. -1.
        -13    1    4    4    0    0 -0.69655265978E+02  0.86803938377E+02 -0.50230420815E+02  0.12210599892E+03  0.00000000000E+00 0.  1.
         14    1    4    4    0    0  0.81763250518E+01  0.16478824371E+01 -0.38037253643E+02  0.38940987052E+02  0.00000000000E+00 0. -1.
         -5    1    5    5    0  502  0.31244887693E+02 -0.85944948970E+02  0.49144060230E+02  0.10392307692E+03  0.47000000000E+01 0.  1.
         11    1    6    6    0    0 -0.10364400318E+02  0.21811094006E+02 -0.22705402868E+02  0.33146341202E+02  0.00000000000E+00 0. -1.
        -12    1    6    6    0    0 -0.56260732917E+01 -0.59380427895E+01  0.63701938361E+02  0.64224995164E+02  0.00000000000E+00 0.  1.
</event>
<event>
12    1  0.8453150E-002  0.1871771E+03  0.7818608E-02  0.1162874E+00
         21   -1    0    0  503  502  0.00000000000E+00  0.00000000000E+00  0.82559838347E+03  0.82559838347E+03  0.00000000000E+00 0.  1.
         21   -1    0    0  501  503 -0.00000000000E+00 -0.00000000000E+00 -0.53887515083E+02  0.53887515083E+02  0.00000000000E+00 0. -1.
          6    2    1    2  501    0  0.51665811575E+02 -0.10987039516E+02  0.16197219042E+03  0.24166420659E+03  0.17139582012E+03 0.  0.
         24    2    3    3    0    0 -0.11539068189E+02 -0.99038286753E+01  0.16260721516E+02  0.82761870727E+02  0.79711230482E+02 0.  0.
         -6    2    1    2    0  502 -0.51665811575E+02  0.10987039516E+02  0.60973867796E+03  0.63782169196E+03  0.17956944119E+03 0.  0.
        -24    2    5    5    0    0  0.40973581910E+02  0.25059629144E+02  0.32049235272E+03  0.33374008833E+03  0.79751357202E+02 0.  0.
          5    1    3    3  501    0  0.63204879764E+02 -0.10832108408E+01  0.14571146891E+03  0.15890233586E+03  0.47000000000E+01 0. -1.
        -13    1    4    4    0    0 -0.63945046901E+01 -0.35640344238E+02  0.35119702101E+02  0.50443208694E+02  0.00000000000E+00 0.  1.
         14    1    4    4    0    0 -0.51445634986E+01  0.25736515563E+02 -0.18858980586E+02  0.32318662034E+02  0.00000000000E+00 0. -1.
         -5    1    5    5    0  502 -0.92639393485E+02 -0.14072589628E+02  0.28924632524E+03  0.30408160363E+03  0.47000000000E+01 0.  1.
         13    1    6    6    0    0  0.23906975742E+02  0.26100732721E+02  0.42877572517E+02  0.55599262249E+02  0.00000000000E+00 0. -1.
        -14    1    6    6    0    0  0.17066606168E+02 -0.10411035770E+01  0.27761478021E+03  0.27814082608E+03  0.00000000000E+00 0.  1.
</event>
<event>
12    1  0.8453150E-002  0.2020120E+03  0.7818608E-02  0.1148122E+00
         21   -1    0    0  503  502  0.00000000000E+00  0.00000000000E+00  0.35433545638E+03  0.35433545638E+03  0.00000000000E+00 0.  1.
         21   -1    0    0  501  503 -0.00000000000E+00 -0.00000000000E+00 -0.11710751402E+03  0.11710751402E+03  0.00000000000E+00 0. -1.
          6    2    1    2  501    0 -0.10409566419E+03  0.16602035358E+02  0.86937704407E+02  0.21992504507E+03  0.17232912151E+03 0.  0.
         24    2    3    3    0    0 -0.23780023984E+02 -0.48710976635E+02  0.58111099082E+02  0.11236364506E+03  0.79438278621E+02 0.  0.
         -6    2    1    2    0  502  0.10409566419E+03 -0.16602035358E+02  0.15029023795E+03  0.25151792534E+03  0.17193771041E+03 0.  0.
        -24    2    5    5    0    0  0.13454532641E+03 -0.26239292992E+02  0.87731846268E+02  0.18112118511E+03  0.79479943940E+02 0.  0.
          5    1    3    3  501    0 -0.80315640203E+02  0.65313011993E+02  0.28826605325E+02  0.10756140001E+03  0.47000000000E+01 0. -1.
        -11    1    4    4    0    0 -0.61930649206E+01 -0.27458939116E+02  0.74938607122E+02  0.80050872749E+02  0.00000000000E+00 0.  1.
         12    1    4    4    0    0 -0.17586959064E+02 -0.21252037519E+02 -0.16827508041E+02  0.32312772315E+02  0.00000000000E+00 0. -1.
         -5    1    5    5    0  502 -0.30449662226E+02  0.96372576346E+01  0.62558391686E+02  0.70396740229E+02  0.47000000000E+01 0.  1.
         11    1    6    6    0    0  0.11166637540E+03 -0.44590698095E+02  0.92110866021E+02  0.15146656856E+03  0.00000000000E+00 0. -1.
        -12    1    6    6    0    0  0.22878951017E+02  0.18351405102E+02 -0.43790197527E+01  0.29654616552E+02  0.00000000000E+00 0.  1.
</event>
<event>
12    1  0.8453150E-002  0.1941703E+03  0.7818608E-02  0.1155409E+00
         21   -1    0    0  503  502  0.00000000000E+00  0.00000000000E+00  0.91736375164E+02  0.91736375164E+02  0.00000000000E+00 0. -1.
         21   -1    0    0  501  503 -0.00000000000E+00 -0.00000000000E+00 -0.48049629580E+03  0.48049629580E+03  0.00000000000E+00 0. -1.
          6    2    1    2  501    0  0.75764448293E+02 -0.47745971800E+02 -0.30673618023E+03  0.36144838516E+03  0.16893170639E+03 0.  0.
         24    2    3    3    0    0  0.31219719788E+02 -0.86664508662E+01 -0.53200104888E+02  0.10103703116E+03  0.79551569630E+02 0.  0.
         -6    2    1    2    0  502 -0.75764448293E+02  0.47745971800E+02 -0.82023740413E+02  0.21078428581E+03  0.17228520454E+03 0.  0.
        -24    2    5    5    0    0 -0.59268972982E+02  0.98763202579E+02 -0.52139578339E+02  0.14922121502E+03  0.79255624666E+02 0.  0.
          5    1    3    3  501    0  0.44544728505E+02 -0.39079520934E+02 -0.25353607534E+03  0.26041135400E+03  0.47000000000E+01 0. -1.
        -13    1    4    4    0    0 -0.26246099484E+02  0.40570154187E+01 -0.11705170273E+02  0.29022889645E+02  0.00000000000E+00 0.  1.
         14    1    4    4    0    0  0.57465819272E+02 -0.12723466285E+02 -0.41494934615E+02  0.72014141512E+02  0.00000000000E+00 0. -1.
         -5    1    5    5    0  502 -0.16495475311E+02 -0.51017230779E+02 -0.29884162074E+02  0.61563070789E+02  0.47000000000E+01 0.  1.
         13    1    6    6    0    0  0.16200086765E+01  0.56636094002E+02  0.32526064079E+01  0.56752541972E+02  0.00000000000E+00 0. -1.
        -14    1    6    6    0    0 -0.60888981659E+02  0.42127108577E+02 -0.55392184747E+02  0.92468673049E+02  0.00000000000E+00 0.  1.
</event>
<event>
12    1  0.8453150E-002  0.1897940E+03  0.7818608E-02  0.1158829E+00
         21   -1    0    0  503  502  0.00000000000E+00  0.00000000000E+00  0.85485959420E+02  0.85485959420E+02  0.00000000000E+00 0.  1.
         21   -1    0    0  501  503 -0.00000000000E+00 -0.00000000000E+00 -0.58626265586E+03  0.58626265586E+03  0.00000000000E+00 0.  1.
          6    2    1    2  501    0  0.78550786217E+02  0.72955386582E+01 -0.42985159464E+03  0.46988740019E+03  0.17262191211E+03 0.  0.
         24    2    3    3    0    0  0.94574197793E+02 -0.17391833713E+02 -0.42027992710E+03  0.43858368008E+03  0.80459135827E+02 0.  0.
         -6    2    1    2    0  502 -0.78550786217E+02 -0.72955386582E+01 -0.70925101802E+02  0.20186121509E+03  0.17173854895E+03 0.  0.
        -24    2    5    5    0    0 -0.83553387614E+02  0.14797722774E+02  0.10817649933E+02  0.11690766495E+03  0.79688389318E+02 0.  0.
          5    1    3    3  501    0 -0.16023411576E+02  0.24687372371E+02 -0.95716675357E+01  0.31303720107E+02  0.47000000000E+01 0. -1.
        -11    1    4    4    0    0  0.61601508618E+02  0.29257660971E+02 -0.23537040050E+03  0.24505097842E+03  0.00000000000E+00 0.  1.
         12    1    4    4    0    0  0.32972689175E+02 -0.46649494684E+02 -0.18490952660E+03  0.19353270166E+03  0.00000000000E+00 0. -1.
         -5    1    5    5    0  502  0.50026013969E+01 -0.22093261432E+02 -0.81742751735E+02  0.84953550147E+02  0.47000000000E+01 0.  1.
         11    1    6    6    0    0  0.10627969055E+02  0.26969357289E+01 -0.14929436023E+02  0.18523370334E+02  0.00000000000E+00 0. -1.
        -12    1    6    6    0    0 -0.94181356669E+02  0.12100787045E+02  0.25747085957E+02  0.98384294612E+02  0.00000000000E+00 0.  1.
</event>
<event>
12    1  0.8453150E-002  0.1966946E+03  0.7818608E-02  0.1153326E+00
         21   -1    0    0  503  502  0.00000000000E+00  0.00000000000E+00  0.26206280998E+03  0.26206280998E+03  0.00000000000E+00 0.  1.
         21   -1    0    0  501  503 -0.00000000000E+00 -0.00000000000E+00 -0.15064804489E+03  0.15064804489E+03  0.00000000000E+00 0.  1.
          6    2    1    2  501    0 -0.33120484278E+02 -0.90257437993E+02  0.95191017163E+02  0.21534833644E+03  0.16754165054E+03 0.  0.
         24    2    3    3    0    0 -0.73160520153E+02 -0.20315854586E+02  0.39111583623E+02  0.11705274941E+03  0.80040205612E+02 0.  0.
         -6    2    1    2    0  502  0.33120484278E+02  0.90257437993E+02  0.16223747922E+02  0.19736251844E+03  0.17159656784E+03 0.  0.
        -24    2    5    5    0    0 -0.12775553434E+01 -0.15793049241E+02  0.24224520377E+02  0.85487439298E+02  0.80437692273E+02 0.  0.
          5    1    3    3  501    0  0.40040035875E+02 -0.69941583407E+02  0.56079433540E+02  0.98295587025E+02  0.47000000000E+01 0. -1.
        -11    1    4    4    0    0 -0.66809024593E+01 -0.18311467643E+02  0.46222014918E+02  0.50163920979E+02  0.00000000000E+00 0.  1.
         12    1    4    4    0    0 -0.66479617694E+02 -0.20043869431E+01 -0.71104312951E+01  0.66888828432E+02  0.00000000000E+00 0. -1.
         -5    1    5    5    0  502  0.34398039621E+02  0.10605048723E+03 -0.80007724553E+01  0.11187507914E+03  0.47000000000E+01 0.  1.
         11    1    6    6    0    0  0.16575160113E+02 -0.20992832881E+02  0.48213327801E+02  0.55135831750E+02  0.00000000000E+00 0. -1.
        -12    1    6    6    0    0 -0.17852715456E+02  0.51997836408E+01 -0.23988807424E+02  0.30351607547E+02  0.00000000000E+00 0.  1.
</event>
<event>
12    1  0.8453150E-002  0.1734174E+03  0.7818608E-02  0.1174677E+00
         21   -1    0    0  503  502  0.00000000000E+00  0.00000000000E+00  0.10938470397E+04  0.10938470397E+04  0.00000000000E+00 0. -1.
         21   -1    0    0  501  503 -0.00000000000E+00 -0.00000000000E+00 -0.77506164479E+02  0.77506164479E+02  0.00000000000E+00 0. -1.
          6    2    1    2  501    0 -0.14448751985E+02  0.32207477219E+02  0.35990577206E+02  0.17578286005E+03  0.16839894363E+03 0.  0.
         24    2    3    3    0    0 -0.23545942076E+01  0.77055873090E+02  0.46872206164E+02  0.12784386638E+03  0.90575376178E+02 0.  0.
         -6    2    1    2    0  502  0.14448751985E+02 -0.32207477219E+02  0.98035029803E+03  0.99557034415E+03  0.16978667580E+03 0.  0.
        -24    2    5    5    0    0  0.45030309099E+02 -0.50520530749E+02  0.91525460449E+03  0.92120544058E+03  0.79676972549E+02 0.  0.
          5    1    3    3  501    0 -0.12094157777E+02 -0.44848395871E+02 -0.10881628958E+02  0.47938993662E+02  0.47000000000E+01 0. -1.
        -13    1    4    4    0    0  0.18414939975E+02  0.89662635101E+02  0.24357254908E+02  0.94719448976E+02  0.00000000000E+00 0.  1.
         14    1    4    4    0    0 -0.20769534183E+02 -0.12606762011E+02  0.22514951255E+02  0.33124417408E+02  0.00000000000E+00 0. -1.
         -5    1    5    5    0  502 -0.30581557114E+02  0.18313053530E+02  0.65095693546E+02  0.74364903573E+02  0.47000000000E+01 0.  1.
         13    1    6    6    0    0  0.32466938122E+02 -0.64038685208E+02  0.85912191628E+03  0.86211688436E+03  0.00000000000E+00 0. -1.
        -14    1    6    6    0    0  0.12563370977E+02  0.13518154458E+02  0.56132688209E+02  0.59088556217E+02  0.00000000000E+00 0.  1.
</event>
<event>
12    1  0.8453150E-002  0.2538186E+03  0.7818608E-02  0.1111518E+00
         21   -1    0    0  501  502  0.00000000000E+00  0.00000000000E+00  0.28210506886E+03  0.28210506886E+03  0.00000000000E+00 0. -1.
         21   -1    0    0  502  503 -0.00000000000E+00 -0.00000000000E+00 -0.24117756243E+03  0.24117756243E+03  0.00000000000E+00 0. -1.
         -6    2    1    2    0  503  0.18034975462E+03  0.16833083540E+02  0.88560766879E+02  0.26882506400E+03  0.17780472129E+03 0.  0.
        -24    2    3    3    0    0  0.13895135901E+03  0.78903163879E+02  0.71588892558E+02  0.19216571004E+03  0.79180181465E+02 0.  0.
          6    2    1    2  501    0 -0.18034975462E+03 -0.16833083540E+02 -0.47633260454E+02  0.25445756729E+03  0.17225080364E+03 0.  0.
         24    2    5    5    0    0 -0.18611066160E+03 -0.90749051174E+01 -0.79709784379E+02  0.22062901767E+03  0.87200811056E+02 0.  0.
          5    1    5    5  501    0  0.57609069853E+01 -0.77581784229E+01  0.32076523925E+02  0.33828549612E+02  0.47000000000E+01 0. -1.
        -13    1    6    6    0    0  0.40094983930E+01 -0.56156041730E+01 -0.20256816358E+02  0.21399759264E+02  0.00000000000E+00 0.  1.
         14    1    6    6    0    0 -0.19012016000E+03 -0.34593009444E+01 -0.59452968020E+02  0.19922925841E+03  0.00000000000E+00 0. -1.
         -5    1    3    3    0  503  0.41398395610E+02 -0.62070080339E+02  0.16971874322E+02  0.76659353965E+02  0.47000000000E+01 0.  1.
         11    1    4    4    0    0  0.74238630363E+02  0.85518099501E+02  0.43585233795E+02  0.12134410651E+03  0.00000000000E+00 0. -1.
        -12    1    4    4    0    0  0.64712728645E+02 -0.66149356216E+01  0.28003658763E+02  0.70821603526E+02  0.00000000000E+00 0.  1.
</event>
<event>
12    1  0.8453150E-002  0.2091234E+03  0.7818608E-02  0.1142704E+00
         21   -1    0    0  501  502  0.00000000000E+00  0.00000000000E+00  0.43174673856E+03  0.43174673856E+03  0.00000000000E+00 0.  1.
         21   -1    0    0  502  503 -0.00000000000E+00 -0.00000000000E+00 -0.13272861025E+03  0.13272861025E+03  0.00000000000E+00 0.  1.
         -6    2    1    2    0  503 -0.10593483168E+03 -0.52364169244E+02  0.92477430419E+01  0.20712473493E+03  0.16985564543E+03 0.  0.
        -24    2    3    3    0    0 -0.20119091476E+02  0.15844524372E+02  0.40127406426E+02  0.93140478291E+02  0.80056936960E+02 0.  0.
          6    2    1    2  501    0  0.10593483168E+03  0.52364169244E+02  0.28977038527E+03  0.35735061388E+03  0.17253518562E+03 0.  0.
         24    2    5    5    0    0  0.11225750072E+03 -0.22938829635E+01  0.26110570523E+03  0.29513138296E+03  0.79494248435E+02 0.  0.
          5    1    5    5  501    0 -0.63226690392E+01  0.54658052208E+02  0.28664680034E+02  0.62219230921E+02  0.47000000000E+01 0. -1.
        -11    1    6    6    0    0  0.80570767842E+02 -0.32726534685E+02  0.12627491176E+03  0.15332327952E+03  0.00000000000E+00 0.  1.
         12    1    6    6    0    0  0.31686732875E+02  0.30432651722E+02  0.13483079348E+03  0.14180810344E+03  0.00000000000E+00 0. -1.
         -5    1    3    3    0  503 -0.85815740202E+02 -0.68208693617E+02 -0.30879663384E+02  0.11398425664E+03  0.47000000000E+01 0.  1.
         13    1    4    4    0    0  0.25006900776E+02 -0.74801401547E+01 -0.33004872020E+01  0.26309519170E+02  0.00000000000E+00 0. -1.
        -14    1    4    4    0    0 -0.45125992253E+02  0.23324664527E+02  0.43427893628E+02  0.66830959121E+02  0.00000000000E+00 0.  1.
</event>
<event>
12    1  0.8453150E-002  0.3240693E+03  0.7818608E-02  0.1074575E+00
         21   -1    0    0  501  502  0.00000000000E+00  0.00000000000E+00  0.10275816739E+03  0.10275816739E+03  0.00000000000E+00 0.  1.
         21   -1    0    0  502  503 -0.00000000000E+00 -0.00000000000E+00 -0.14862911884E+04  0.14862911884E+04  0.00000000000E+00 0.  1.
         -6    2    1    2    0  503  0.24965581821E+03 -0.11480603530E+03 -0.11509159382E+04  0.11956707028E+04  0.17179196589E+03 0.  0.
        -24    2    3    3    0    0  0.49494382099E+02 -0.39341571481E+02 -0.23513752166E+03  0.25522842179E+03  0.76514312984E+02 0.  0.
          6    2    1    2  501    0 -0.24965581821E+03  0.11480603530E+03 -0.23261708287E+03  0.39337865299E+03  0.15851688892E+03 0.  0.
         24    2    5    5    0    0 -0.13976861952E+03  0.95175013770E+02 -0.78156541668E+02  0.20274622597E+03  0.80025226587E+02 0.  0.
          5    1    5    5  501    0 -0.10988719869E+03  0.19631021535E+02 -0.15446054120E+03  0.19063242702E+03  0.47000000000E+01 0. -1.
        -11    1    6    6    0    0 -0.12822898982E+03  0.95545878883E+02 -0.92183156845E+02  0.18457904325E+03  0.00000000000E+00 0.  1.
         12    1    6    6    0    0 -0.11539629699E+02 -0.37086511367E+00  0.14026615177E+02  0.18167182716E+02  0.00000000000E+00 0. -1.
         -5    1    3    3    0  503  0.20016143611E+03 -0.75464463824E+02 -0.91577841652E+03  0.94044228104E+03  0.47000000000E+01 0.  1.
         13    1    4    4    0    0 -0.17196303098E+02 -0.47847566178E+01 -0.90574086035E+02  0.92316151335E+02  0.00000000000E+00 0. -1.
        -14    1    4    4    0    0  0.66690685196E+02 -0.34556814863E+02 -0.14456343562E+03  0.16291227045E+03  0.00000000000E+00 0.  1.
</event>
<event>
12    1  0.8453150E-002  0.2406813E+03  0.7818608E-02  0.1119465E+00
         21   -1    0    0  501  502  0.00000000000E+00  0.00000000000E+00  0.12506308337E+04  0.12506308337E+04  0.00000000000E+00 0.  1.
         21   -1    0    0  502  503 -0.00000000000E+00 -0.00000000000E+00 -0.87477026967E+02  0.87477026967E+02  0.00000000000E+00 0. -1.
         -6    2    1    2    0  503 -0.87802684199E+02  0.14296832004E+03  0.12232351721E+03  0.26998250763E+03  0.17256378438E+03 0.  0.
        -24    2    3    3    0    0  0.73366173205E+01  0.77948383296E+02  0.17395073330E+02  0.11406218438E+03  0.81103741701E+02 0.  0.
          6    2    1    2  501    0  0.87802684199E+02 -0.14296832004E+03  0.10408302895E+04  0.10681253530E+04  0.17150751094E+03 0.  0.
         24    2    5    5    0    0 -0.18893909687E+02 -0.38004191053E+02  0.39479115301E+03  0.40495849060E+03  0.79561462100E+02 0.  0.
          5    1    5    5  501    0  0.10669659389E+03 -0.10496412899E+03  0.64603913647E+03  0.66316686239E+03  0.47000000000E+01 0. -1.
        -13    1    6    6    0    0 -0.15601345417E+02 -0.59986773892E+02  0.34366018211E+03  0.34920500539E+03  0.00000000000E+00 0.  1.
         14    1    6    6    0    0 -0.32925642694E+01  0.21982582839E+02  0.51130970901E+02  0.55753485210E+02  0.00000000000E+00 0. -1.
         -5    1    3    3    0  503 -0.95139301520E+02  0.65019936745E+02  0.10492844388E+03  0.15592032325E+03  0.47000000000E+01 0.  1.
         11    1    4    4    0    0 -0.30932893972E+02  0.47379199148E+02 -0.10715804258E+02  0.57588722006E+02  0.00000000000E+00 0. -1.
        -12    1    4    4    0    0  0.38269511293E+02  0.30569184148E+02  0.28110877588E+02  0.56473462377E+02  0.00000000000E+00 0.  1.
</event>
<event>
12    1  0.8453150E-002  0.2427620E+03  0.7818608E-02  0.1120398E+00
         21   -1    0    0  503  502  0.00000000000E+00  0.00000000000E+00  0.28857027923E+03  0.28857027923E+03  0.00000000000E+00 0.  1.
         21   -1    0    0  501  503 -0.00000000000E+00 -0.00000000000E+00 -0.31541134044E+03  0.31541134044E+03  0.00000000000E+00 0. -1.
          6    2    1    2  501    0  0.14552530242E+03  0.85643801555E+02 -0.20175939556E+03  0.30476627992E+03  0.15382833707E+03 0.  0.
         24    2    3    3    0    0  0.46899150054E+02 -0.69409845939E+01 -0.69179871023E+02  0.11529733554E+03  0.79119615042E+02 0.  0.
         -6    2    1    2    0  502 -0.14552530242E+03 -0.85643801555E+02  0.17491833436E+03  0.29921533975E+03  0.17441594382E+03 0.  0.
        -24    2    5    5    0    0 -0.99720322316E+02 -0.90904214411E+02  0.47515797120E+02  0.16364519319E+03  0.79462440162E+02 0.  0.
          5    1    3    3  501    0  0.98626152370E+02  0.92584786149E+02 -0.13257952454E+03  0.18946894438E+03  0.47000000000E+01 0. -1.
        -11    1    4    4    0    0  0.47649482639E+02  0.21705424467E+02 -0.15766717228E+02  0.54682611671E+02  0.00000000000E+00 0.  1.
         12    1    4    4    0    0 -0.75033258479E+00 -0.28646409061E+02 -0.53413153795E+02  0.60614723867E+02  0.00000000000E+00 0. -1.
         -5    1    5    5    0  502 -0.45804980108E+02  0.52604128560E+01  0.12740253724E+03  0.13557014657E+03  0.47000000000E+01 0.  1.
         13    1    6    6    0    0 -0.10198463318E+03 -0.46791539055E+02  0.37950250618E+02  0.11845055954E+03  0.00000000000E+00 0. -1.
        -14    1    6    6    0    0  0.22643108675E+01 -0.44112675356E+02  0.95655465022E+01  0.45194633649E+02  0.00000000000E+00 0.  1.
</event>
<event>
12    1  0.8453150E-002  0.2174858E+03  0.7818608E-02  0.1136280E+00
         21   -1    0    0  501  502  0.00000000000E+00  0.00000000000E+00  0.18021607109E+04  0.18021607109E+04  0.00000000000E+00 0. -1.
         21   -1    0    0  502  503 -0.00000000000E+00 -0.00000000000E+00 -0.29668286522E+02  0.29668286522E+02  0.00000000000E+00 0.  1.
         -6    2    1    2    0  503  0.30268552262E+01 -0.12805448995E+03  0.56569350559E+03  0.60606040015E+03  0.17576391016E+03 0.  0.
        -24    2    3    3    0    0  0.22157299558E+02  0.49093458275E+01  0.23500174921E+03  0.24909473897E+03  0.79418632887E+02 0.  0.
          6    2    1    2  501    0 -0.30268552262E+01  0.12805448995E+03  0.12067989187E+04  0.12257685972E+04  0.17244683071E+03 0.  0.
         24    2    5    5    0    0 -0.75753968123E+01  0.16159541867E+03  0.10219776136E+04  0.10378146455E+04  0.80315190184E+02 0.  0.
          5    1    5    5  501    0  0.45485415862E+01 -0.33540928716E+02  0.18482130515E+03  0.18795395172E+03  0.47000000000E+01 0. -1.
        -11    1    6    6    0    0  0.29148160469E+02  0.61914776778E+02  0.27840869453E+03  0.28669575517E+03  0.00000000000E+00 0.  1.
         12    1    6    6    0    0 -0.36723557281E+02  0.99680641889E+02  0.74356891907E+03  0.75111889034E+03  0.00000000000E+00 0. -1.
         -5    1    3    3    0  503 -0.19130444331E+02 -0.13296383578E+03  0.33069175638E+03  0.35696566118E+03  0.47000000000E+01 0.  1.
         13    1    4    4    0    0  0.11721556470E+02  0.36278242076E+02  0.60657576561E+02  0.71643892472E+02  0.00000000000E+00 0. -1.
        -14    1    4    4    0    0  0.10435743088E+02 -0.31368896249E+02  0.17434417265E+03  0.17745084650E+03  0.00000000000E+00 0.  1.
</event>
<event>
12    1  0.8453150E-002  0.2423150E+03  0.7818608E-02  0.1118324E+00
         21   -1    0    0  501  502  0.00000000000E+00  0.00000000000E+00  0.22001216810E+03  0.22001216810E+03  0.00000000000E+00 0.  1.
         21   -1    0    0  502  503 -0.00000000000E+00 -0.00000000000E+00 -0.44928772330E+03  0.44928772330E+03  0.00000000000E+00 0. -1.
         -6    2    1    2    0  503  0.12569953957E+03  0.11473404975E+03 -0.32817482352E+03  0.40794030314E+03  0.17248854950E+03 0.  0.
        -24    2    3    3    0    0  0.57016128668E+02  0.18767378813E+02 -0.24196079686E+03  0.26171458291E+03  0.79664560823E+02 0.  0.
          6    2    1    2  501    0 -0.12569953957E+03 -0.11473404975E+03  0.98899268325E+02  0.26135958826E+03  0.17194037536E+03 0.  0.
         24    2    5    5    0    0 -0.93667631607E+02 -0.13055929507E+03  0.12336885078E+03  0.21780121383E+03  0.79988378308E+02 0.  0.
          5    1    5    5  501    0 -0.32031907966E+02  0.15825245321E+02 -0.24469582450E+02  0.43558374426E+02  0.47000000000E+01 0. -1.
        -13    1    6    6    0    0 -0.90002455452E+02 -0.60282432943E+02  0.64666379623E+02  0.12615924208E+03  0.00000000000E+00 0.  1.
         14    1    6    6    0    0 -0.36651761553E+01 -0.70276862130E+02  0.58702471152E+02  0.91641971751E+02  0.00000000000E+00 0. -1.
         -5    1    3    3    0  503  0.68683410905E+02  0.95966670938E+02 -0.86214026658E+02  0.14622572023E+03  0.47000000000E+01 0.  1.
         11    1    4    4    0    0  0.64446521529E+02  0.39896102510E+02 -0.16530457578E+03  0.18185339125E+03  0.00000000000E+00 0. -1.
        -12    1    4    4    0    0 -0.74303928615E+01 -0.21128723697E+02 -0.76656221080E+02  0.79861191660E+02  0.00000000000E+00 0.  1.
</event>
<event>
12    1  0.8453150E-002  0.1725995E+03  0.7818608E-02  0.1175395E+00
         21   -1    0    0  503  502  0.00000000000E+00  0.00000000000E+00  0.51581282001E+03  0.51581282001E+03  0.00000000000E+00 0. -1.
         21   -1    0    0  501  503 -0.00000000000E+00 -0.00000000000E+00 -0.11135308961E+03  0.11135308961E+03  0.00000000000E+00 0. -1.
          6    2    1    2  501    0  0.19151360647E+02 -0.45352547842E+01 -0.15665818163E+02  0.17330903510E+03  0.17147378994E+03 0.  0.
         24    2    3    3    0    0  0.28838391690E+02  0.43424087573E+02  0.36222505612E+02  0.10183578672E+03  0.79631358938E+02 0.  0.
         -6    2    1    2    0  502 -0.19151360647E+02  0.45352547842E+01  0.42012554856E+03  0.45385687452E+03  0.17056741438E+03 0.  0.
        -24    2    5    5    0    0 -0.26291216802E+02  0.66975990908E+02  0.24316603297E+03  0.26600964076E+03  0.80339267792E+02 0.  0.
          5    1    3    3  501    0 -0.96870310436E+01 -0.47959342357E+02 -0.51888323775E+02  0.71473248380E+02  0.47000000000E+01 0. -1.
        -13    1    4    4    0    0  0.21398399558E+02 -0.79555528703E+00  0.50438036814E+02  0.54795254991E+02  0.00000000000E+00 0.  1.
         14    1    4    4    0    0  0.74399921326E+01  0.44219642860E+02 -0.14215531202E+02  0.47040531725E+02  0.00000000000E+00 0. -1.
         -5    1    5    5    0  502  0.71398561547E+01 -0.62440736124E+02  0.17695951559E+03  0.18784723376E+03  0.47000000000E+01 0.  1.
         13    1    6    6    0    0 -0.21974180303E+02  0.34251351760E+02  0.22435880617E+03  0.22801950268E+03  0.00000000000E+00 0. -1.
        -14    1    6    6    0    0 -0.43170364982E+01  0.32724639148E+02  0.18807226800E+02  0.37990138081E+02  0.00000000000E+00 0.  1.
</event>
<event>
12    1  0.8453150E-002  0.1773989E+03  0.7818608E-02  0.1171273E+00
         21   -1    0    0  503  502  0.00000000000E+00  0.00000000000E+00  0.20467096028E+03  0.20467096028E+03  0.00000000000E+00 0.  1.
         21   -1    0    0  501  503 -0.00000000000E+00 -0.00000000000E+00 -0.17406628272E+03  0.17406628272E+03  0.00000000000E+00 0.  1.
          6    2    1    2  501    0  0.18608485876E+02  0.76169387492E+01 -0.54154941695E+02  0.18548081914E+03  0.17625573198E+03 0.  0.
         24    2    3    3    0    0 -0.15433717650E+02 -0.59393737688E+02 -0.20495992682E+02  0.10299253375E+03  0.80134640296E+02 0.  0.
         -6    2    1    2    0  502 -0.18608485876E+02 -0.76169387492E+01  0.84759619248E+02  0.19325642386E+03  0.17250959047E+03 0.  0.
        -24    2    5    5    0    0 -0.35186041912E+02  0.41301239095E+02  0.10013081103E+03  0.13916236666E+03  0.79975840604E+02 0.  0.
          5    1    3    3  501    0  0.34042203527E+02  0.67010676438E+02 -0.33658949013E+02  0.82488285388E+02  0.47000000000E+01 0. -1.
        -13    1    4    4    0    0 -0.37148624645E+02 -0.30637077952E+01 -0.20668852063E+02  0.42621685373E+02  0.00000000000E+00 0.  1.
         14    1    4    4    0    0  0.21714906994E+02 -0.56330029893E+02  0.17285938069E+00  0.60370848378E+02  0.00000000000E+00 0. -1.
         -5    1    5    5    0  502  0.16577556036E+02 -0.48918177844E+02 -0.15371191781E+02  0.54094057201E+02  0.47000000000E+01 0.  1.
         13    1    6    6    0    0  0.12134398416E+02  0.41604391887E+02  0.24045475946E+02  0.49561617838E+02  0.00000000000E+00 0. -1.
        -14    1    6    6    0    0 -0.47320440328E+02 -0.30315279268E+00  0.76085335083E+02  0.89600748820E+02  0.00000000000E+00 0.  1.
</event>
<event>
12    1  0.8453150E-002  0.2107453E+03  0.7818608E-02  0.1141639E+00
         21   -1    0    0  503  502  0.00000000000E+00  0.00000000000E+00  0.51231284641E+03  0.51231284641E+03  0.00000000000E+00 0. -1.
         21   -1    0    0  501  503 -0.00000000000E+00 -0.00000000000E+00 -0.98129607499E+02  0.98129607499E+02  0.00000000000E+00 0.  1.
          6    2    1    2  501    0 -0.11751192500E+03  0.13496386936E+02  0.98288333239E+02  0.23253853665E+03  0.17442009517E+03 0.  0.
         24    2    3    3    0    0 -0.26591314976E+01  0.43630113931E+02  0.21511049073E+02  0.91060456932E+02  0.76932592329E+02 0.  0.
         -6    2    1    2    0  502  0.11751192500E+03 -0.13496386936E+02  0.31589490567E+03  0.37790391726E+03  0.17038360916E+03 0.  0.
        -24    2    5    5    0    0  0.11553008946E+03 -0.66426431150E+02  0.23687602245E+03  0.28265901630E+03  0.77628584666E+02 0.  0.
          5    1    3    3  501    0 -0.11485279350E+03 -0.30133726995E+02  0.76777284165E+02  0.14147807972E+03  0.47000000000E+01 0. -1.
        -13    1    4    4    0    0 -0.56499849871E+01  0.21315442039E+02 -0.28605830525E+02  0.36118747759E+02  0.00000000000E+00 0.  1.
         14    1    4    4    0    0  0.29908534896E+01  0.22314671892E+02  0.50116879598E+02  0.54941709173E+02  0.00000000000E+00 0. -1.
         -5    1    5    5    0  502  0.19818355324E+01  0.52930044214E+02  0.79018883216E+02  0.95244900952E+02  0.47000000000E+01 0.  1.
         13    1    6    6    0    0  0.37471814410E+02 -0.34571984875E+02  0.16223528327E+03  0.17005777298E+03  0.00000000000E+00 0. -1.
        -14    1    6    6    0    0  0.78058275054E+02 -0.31854446275E+02  0.74640739182E+02  0.11260124332E+03  0.00000000000E+00 0.  1.
</event>
<event>
12    1  0.8453150E-002  0.2135738E+03  0.7818608E-02  0.1139649E+00
         21   -1    0    0  503  502  0.00000000000E+00  0.00000000000E+00  0.42402253814E+03  0.42402253814E+03  0.00000000000E+00 0. -1.
         21   -1    0    0  501  503 -0.00000000000E+00 -0.00000000000E+00 -0.12806347821E+03  0.12806347821E+03  0.00000000000E+00 0. -1.
          6    2    1    2  501    0  0.11636321289E+02  0.12481866285E+03  0.30349259431E+02  0.21126007063E+03  0.16731598049E+03 0.  0.
         24    2    3    3    0    0  0.11465406134E+02  0.11563380095E+03  0.78285585688E+02  0.16222567173E+03  0.81767378479E+02 0.  0.
         -6    2    1    2    0  502 -0.11636321289E+02 -0.12481866285E+03  0.26560980051E+03  0.34082594572E+03  0.17291228002E+03 0.  0.
        -24    2    5    5    0    0  0.27604124426E+02 -0.11628049593E+03  0.25460300981E+03  0.29892186101E+03  0.10123460358E+03 0.  0.
          5    1    3    3  501    0  0.17091515541E+00  0.91848618995E+01 -0.47936326257E+02  0.49034398896E+02  0.47000000000E+01 0. -1.
        -11    1    4    4    0    0 -0.94253964477E+01 -0.73309398411E+01 -0.42374562060E+01  0.12670312240E+02  0.00000000000E+00 0.  1.
         12    1    4    4    0    0  0.20890802582E+02  0.12296474079E+03  0.82523041894E+02  0.14955535949E+03  0.00000000000E+00 0. -1.
         -5    1    5    5    0  502 -0.39240445715E+02 -0.85381669158E+01  0.11006790690E+02  0.41904084712E+02  0.47000000000E+01 0.  1.
         11    1    6    6    0    0 -0.10838364311E+02 -0.10043795046E+03  0.11409380917E+03  0.15238979403E+03  0.00000000000E+00 0. -1.
        -12    1    6    6    0    0  0.38442488737E+02 -0.15842545475E+02  0.14050920064E+03  0.14653206698E+03  0.00000000000E+00 0.  1.
</event>
<event>
12    1  0.8453150E-002  0.1885037E+03  0.7818608E-02  0.1160212E+00
         21   -1    0    0  501  502  0.00000000000E+00  0.00000000000E+00  0.94040749179E+02  0.94040749179E+02  0.00000000000E+00 0.  1.
         21   -1    0    0  502  503 -0.00000000000E+00 -0.00000000000E+00 -0.44310408519E+03  0.44310408519E+03  0.00000000000E+00 0.  1.
         -6    2    1    2    0  503  0.52241936211E+02  0.46212408481E+02 -0.28095118158E+03  0.33833002955E+03  0.17512520055E+03 0.  0.
        -24    2    3    3    0    0  0.35175418611E+02 -0.17673181578E+02 -0.55017602492E+02  0.10287152620E+03  0.77498147702E+02 0.  0.
          6    2    1    2  501    0 -0.52241936211E+02 -0.46212408481E+02 -0.68112154426E+02  0.19881480481E+03  0.17327219753E+03 0.  0.
         24    2    5    5    0    0  0.26915694147E+02  0.87307094980E+01 -0.11480064474E+02  0.86948991139E+02  0.81410412725E+02 0.  0.
          5    1    5    5  501    0 -0.79157630357E+02 -0.54943117979E+02 -0.56632089952E+02  0.11186581368E+03  0.47000000000E+01 0. -1.
        -13    1    6    6    0    0  0.38320452816E+02 -0.77121886356E+01  0.24247794779E+02  0.45998809868E+02  0.00000000000E+00 0.  1.
         14    1    6    6    0    0 -0.11404758670E+02  0.16442898134E+02 -0.35727859253E+02  0.40950181271E+02  0.00000000000E+00 0. -1.
         -5    1    3    3    0  503  0.17066517600E+02  0.63885590059E+02 -0.22593357909E+03  0.23545850335E+03  0.47000000000E+01 0.  1.
         11    1    4    4    0    0  0.50826070859E+02 -0.28619655785E+02 -0.59426922622E+02  0.83270242635E+02  0.00000000000E+00 0. -1.
        -12    1    4    4    0    0 -0.15650652248E+02  0.10946474207E+02  0.44093201299E+01  0.19601283565E+02  0.00000000000E+00 0.  1.
</event>
<event>
12    1  0.8453150E-002  0.2066778E+03  0.7818608E-02  0.1144513E+00
         21   -1    0    0  501  502  0.00000000000E+00  0.00000000000E+00  0.46425015511E+03  0.46425015511E+03  0.00000000000E+00 0.  1.
         21   -1    0    0  502  503 -0.00000000000E+00 -0.00000000000E+00 -0.99630768956E+02  0.99630768956E+02  0.00000000000E+00 0. -1.
         -6    2    1    2    0  503 -0.10267559580E+03 -0.45942179488E+02  0.10173593000E+03  0.23036037470E+03  0.17338610368E+03 0.  0.
        -24    2    3    3    0    0 -0.45101364460E+02 -0.46306227866E+02 -0.10887037031E+02  0.10378649371E+03  0.80465575778E+02 0.  0.
          6    2    1    2  501    0  0.10267559580E+03  0.45942179488E+02  0.26288345615E+03  0.33352054937E+03  0.17168367280E+03 0.  0.
         24    2    5    5    0    0  0.95782263032E+02 -0.14533626603E+02  0.23600620235E+03  0.26681734157E+03  0.78147923841E+02 0.  0.
          5    1    5    5  501    0  0.68933327663E+01  0.60475806091E+02  0.26877253802E+02  0.66703207801E+02  0.47000000000E+01 0. -1.
        -13    1    6    6    0    0  0.25084234073E+02 -0.38936991278E+02  0.61763610341E+02  0.77201370786E+02  0.00000000000E+00 0.  1.
         14    1    6    6    0    0  0.70698028958E+02  0.24403364675E+02  0.17424259201E+03  0.18961597078E+03  0.00000000000E+00 0. -1.
         -5    1    3    3    0  503 -0.57574231338E+02  0.36404837774E+00  0.11262296703E+03  0.12657388099E+03  0.47000000000E+01 0.  1.
         11    1    4    4    0    0 -0.18854532769E+02 -0.59813370911E+02  0.15046212407E+02  0.64494350555E+02  0.00000000000E+00 0. -1.
        -12    1    4    4    0    0 -0.26246831691E+02  0.13507143046E+02 -0.25933249438E+02  0.39292143152E+02  0.00000000000E+00 0.  1.
</event>
<event>
12    1  0.8453150E-002  0.2252510E+03  0.7818608E-02  0.1130301E+00
         21   -1    0    0  503  502  0.00000000000E+00  0.00000000000E+00  0.10433125495E+03  0.10433125495E+03  0.00000000000E+00 0. -1.
         21   -1    0    0  501  503 -0.00000000000E+00 -0.00000000000E+00 -0.67741439746E+03  0.67741439746E+03  0.00000000000E+00 0. -1.
          6    2    1    2  501    0 -0.13069595612E+03 -0.62212280351E+02 -0.49521557466E+03  0.54341530443E+03  0.17061631494E+03 0.  0.
         24    2    3    3    0    0 -0.81801621402E+02 -0.27805043375E+01 -0.15013505963E+03  0.18982593267E+03  0.82426404228E+02 0.  0.
         -6    2    1    2    0  502  0.13069595612E+03  0.62212280351E+02 -0.77867567853E+02  0.23833034798E+03  0.17258677781E+03 0.  0.
        -24    2    5    5    0    0  0.54907392636E+02  0.92852587691E+02 -0.81243312418E+02  0.15637779806E+03  0.78848684866E+02 0.  0.
          5    1    3    3  501    0 -0.48894334715E+02 -0.59431776013E+02 -0.34508051503E+03  0.35358937176E+03  0.47000000000E+01 0. -1.
        -13    1    4    4    0    0  0.10143084276E+02  0.17492221207E+02 -0.15231449334E+02  0.25315153766E+02  0.00000000000E+00 0.  1.
         14    1    4    4    0    0 -0.91944705678E+02 -0.20272725544E+02 -0.13490361030E+03  0.16451077890E+03  0.00000000000E+00 0. -1.
         -5    1    5    5    0  502  0.75788563480E+02 -0.30640307341E+02  0.33757445652E+01  0.81952549928E+02  0.47000000000E+01 0.  1.
         13    1    6    6    0    0  0.72425375766E+02  0.64318632353E+02 -0.74558733006E+02  0.12223471761E+03  0.00000000000E+00 0. -1.
        -14    1    6    6    0    0 -0.17517983129E+02  0.28533955339E+02 -0.66845794122E+01  0.34143080443E+02  0.00000000000E+00 0.  1.
</event>
<event>
12    1  0.8453150E-002  0.1760983E+03  0.7818608E-02  0.1171726E+00
         21   -1    0    0  503  502  0.00000000000E+00  0.00000000000E+00  0.58309117147E+02  0.58309117147E+02  0.00000000000E+00 0. -1.
         21   -1    0    0  501  503 -0.00000000000E+00 -0.00000000000E+00 -0.57273018389E+03  0.57273018389E+03  0.00000000000E+00 0. -1.
          6    2    1    2  501    0 -0.26138005045E+01  0.40212554804E+02 -0.17199429181E+03  0.24615576903E+03  0.17142562438E+03 0.  0.
         24    2    3    3    0    0 -0.68149454079E+02  0.21163649892E+02 -0.10319386972E+03  0.14913324202E+03  0.80619482504E+02 0.  0.
         -6    2    1    2    0  502  0.26138005045E+01 -0.40212554804E+02 -0.34242677493E+03  0.38488353201E+03  0.17104197000E+03 0.  0.
        -24    2    5    5    0    0  0.19151825693E+01  0.41340551050E+01 -0.62392074232E+02  0.10131937088E+03  0.79699972730E+02 0.  0.
          5    1    3    3  501    0  0.65535653574E+02  0.19048904912E+02 -0.68800422089E+02  0.97022527010E+02  0.47000000000E+01 0. -1.
        -11    1    4    4    0    0 -0.37593940531E+02 -0.26186336057E+02 -0.70213117708E+02  0.83838597669E+02  0.00000000000E+00 0.  1.
         12    1    4    4    0    0 -0.30555513547E+02  0.47349985949E+02 -0.32980752011E+02  0.65294644350E+02  0.00000000000E+00 0. -1.
         -5    1    5    5    0  502  0.69861793529E+00 -0.44346609909E+02 -0.28003470070E+03  0.28356416112E+03  0.47000000000E+01 0.  1.
         11    1    6    6    0    0  0.24414313051E+02 -0.29725403177E+02 -0.23606946285E+02  0.45132540242E+02  0.00000000000E+00 0. -1.
        -12    1    6    6    0    0 -0.22499130482E+02  0.33859458282E+02 -0.38785127948E+02  0.56186830641E+02  0.00000000000E+00 0.  1.
</event>
<event>
12    1  0.8453150E-002  0.1999530E+03  0.7818608E-02  0.1149822E+00
         21   -1    0    0  503  502  0.00000000000E+00  0.00000000000E+00  0.10785380437E+03  0.10785380437E+03  0.00000000000E+00 0.  1.
         21   -1    0    0  501  503 -0.00000000000E+00 -0.00000000000E+00 -0.68311080014E+03  0.68311080014E+03  0.00000000000E+00 0.  1.
          6    2    1    2  501    0 -0.59964117056E+02 -0.82545911816E+02 -0.55516241624E+03  0.59000440530E+03  0.17172759526E+03 0.  0.
         24    2    3    3    0    0  0.33095774443E+02 -0.50643224635E+02 -0.25591501185E+03  0.27496627445E+03  0.80336120809E+02 0.  0.
         -6    2    1    2    0  502  0.59964117056E+02  0.82545911816E+02 -0.20094579529E+02  0.20096019922E+03  0.17196420165E+03 0.  0.
        -24    2    5    5    0    0  0.44138260444E+02 -0.13472410051E+02  0.26638781356E+02  0.92904320655E+02  0.76104508780E+02 0.  0.
          5    1    3    3  501    0 -0.93059891498E+02 -0.31902687181E+02 -0.29924740439E+03  0.31503813085E+03  0.47000000000E+01 0. -1.
        -11    1    4    4    0    0  0.27694504412E+02  0.16397701528E+02 -0.10305126682E+03  0.10796033430E+03  0.00000000000E+00 0.  1.
         12    1    4    4    0    0  0.54012700304E+01 -0.67040926163E+02 -0.15286374504E+03  0.16700594015E+03  0.00000000000E+00 0. -1.
         -5    1    5    5    0  502  0.15825856612E+02  0.96018321867E+02 -0.46733360885E+02  0.10805587856E+03  0.47000000000E+01 0.  1.
         13    1    6    6    0    0 -0.17295776985E+02 -0.12733411017E+02  0.22834733072E+02  0.31348184830E+02  0.00000000000E+00 0. -1.
        -14    1    6    6    0    0  0.61434037429E+02 -0.73899903386E+00  0.38040482836E+01  0.61556135825E+02  0.00000000000E+00 0.  1.
</event>
<event>
12    1  0.8453150E-002  0.1740073E+03  0.7818608E-02  0.1173969E+00
         21   -1    0    0  501  502  0.00000000000E+00  0.00000000000E+00  0.22659498781E+03  0.22659498781E+03  0.00000000000E+00 0. -1.
         21   -1    0    0  502  503 -0.00000000000E+00 -0.00000000000E+00 -0.43981863923E+03  0.43981863923E+03  0.00000000000E+00 0. -1.
         -6    2    1    2    0  503  0.18191125837E+01  0.22410270680E+02 -0.38486994855E+03  0.42199392082E+03  0.17160554335E+03 0.  0.
        -24    2    3    3    0    0  0.33080156195E+02  0.72908335291E+02 -0.24574959648E+03  0.27065367588E+03  0.80315789294E+02 0.  0.
          6    2    1    2  501    0 -0.18191125837E+01 -0.22410270680E+02  0.17164629713E+03  0.24441970622E+03  0.17254857887E+03 0.  0.
         24    2    5    5    0    0  0.40111437409E+02 -0.57942361225E+01  0.29047975397E+02  0.94784700334E+02  0.80609267206E+02 0.  0.
          5    1    5    5  501    0 -0.41930549993E+02 -0.16616034557E+02  0.14259832173E+03  0.14963500589E+03  0.47000000000E+01 0. -1.
        -11    1    6    6    0    0 -0.52799230128E+01  0.27012104154E+02 -0.67201066746E+01  0.28331805300E+02  0.00000000000E+00 0.  1.
         12    1    6    6    0    0  0.45391360422E+02 -0.32806340277E+02  0.35768082071E+02  0.66452895034E+02  0.00000000000E+00 0. -1.
         -5    1    3    3    0  503 -0.31261043612E+02 -0.50498064611E+02 -0.13912035207E+03  0.15134024494E+03  0.47000000000E+01 0.  1.
         13    1    4    4    0    0 -0.13977182070E+02 -0.77863581604E+01 -0.67954597418E+02  0.69812723068E+02  0.00000000000E+00 0. -1.
        -14    1    4    4    0    0  0.47057338265E+02  0.80694693451E+02 -0.17779499906E+03  0.20084095281E+03  0.00000000000E+00 0.  1.
</event>
<event>
12    1  0.8453150E-002  0.1897105E+03  0.7818608E-02  0.1159716E+00
         21   -1    0    0  503  502  0.00000000000E+00  0.00000000000E+00  0.16850090831E+03  0.16850090831E+03  0.00000000000E+00 0.  1.
         21   -1    0    0  501  503 -0.00000000000E+00 -0.00000000000E+00 -0.20888579912E+03  0.20888579912E+03  0.00000000000E+00 0. -1.
          6    2    1    2  501    0 -0.34251215957E+02  0.59879814579E+02 -0.14794346299E+02  0.18595801140E+03  0.17205455917E+03 0.  0.
         24    2    3    3    0    0 -0.31550667172E+02  0.10729685987E+03 -0.15858161716E+02  0.13822028155E+03  0.79657417752E+02 0.  0.
         -6    2    1    2    0  502  0.34251215957E+02 -0.59879814579E+02 -0.25590544505E+02  0.19142869604E+03  0.17672388551E+03 0.  0.
        -24    2    5    5    0    0  0.50405288433E+02 -0.91363422279E+02 -0.57536864312E+02  0.14352432295E+03  0.80004827929E+02 0.  0.
          5    1    3    3  501    0 -0.27005487846E+01 -0.47417045287E+02  0.10638154178E+01  0.47737729845E+02  0.47000000000E+01 0. -1.
        -13    1    4    4    0    0 -0.25497746593E+02 -0.37544843871E+01 -0.66901971210E+01  0.26626865603E+02  0.00000000000E+00 0.  1.
         14    1    4    4    0    0 -0.60529205792E+01  0.11105134425E+03 -0.91679645955E+01  0.11159341595E+03  0.00000000000E+00 0. -1.
         -5    1    5    5    0  502 -0.16154072476E+02  0.31483607699E+02  0.31946319806E+02  0.47904373083E+02  0.47000000000E+01 0.  1.
         11    1    6    6    0    0 -0.62997801874E+01 -0.18021711817E+02 -0.46371959639E+02  0.50148060461E+02  0.00000000000E+00 0. -1.
        -12    1    6    6    0    0  0.56705068621E+02 -0.73341710461E+02 -0.11164904672E+02  0.93376262492E+02  0.00000000000E+00 0.  1.
</event>
<event>
12    1  0.8453150E-002  0.1949774E+03  0.7818608E-02  0.1154246E+00
         21   -1    0    0  501  502  0.00000000000E+00  0.00000000000E+00  0.14785572321E+04  0.14785572321E+04  0.00000000000E+00 0. -1.
         21   -1    0    0  502  503 -0.00000000000E+00 -0.00000000000E+00 -0.57768291834E+02  0.57768291834E+02  0.00000000000E+00 0. -1.
         -6    2    1    2    0  503 -0.52266557129E+02 -0.72655836084E+02  0.13636228349E+03  0.23718426140E+03  0.17219476759E+03 0.  0.
        -24    2    3    3    0    0 -0.14732380307E+02 -0.75652654147E+02  0.17320679595E+02  0.11224111911E+03  0.79735160171E+02 0.  0.
          6    2    1    2  501    0  0.52266557129E+02  0.72655836084E+02  0.12844266567E+04  0.12991412625E+04  0.17322101452E+03 0.  0.
         24    2    5    5    0    0  0.38526541114E+02 -0.20096775143E+02  0.43449404610E+03  0.44403929925E+03  0.80607992390E+02 0.  0.
          5    1    5    5  501    0  0.13740016015E+02  0.92752611227E+02  0.84993261063E+03  0.85510196324E+03  0.47000000000E+01 0. -1.
        -13    1    6    6    0    0 -0.11338890643E+02  0.12969697648E+02  0.26018377157E+02  0.31204798477E+02  0.00000000000E+00 0.  1.
         14    1    6    6    0    0  0.49865431757E+02 -0.33066472791E+02  0.40847566894E+03  0.41283450077E+03  0.00000000000E+00 0. -1.
         -5    1    3    3    0  503 -0.37534176823E+02  0.29968180632E+01  0.11904160390E+03  0.12494314230E+03  0.47000000000E+01 0.  1.
         11    1    4    4    0    0 -0.30525480711E+02 -0.85490508791E+02  0.72044297424E+01  0.91062263721E+02  0.00000000000E+00 0. -1.
        -12    1    4    4    0    0  0.15793100404E+02  0.98378546440E+01  0.10116249853E+02  0.21178855386E+02  0.00000000000E+00 0.  1.
</event>
<event>
12    1  0.8453150E-002  0.1961424E+03  0.7818608E-02  0.1153347E+00
         21   -1    0    0  503  502  0.00000000000E+00  0.00000000000E+00  0.96472464068E+03  0.96472464068E+03  0.00000000000E+00 0.  1.
         21   -1    0    0  501  503 -0.00000000000E+00 -0.00000000000E+00 -0.10536428542E+03  0.10536428542E+03  0.00000000000E+00 0.  1.
          6    2    1    2  501    0  0.68922280120E+02  0.62275560909E+02  0.75276202660E+01  0.19628683259E+03  0.17275221966E+03 0.  0.
         24    2    3    3    0    0  0.67175246080E+02 -0.22565745433E+02 -0.21253421910E+02  0.10655647107E+03  0.76686680927E+02 0.  0.
         -6    2    1    2    0  502 -0.68922280120E+02 -0.62275560909E+02  0.85183273500E+03  0.87380209350E+03  0.17112148904E+03 0.  0.
        -24    2    5    5    0    0 -0.23951466562E+02 -0.57813412974E+02  0.24521104913E+03  0.26548125332E+03  0.80223274539E+02 0.  0.
          5    1    3    3  501    0  0.17470340394E+01  0.84841306342E+02  0.28781042176E+02  0.89730361520E+02  0.47000000000E+01 0. -1.
        -13    1    4    4    0    0  0.72332244231E+02  0.85837089957E+01 -0.14512163215E+02  0.74271370640E+02  0.00000000000E+00 0.  1.
         14    1    4    4    0    0 -0.51569981504E+01 -0.31149454429E+02 -0.67412586951E+01  0.32285100433E+02  0.00000000000E+00 0. -1.
         -5    1    5    5    0  502 -0.44970813558E+02 -0.44621479349E+01  0.60662168587E+03  0.60832084018E+03  0.47000000000E+01 0.  1.
         13    1    6    6    0    0 -0.43712342166E+02 -0.59779087973E+02  0.13967445944E+03  0.15809257679E+03  0.00000000000E+00 0. -1.
        -14    1    6    6    0    0  0.19760875604E+02  0.19656749996E+01  0.10553658969E+03  0.10738867653E+03  0.00000000000E+00 0.  1.
</event>
<event>
12    1  0.8453150E-002  0.2345411E+03  0.7818608E-02  0.1124367E+00
         21   -1    0    0  501  502  0.00000000000E+00  0.00000000000E+00  0.73085061539E+03  0.73085061539E+03  0.00000000000E+00 0.  1.
         21   -1    0    0  502  503 -0.00000000000E+00 -0.00000000000E+00 -0.80473799972E+02  0.80473799972E+02  0.00000000000E+00 0.  1.
         -6    2    1    2    0  503 -0.36469090671E+02  0.15452910357E+03  0.21028092108E+03  0.31500410790E+03  0.17262758701E+03 0.  0.
        -24    2    3    3    0    0 -0.37352083149E+02  0.10084115060E+02  0.10028322479E+03  0.13338164901E+03  0.78975132964E+02 0.  0.
          6    2    1    2  501    0  0.36469090671E+02 -0.15452910357E+03  0.44009589434E+03  0.49632030747E+03  0.16565087676E+03 0.  0.
         24    2    5    5    0    0  0.57361257700E+02 -0.85628835828E+02  0.15153867911E+03  0.19887941250E+03  0.77242721608E+02 0.  0.
          5    1    5    5  501    0 -0.20892167029E+02 -0.68900267741E+02  0.28855721523E+03  0.29744089497E+03  0.47000000000E+01 0. -1.
        -11    1    6    6    0    0  0.13044421065E+02 -0.40234924690E+02  0.12156919465E+03  0.12871703529E+03  0.00000000000E+00 0.  1.
         12    1    6    6    0    0  0.44316836635E+02 -0.45393911138E+02  0.29969484460E+02  0.70162377216E+02  0.00000000000E+00 0. -1.
         -5    1    3    3    0  503  0.88299247760E+00  0.14444498851E+03  0.10999769629E+03  0.18162245888E+03  0.47000000000E+01 0.  1.
         13    1    4    4    0    0 -0.23309149072E+01  0.21655313365E+02  0.93343881549E+02  0.95851270121E+02  0.00000000000E+00 0. -1.
        -14    1    4    4    0    0 -0.35021168241E+02 -0.11571198305E+02  0.69393432452E+01  0.37530378893E+02  0.00000000000E+00 0.  1.
</event>
<event>
12    1  0.8453150E-002  0.1987239E+03  0.7818608E-02  0.1151029E+00
         21   -1    0    0  503  502  0.00000000000E+00  0.00000000000E+00  0.35106833544E+03  0.35106833544E+03  0.00000000000E+00 0.  1.
         21   -1    0    0  501  503 -0.00000000000E+00 -0.00000000000E+00 -0.23294201561E+03  0.23294201561E+03  0.00000000000E+00 0.  1.
          6    2    1    2  501    0  0.23942519909E+01 -0.97353855336E+02 -0.15146787977E+03  0.24908914800E+03  0.17210281653E+03 0.  0.
         24    2    3    3    0    0 -0.58415552432E+02 -0.38193859535E+02 -0.10370955130E+03  0.15161768882E+03  0.85796881406E+02 0.  0.
         -6    2    1    2    0  502 -0.23942519909E+01  0.97353855336E+02  0.26959419961E+03  0.33492120305E+03  0.17322723284E+03 0.  0.
        -24    2    5    5    0    0  0.17537357210E+02 -0.95155354354E+01  0.58667630435E+02  0.97580849734E+02  0.75379221682E+02 0.  0.
          5    1    3    3  501    0  0.60809804423E+02 -0.59159995801E+02 -0.47758328471E+02  0.97471459184E+02  0.47000000000E+01 0. -1.
        -13    1    4    4    0    0 -0.48610879531E+02 -0.65096623966E+02 -0.68754407487E+02  0.10643193416E+03  0.00000000000E+00 0.  1.
         14    1    4    4    0    0 -0.98046729015E+01  0.26902764430E+02 -0.34955143814E+02  0.45185754655E+02  0.00000000000E+00 0. -1.
         -5    1    5    5    0  502 -0.19931609201E+02  0.10686939077E+03  0.21092656917E+03  0.23734035332E+03  0.47000000000E+01 0.  1.
         11    1    6    6    0    0 -0.46951353578E+01 -0.21353188524E+02  0.67450911811E+02  0.70905771700E+02  0.00000000000E+00 0. -1.
        -12    1    6    6    0    0  0.22232492568E+02  0.11837653089E+02 -0.87832813760E+01  0.26675078034E+02  0.00000000000E+00 0.  1.
</event>
<event>
12    1  0.8453150E-002  0.2734694E+03  0.7818608E-02  0.1099689E+00
         21   -1    0    0  503  502  0.00000000000E+00  0.00000000000E+00  0.27274431482E+03  0.27274431482E+03  0.00000000000E+00 0.  1.
         21   -1    0    0  501  503 -0.00000000000E+00 -0.00000000000E+00 -0.27801782530E+03  0.27801782530E+03  0.00000000000E+00 0.  1.
          6    2    1    2  501    0  0.15574878806E+03 -0.13929004747E+03 -0.44755320686E+02  0.27710749599E+03  0.17642597116E+03 0.  0.
         24    2    3    3    0    0  0.15313928496E+03 -0.13306265582E+03  0.13620760745E+02  0.21815457582E+03  0.79047978200E+02 0.  0.
         -6    2    1    2    0  502 -0.15574878806E+03  0.13929004747E+03  0.39481810211E+02  0.27365464413E+03  0.17224589576E+03 0.  0.
        -24    2    5    5    0    0 -0.50080933490E+02  0.82188831979E+00  0.47605939584E+02  0.99220650689E+02  0.71201380884E+02 0.  0.
          5    1    3    3  501    0  0.26095030997E+01 -0.62273916501E+01 -0.58376081431E+02  0.58952920169E+02  0.47000000000E+01 0. -1.
        -11    1    4    4    0    0  0.83830318638E+02 -0.82362618974E+02 -0.30775727034E+02  0.12148361495E+03  0.00000000000E+00 0.  1.
         12    1    4    4    0    0  0.69308966322E+02 -0.50700036849E+02  0.44396487780E+02  0.96670960874E+02  0.00000000000E+00 0. -1.
         -5    1    5    5    0  502 -0.10566785457E+03  0.13846815915E+03 -0.81241293723E+01  0.17443399344E+03  0.47000000000E+01 0.  1.
         13    1    6    6    0    0  0.76261523051E+01 -0.22691766790E+02  0.19435116005E+02  0.30835016023E+02  0.00000000000E+00 0. -1.
        -14    1    6    6    0    0 -0.57707085795E+02  0.23513655109E+02  0.28170823578E+02  0.68385634665E+02  0.00000000000E+00 0.  1.
</event>
<event>
12    1  0.8453150E-002  0.1965376E+03  0.7818608E-02  0.1152729E+00
         21   -1    0    0  501  502  0.00000000000E+00  0.00000000000E+00  0.15840206921E+04  0.15840206921E+04  0.00000000000E+00 0. -1.
         21   -1    0    0  502  503 -0.00000000000E+00 -0.00000000000E+00 -0.24364924804E+02  0.24364924804E+02  0.00000000000E+00 0. -1.
         -6    2    1    2    0  503  0.75419589263E+02  0.55565789866E+02  0.77886179313E+03  0.80323578618E+03  0.17258726471E+03 0.  0.
        -24    2    3    3    0    0  0.54341622156E+02  0.10225202778E+03  0.51528029994E+03  0.53468191996E+03  0.83441470129E+02 0.  0.
          6    2    1    2  501    0 -0.75419589263E+02 -0.55565789866E+02  0.78079397418E+03  0.80514983074E+03  0.17277542761E+03 0.  0.
         24    2    5    5    0    0  0.69067528079E+01 -0.60867846253E+01  0.53901381945E+03  0.54494696416E+03  0.79665199478E+02 0.  0.
          5    1    5    5  501    0 -0.82326342071E+02 -0.49479005241E+02  0.24178015472E+03  0.26020286658E+03  0.47000000000E+01 0. -1.
        -13    1    6    6    0    0  0.20907187413E+02  0.65184320322E+01  0.40205297746E+02  0.45782817831E+02  0.00000000000E+00 0.  1.
         14    1    6    6    0    0 -0.14000434605E+02 -0.12605216658E+02  0.49880852171E+03  0.49916414633E+03  0.00000000000E+00 0. -1.
         -5    1    3    3    0  503  0.21077967107E+02 -0.46686237910E+02  0.26358149319E+03  0.26855386622E+03  0.47000000000E+01 0.  1.
         13    1    4    4    0    0  0.72103449551E+02  0.53896625631E+02  0.35976550170E+03  0.37085707477E+03  0.00000000000E+00 0. -1.
        -14    1    4    4    0    0 -0.17761827395E+02  0.48355402146E+02  0.15551479824E+03  0.16382484519E+03  0.00000000000E+00 0.  1.
</event>
<event>
12    1  0.8453150E-002  0.2088769E+03  0.7818608E-02  0.1142628E+00
         21   -1    0    0  501  502  0.00000000000E+00  0.00000000000E+00  0.96431296883E+03  0.96431296883E+03  0.00000000000E+00 0. -1.
         21   -1    0    0  502  503 -0.00000000000E+00 -0.00000000000E+00 -0.34112444409E+03  0.34112444409E+03  0.00000000000E+00 0. -1.
         -6    2    1    2    0  503  0.11218767879E+03  0.34846474703E+02 -0.29640386384E+03  0.36260831653E+03  0.17271128698E+03 0.  0.
        -24    2    3    3    0    0  0.29402149889E+02 -0.41826571101E+01 -0.24228283055E+03  0.25617574083E+03  0.77737115810E+02 0.  0.
          6    2    1    2  501    0 -0.11218767879E+03 -0.34846474703E+02  0.91959238857E+03  0.94282909638E+03  0.17168631802E+03 0.  0.
         24    2    5    5    0    0 -0.86438853541E+01 -0.56264414346E+02  0.53864305265E+03  0.54745012396E+03  0.79529233467E+02 0.  0.
          5    1    5    5  501    0 -0.10354379344E+03  0.21417939643E+02  0.38094933592E+03  0.39537897242E+03  0.47000000000E+01 0. -1.
        -13    1    6    6    0    0  0.25146372504E+02 -0.20612449428E+02  0.37970566247E+03  0.38109526793E+03  0.00000000000E+00 0.  1.
         14    1    6    6    0    0 -0.33790257858E+02 -0.35651964918E+02  0.15893739018E+03  0.16635485603E+03  0.00000000000E+00 0. -1.
         -5    1    3    3    0  503  0.82785528905E+02  0.39029131813E+02 -0.54121033288E+02  0.10643257570E+03  0.47000000000E+01 0.  1.
         11    1    4    4    0    0  0.35118709406E+00 -0.36235890975E+02 -0.73643349518E+02  0.82076221010E+02  0.00000000000E+00 0. -1.
        -12    1    4    4    0    0  0.29050962795E+02  0.32053233865E+02 -0.16863948103E+03  0.17409951982E+03  0.00000000000E+00 0.  1.
</event>
<event>
12    1  0.8453150E-002  0.1714716E+03  0.7818608E-02  0.1176344E+00
         21   -1    0    0  503  502  0.00000000000E+00  0.00000000000E+00  0.22831655748E+02  0.22831655748E+02  0.00000000000E+00 0. -1.
         21   -1    0    0  501  503 -0.00000000000E+00 -0.00000000000E+00 -0.23068565578E+04  0.23068565578E+04  0.00000000000E+00 0. -1.
          6    2    1    2  501    0 -0.73919458789E+01 -0.48600415099E+01 -0.19166332062E+04  0.19242882766E+04  0.17124328730E+03 0.  0.
         24    2    3    3    0    0 -0.29609749115E+02  0.54648674617E+02 -0.98251609887E+03  0.98800211399E+03  0.83349132105E+02 0.  0.
         -6    2    1    2    0  502  0.73919458789E+01  0.48600415099E+01 -0.36739169586E+03  0.40539993697E+03  0.17115545518E+03 0.  0.
        -24    2    5    5    0    0 -0.30107956696E+02 -0.27689423909E+00 -0.84767635477E+02  0.12021389188E+03  0.79744981352E+02 0.  0.
          5    1    3    3  501    0  0.22217803236E+02 -0.59508716127E+02 -0.93411710730E+03  0.93628616258E+03  0.47000000000E+01 0. -1.
        -13    1    4    4    0    0 -0.35068934343E+01  0.38886467710E+02 -0.15226470358E+03  0.15719095276E+03  0.00000000000E+00 0.  1.
         14    1    4    4    0    0 -0.26102855681E+02  0.15762206907E+02 -0.83025139530E+03  0.83081116124E+03  0.00000000000E+00 0. -1.
         -5    1    5    5    0  502  0.37499902575E+02  0.51369357490E+01 -0.28262406038E+03  0.28518604508E+03  0.47000000000E+01 0.  1.
         11    1    6    6    0    0  0.12347695494E+02  0.26144728886E+02 -0.10667035580E+02  0.30818794276E+02  0.00000000000E+00 0. -1.
        -12    1    6    6    0    0 -0.42455652190E+02 -0.26421623125E+02 -0.74100599897E+02  0.89395097609E+02  0.00000000000E+00 0.  1.
</event>
<event>
12    1  0.8453150E-002  0.1736209E+03  0.7818608E-02  0.1174314E+00
         21   -1    0    0  503  502  0.00000000000E+00  0.00000000000E+00  0.46018563010E+02  0.46018563010E+02  0.00000000000E+00 0. -1.
         21   -1    0    0  501  503 -0.00000000000E+00 -0.00000000000E+00 -0.80105972132E+03  0.80105972132E+03  0.00000000000E+00 0. -1.
          6    2    1    2  501    0  0.43718523587E+01  0.12390288316E+02 -0.56074616119E+03  0.58700978557E+03  0.17312307393E+03 0.  0.
         24    2    3    3    0    0  0.31331761941E+02  0.61427081105E+02 -0.25265536830E+03  0.27384294436E+03  0.80001609008E+02 0.  0.
         -6    2    1    2    0  502 -0.43718523587E+01 -0.12390288316E+02 -0.19429499712E+03  0.26006849876E+03  0.17237298455E+03 0.  0.
        -24    2    5    5    0    0  0.15916203487E+02  0.60159523003E+02 -0.11351331168E+03  0.14951149520E+03  0.74805892338E+02 0.  0.
          5    1    3    3  501    0 -0.26959909582E+02 -0.49036792789E+02 -0.30809079289E+03  0.31316684121E+03  0.47000000000E+01 0. -1.
        -13    1    4    4    0    0  0.29754303173E+02 -0.13330839540E+01 -0.29101726827E+02  0.41641399766E+02  0.00000000000E+00 0.  1.
         14    1    4    4    0    0  0.15774587672E+01  0.62760165059E+02 -0.22355364148E+03  0.23220154459E+03  0.00000000000E+00 0. -1.
         -5    1    5    5    0  502 -0.20288055846E+02 -0.72549811320E+02 -0.80781685445E+02  0.11055700356E+03  0.47000000000E+01 0.  1.
         11    1    6    6    0    0  0.34474985888E+02  0.60092362029E+00 -0.47376978018E+02  0.58595766121E+02  0.00000000000E+00 0. -1.
        -12    1    6    6    0    0 -0.18558782401E+02  0.59558599383E+02 -0.66136333659E+02  0.90915729082E+02  0.00000000000E+00 0.  1.
</event>
<event>
12    1  0.8453150E-002  0.2038698E+03  0.7818608E-02  0.1148730E+00
         21   -1    0    0  503  502  0.00000000000E+00  0.00000000000E+00  0.22642233463E+03  0.22642233463E+03  0.00000000000E+00 0. -1.
         21   -1    0    0  501  503 -0.00000000000E+00 -0.00000000000E+00 -0.50228206253E+03  0.50228206253E+03  0.00000000000E+00 0.  1.
          6    2    1    2  501    0 -0.10882574929E+03  0.31353788763E+02 -0.43359806232E+03  0.47913482548E+03  0.16951931324E+03 0.  0.
         24    2    3    3    0    0 -0.13370562880E+03 -0.79272816966E+01 -0.35654950603E+03  0.38902055953E+03  0.79179596612E+02 0.  0.
         -6    2    1    2    0  502  0.10882574929E+03 -0.31353788763E+02  0.15773833443E+03  0.24956957168E+03  0.15677208037E+03 0.  0.
        -24    2    5    5    0    0  0.14072304993E+01 -0.17731713452E+02  0.55250721934E+02  0.10040489815E+03  0.81927451678E+02 0.  0.
          5    1    3    3  501    0  0.24879879511E+02  0.39281070460E+02 -0.77048556296E+02  0.90114265953E+02  0.47000000000E+01 0. -1.
        -13    1    4    4    0    0 -0.90519845158E+02 -0.13499344514E+01 -0.31841160529E+03  0.33103113913E+03  0.00000000000E+00 0.  1.
         14    1    4    4    0    0 -0.43185783645E+02 -0.65773472453E+01 -0.38137900743E+02  0.57989420404E+02  0.00000000000E+00 0. -1.
         -5    1    5    5    0  502  0.10741851879E+03 -0.13622075311E+02  0.10248761249E+03  0.14916467353E+03  0.47000000000E+01 0.  1.
         11    1    6    6    0    0  0.12590049017E+02  0.14639056890E+02  0.62485881348E+02  0.65401045013E+02  0.00000000000E+00 0. -1.
        -12    1    6    6    0    0 -0.11182818518E+02 -0.32370770343E+02 -0.72351594147E+01  0.35003853136E+02  0.00000000000E+00 0.  1.
</event>
<event>
12    1  0.8453150E-002  0.2224168E+03  0.7818608E-02  0.1132459E+00
         21   -1    0    0  501  502  0.00000000000E+00  0.00000000000E+00  0.42423207413E+03  0.42423207413E+03  0.00000000000E+00 0. -1.
         21   -1    0    0  502  503 -0.00000000000E+00 -0.00000000000E+00 -0.26069816494E+03  0.26069816494E+03  0.00000000000E+00 0.  1.
         -6    2    1    2    0  503 -0.44139473560E+02 -0.13215946062E+03 -0.17358490548E+03  0.28213641943E+03  0.17336327062E+03 0.  0.
        -24    2    3    3    0    0 -0.68090636790E+02 -0.80367739603E+02 -0.33043390153E+02  0.13037987717E+03  0.69366694829E+02 0.  0.
          6    2    1    2  501    0  0.44139473560E+02  0.13215946062E+03  0.33711881467E+03  0.40279381965E+03  0.17081964110E+03 0.  0.
         24    2    5    5    0    0 -0.30569048839E+02  0.25320288236E+02  0.15394065535E+03  0.17791096097E+03  0.79868647922E+02 0.  0.
          5    1    5    5  501    0  0.74708522399E+02  0.10683917238E+03  0.18317815932E+03  0.22488285867E+03  0.47000000000E+01 0. -1.
        -11    1    6    6    0    0  0.30102463616E+01  0.46413424049E+02  0.59791466603E+02  0.75751481792E+02  0.00000000000E+00 0.  1.
         12    1    6    6    0    0 -0.33579295201E+02 -0.21093135813E+02  0.94149188749E+02  0.10215947918E+03  0.00000000000E+00 0. -1.
         -5    1    3    3    0  503  0.23951163230E+02 -0.51791721013E+02 -0.14054151533E+03  0.15175654225E+03  0.47000000000E+01 0.  1.
         11    1    4    4    0    0 -0.33438102690E+01  0.12129173182E+02 -0.74056808985E+01  0.14599384191E+02  0.00000000000E+00 0. -1.
        -12    1    4    4    0    0 -0.64746826521E+02 -0.92496912785E+02 -0.25637709254E+02  0.11578049298E+03  0.00000000000E+00 0.  1.
</event>
<event>
12    1  0.8453150E-002  0.3717071E+03  0.7818608E-02  0.1054352E+00
         21   -1    0    0  501  502  0.00000000000E+00  0.00000000000E+00  0.67454608246E+03  0.67454608246E+03  0.00000000000E+00 0.  1.
         21   -1    0    0  502  503 -0.00000000000E+00 -0.00000000000E+00 -0.20324748397E+03  0.20324748397E+03  0.00000000000E+00 0.  1.
         -6    2    1    2    0  503  0.28114846137E+03  0.17138828187E+03  0.25058210102E+03  0.44828289340E+03  0.17247539728E+03 0.  0.
        -24    2    3    3    0    0  0.99629943744E+02  0.13709753652E+03  0.12729318013E+03  0.22614087695E+03  0.78830719323E+02 0.  0.
          6    2    1    2  501    0 -0.28114846137E+03 -0.17138828187E+03  0.22071649746E+03  0.42951067303E+03  0.16536397884E+03 0.  0.
         24    2    5    5    0    0 -0.15905605784E+03 -0.10302933208E+03  0.57525895819E+02  0.21449261918E+03  0.82364933000E+02 0.  0.
          5    1    5    5  501    0 -0.12209240353E+03 -0.68358949794E+02  0.16319060164E+03  0.21501805385E+03  0.47000000000E+01 0. -1.
        -13    1    6    6    0    0 -0.53901409304E+02  0.20851721000E+01  0.34516957669E+02  0.64040067414E+02  0.00000000000E+00 0.  1.
         14    1    6    6    0    0 -0.10515464853E+03 -0.10511450418E+03  0.23008938149E+02  0.15045255176E+03  0.00000000000E+00 0. -1.
         -5    1    3    3    0  503  0.18151851763E+03  0.34290745356E+02  0.12328892089E+03  0.22214201645E+03  0.47000000000E+01 0.  1.
         11    1    4    4    0    0  0.53758738194E+02  0.91507707159E+02  0.12132398533E+03  0.16119296454E+03  0.00000000000E+00 0. -1.
        -12    1    4    4    0    0  0.45871205550E+02  0.45589829359E+02  0.59691948071E+01  0.64947912409E+02  0.00000000000E+00 0.  1.
</event>
<event>
12    1  0.8453150E-002  0.2376173E+03  0.7818608E-02  0.1122817E+00
         21   -1    0    0  503  502  0.00000000000E+00  0.00000000000E+00  0.42979376072E+03  0.42979376072E+03  0.00000000000E+00 0. -1.
         21   -1    0    0  501  503 -0.00000000000E+00 -0.00000000000E+00 -0.14294770700E+03  0.14294770700E+03  0.00000000000E+00 0.  1.
          6    2    1    2  501    0  0.45897019366E+02  0.15720767721E+03  0.44990596300E+02  0.23368977692E+03  0.16051781185E+03 0.  0.
         24    2    3    3    0    0  0.13368151966E+02  0.31024033470E+02  0.53678235288E+02  0.10300693859E+03  0.81165745942E+02 0.  0.
         -6    2    1    2    0  502 -0.45897019366E+02 -0.15720767721E+03  0.24185545742E+03  0.33905169080E+03  0.17216618886E+03 0.  0.
        -24    2    5    5    0    0  0.19154930050E+02 -0.83926847888E+02  0.20108964319E+03  0.23281714990E+03  0.79725488700E+02 0.  0.
          5    1    3    3  501    0  0.32528867400E+02  0.12618364374E+03 -0.86876389882E+01  0.13068283833E+03  0.47000000000E+01 0. -1.
        -11    1    4    4    0    0  0.15887620936E+02 -0.21237907499E+02 -0.20046267160E+01  0.26598566544E+02  0.00000000000E+00 0.  1.
         12    1    4    4    0    0 -0.25194689699E+01  0.52261940969E+02  0.55682862004E+02  0.76408372046E+02  0.00000000000E+00 0. -1.
         -5    1    5    5    0  502 -0.65051949416E+02 -0.73280829326E+02  0.40765814230E+02  0.10623454090E+03  0.47000000000E+01 0.  1.
         13    1    6    6    0    0  0.38104060456E+02 -0.89726300058E+02  0.16500227560E+03  0.19164675656E+03  0.00000000000E+00 0. -1.
        -14    1    6    6    0    0 -0.18949130407E+02  0.57994521702E+01  0.36087367592E+02  0.41170393347E+02  0.00000000000E+00 0.  1.
</event>
<event>
12    1  0.8453150E-002  0.2210165E+03  0.7818608E-02  0.1134831E+00
         21   -1    0    0  503  502  0.00000000000E+00  0.00000000000E+00  0.82215870803E+03  0.82215870803E+03  0.00000000000E+00 0.  1.
         21   -1    0    0  501  503 -0.00000000000E+00 -0.00000000000E+00 -0.10072608606E+03  0.10072608606E+03  0.00000000000E+00 0.  1.
          6    2    1    2  501    0  0.61802402154E+02  0.11424626373E+03  0.52560241529E+02  0.21844278302E+03  0.16757960728E+03 0.  0.
         24    2    3    3    0    0  0.22534334177E+02  0.13068811715E+03  0.71518839150E+02  0.17160439993E+03  0.82133705258E+02 0.  0.
         -6    2    1    2    0  502 -0.61802402154E+02 -0.11424626373E+03  0.66887238044E+03  0.70444201107E+03  0.17881985334E+03 0.  0.
        -24    2    5    5    0    0 -0.99553751772E+00 -0.10483005910E+03  0.26420816678E+03  0.29509942164E+03  0.79293006468E+02 0.  0.
          5    1    3    3  501    0  0.39268067977E+02 -0.16441853424E+02 -0.18958597620E+02  0.46838383089E+02  0.47000000000E+01 0. -1.
        -13    1    4    4    0    0  0.48124393416E+02  0.70018887693E+02  0.18227372652E+02  0.86895563691E+02  0.00000000000E+00 0.  1.
         14    1    4    4    0    0 -0.25590059239E+02  0.60669229462E+02  0.53291466498E+02  0.84708836238E+02  0.00000000000E+00 0. -1.
         -5    1    5    5    0  502 -0.60806864636E+02 -0.94162046286E+01  0.40466421367E+03  0.40934258943E+03  0.47000000000E+01 0.  1.
         11    1    6    6    0    0 -0.37911985165E+02 -0.39076805589E+02  0.88693512245E+02  0.10407139121E+03  0.00000000000E+00 0. -1.
        -12    1    6    6    0    0  0.36916447648E+02 -0.65753253513E+02  0.17551465453E+03  0.19102803043E+03  0.00000000000E+00 0.  1.
</event>
<event>
12    1  0.8453150E-002  0.1820974E+03  0.7818608E-02  0.1165956E+00
         21   -1    0    0  501  502  0.00000000000E+00  0.00000000000E+00  0.10247820885E+04  0.10247820885E+04  0.00000000000E+00 0. -1.
         21   -1    0    0  502  503 -0.00000000000E+00 -0.00000000000E+00 -0.33155038168E+02  0.33155038168E+02  0.00000000000E+00 0.  1.
         -6    2    1    2    0  503 -0.10793601557E+01 -0.59084637939E+02  0.58494583397E+03  0.61263455648E+03  0.17224201480E+03 0.  0.
        -24    2    3    3    0    0  0.10681304451E+01  0.28993827120E+02  0.38166701339E+03  0.39103402260E+03  0.79975713843E+02 0.  0.
          6    2    1    2  501    0  0.10793601557E+01  0.59084637939E+02  0.40668121638E+03  0.44530257020E+03  0.17150104318E+03 0.  0.
         24    2    5    5    0    0 -0.16063713082E+02  0.10497079388E+03  0.28214856172E+03  0.31140000733E+03  0.78007969070E+02 0.  0.
          5    1    5    5  501    0  0.17143073238E+02 -0.45886155938E+02  0.12453265465E+03  0.13390256286E+03  0.47000000000E+01 0. -1.
        -11    1    6    6    0    0  0.23820252897E+02  0.17306566927E+02  0.32688719847E+02  0.43994023596E+02  0.00000000000E+00 0.  1.
         12    1    6    6    0    0 -0.39883965979E+02  0.87664226950E+02  0.24945984188E+03  0.26740598374E+03  0.00000000000E+00 0. -1.
         -5    1    3    3    0  503 -0.21474906008E+01 -0.88078465059E+02  0.20327882057E+03  0.22160053388E+03  0.47000000000E+01 0.  1.
         13    1    4    4    0    0  0.25291822558E+02 -0.14771998417E+02  0.21608638803E+03  0.21806241151E+03  0.00000000000E+00 0. -1.
        -14    1    4    4    0    0 -0.24223692112E+02  0.43765825537E+02  0.16558062537E+03  0.17297161109E+03  0.00000000000E+00 0.  1.
</event>
<event>
12    1  0.8453150E-002  0.2265933E+03  0.7818608E-02  0.1129217E+00
         21   -1    0    0  503  502  0.00000000000E+00  0.00000000000E+00  0.12656738167E+04  0.12656738167E+04  0.00000000000E+00 0. -1.
         21   -1    0    0  501  503 -0.00000000000E+00 -0.00000000000E+00 -0.46662213017E+02  0.46662213017E+02  0.00000000000E+00 0. -1.
          6    2    1    2  501    0  0.11887723550E+03 -0.86135135700E+02  0.85068833044E+03  0.88034946362E+03  0.17260789040E+03 0.  0.
         24    2    3    3    0    0 -0.53612640078E+01 -0.12598742621E+01  0.25239880193E+03  0.26341229933E+03  0.75170165529E+02 0.  0.
         -6    2    1    2    0  502 -0.11887723550E+03  0.86135135700E+02  0.36832327323E+03  0.43198656608E+03  0.17146224352E+03 0.  0.
        -24    2    5    5    0    0 -0.12361114134E+03  0.11836097637E+03  0.33651201520E+03  0.38621582424E+03  0.81445021496E+02 0.  0.
          5    1    3    3  501    0  0.12423849951E+03 -0.84875261438E+02  0.59828952850E+03  0.61693716429E+03  0.47000000000E+01 0. -1.
        -11    1    4    4    0    0  0.23868497333E+02  0.22768200355E+02  0.73604850013E+02  0.80658353925E+02  0.00000000000E+00 0.  1.
         12    1    4    4    0    0 -0.29229761341E+02 -0.24028074617E+02  0.17879395192E+03  0.18275394541E+03  0.00000000000E+00 0. -1.
         -5    1    5    5    0  502  0.47339058455E+01 -0.32225840671E+02  0.31811258031E+02  0.45770741845E+02  0.47000000000E+01 0.  1.
         13    1    6    6    0    0 -0.37714786574E+02  0.18072563745E+02  0.16238510910E+03  0.16768406706E+03  0.00000000000E+00 0. -1.
        -14    1    6    6    0    0 -0.85896354770E+02  0.10028841263E+03  0.17412690610E+03  0.21853175718E+03  0.00000000000E+00 0.  1.
</event>
<event>
12    1  0.8453150E-002  0.2214053E+03  0.7818608E-02  0.1132906E+00
         21   -1    0    0  503  502  0.00000000000E+00  0.00000000000E+00  0.21721092688E+03  0.21721092688E+03  0.00000000000E+00 0.  1.
         21   -1    0    0  501  503 -0.00000000000E+00 -0.00000000000E+00 -0.42206220746E+03  0.42206220746E+03  0.00000000000E+00 0. -1.
          6    2    1    2  501    0 -0.85736082222E+01  0.13883098415E+03 -0.32061426238E+03  0.38943046844E+03  0.17179940510E+03 0.  0.
         24    2    3    3    0    0  0.48166872060E+02  0.11208977477E+03 -0.15781033836E+03  0.21489742842E+03  0.79953965986E+02 0.  0.
         -6    2    1    2    0  502  0.85736082222E+01 -0.13883098415E+03  0.11576298180E+03  0.24984266589E+03  0.17225777435E+03 0.  0.
        -24    2    5    5    0    0  0.58505695770E+02 -0.37221290869E+02  0.60511623972E+02  0.12377702554E+03  0.82769284663E+02 0.  0.
          5    1    3    3  501    0 -0.56740480282E+02  0.26741209376E+02 -0.16280392402E+03  0.17453304002E+03  0.47000000000E+01 0. -1.
        -11    1    4    4    0    0  0.42166679574E+02  0.12301256675E+03 -0.12746121736E+03  0.18208921543E+03  0.00000000000E+00 0.  1.
         12    1    4    4    0    0  0.60001924862E+01 -0.10922791975E+02 -0.30349121002E+02  0.32808212996E+02  0.00000000000E+00 0. -1.
         -5    1    5    5    0  502 -0.49932087548E+02 -0.10160969328E+03  0.55251357832E+02  0.12606564035E+03  0.47000000000E+01 0.  1.
         13    1    6    6    0    0  0.18467512697E+02  0.17543821301E+02 -0.86469308014E+01  0.26899890396E+02  0.00000000000E+00 0. -1.
        -14    1    6    6    0    0  0.40038183073E+02 -0.54765112171E+02  0.69158554773E+02  0.96877135141E+02  0.00000000000E+00 0.  1.
</event>
<event>
12    1  0.8453150E-002  0.1743905E+03  0.7818608E-02  0.1173546E+00
         21   -1    0    0  503  502  0.00000000000E+00  0.00000000000E+00  0.31846115765E+03  0.31846115765E+03  0.00000000000E+00 0. -1.
         21   -1    0    0  501  503 -0.00000000000E+00 -0.00000000000E+00 -0.95253081023E+02  0.95253081023E+02  0.00000000000E+00 0. -1.
          6    2    1    2  501    0 -0.21883639430E+02  0.25230609367E+01  0.12059157514E+03  0.21137246068E+03  0.17219387221E+03 0.  0.
         24    2    3    3    0    0 -0.51354982174E+02  0.23808661685E+02  0.13926481447E+03  0.17023346811E+03  0.79878398528E+02 0.  0.
         -6    2    1    2    0  502  0.21883639430E+02 -0.25230609367E+01  0.10261650148E+03  0.20234177799E+03  0.17299361038E+03 0.  0.
        -24    2    5    5    0    0  0.73810646086E+02 -0.59233769404E+01  0.28772944757E+02  0.11188219011E+03  0.78782258440E+02 0.  0.
          5    1    3    3  501    0  0.29471342744E+02 -0.21285600748E+02 -0.18673239327E+02  0.41138992566E+02  0.47000000000E+01 0. -1.
        -11    1    4    4    0    0  0.18713052722E+01 -0.22344779508E+02  0.60694188277E+02  0.64703751401E+02  0.00000000000E+00 0.  1.
         12    1    4    4    0    0 -0.53226287446E+02  0.46153441193E+02  0.78570626192E+02  0.10552971671E+03  0.00000000000E+00 0. -1.
         -5    1    5    5    0  502 -0.51927006656E+02  0.34003160038E+01  0.73843556726E+02  0.90459587878E+02  0.47000000000E+01 0.  1.
         11    1    6    6    0    0  0.61447871643E+02 -0.23471701950E+02  0.49283583582E+02  0.82192659846E+02  0.00000000000E+00 0. -1.
        -12    1    6    6    0    0  0.12362774443E+02  0.17548325010E+02 -0.20510638825E+02  0.29689530269E+02  0.00000000000E+00 0.  1.
</event>
<event>
12    1  0.8453150E-002  0.2105392E+03  0.7818608E-02  0.1141148E+00
         21   -1    0    0  501  502  0.00000000000E+00  0.00000000000E+00  0.16050388312E+03  0.16050388312E+03  0.00000000000E+00 0. -1.
         21   -1    0    0  502  503 -0.00000000000E+00 -0.00000000000E+00 -0.44358678936E+03  0.44358678936E+03  0.00000000000E+00 0.  1.
         -6    2    1    2    0  503 -0.70662976281E+02 -0.99460129917E+02 -0.32713849121E+03  0.38903257549E+03  0.17158431951E+03 0.  0.
        -24    2    3    3    0    0  0.24585970617E+02 -0.59839984797E+02 -0.14230697304E+03  0.17730893983E+03  0.83677307787E+02 0.  0.
          6    2    1    2  501    0  0.70662976281E+02  0.99460129917E+02  0.44055584975E+02  0.21505809699E+03  0.17153284483E+03 0.  0.
         24    2    5    5    0    0  0.30733417476E+02 -0.80001594620E+01  0.49876308181E+02  0.10017531204E+03  0.80863474594E+02 0.  0.
          5    1    5    5  501    0  0.39929558805E+02  0.10746028938E+03 -0.58207232059E+01  0.11488278495E+03  0.47000000000E+01 0. -1.
        -13    1    6    6    0    0  0.19406349995E+02  0.17141867390E+02  0.64110903612E+02  0.69142302534E+02  0.00000000000E+00 0.  1.
         14    1    6    6    0    0  0.11327067481E+02 -0.25142026852E+02 -0.14234595431E+02  0.31033009506E+02  0.00000000000E+00 0. -1.
         -5    1    3    3    0  503 -0.95248946898E+02 -0.39620145121E+02 -0.18483151817E+03  0.21172363566E+03  0.47000000000E+01 0.  1.
         11    1    4    4    0    0  0.21298751117E+02 -0.72273843555E+01 -0.11643443251E+03  0.11858688358E+03  0.00000000000E+00 0. -1.
        -12    1    4    4    0    0  0.32872194999E+01 -0.52612600441E+02 -0.25872540528E+02  0.58722056253E+02  0.00000000000E+00 0.  1.
</event>
<event>
12    1  0.8453150E-002  0.1842864E+03  0.7818608E-02  0.1163907E+00
         21   -1    0    0  503  502  0.00000000000E+00  0.00000000000E+00  0.24771680576E+03  0.24771680576E+03  0.00000000000E+00 0. -1.
         21   -1    0    0  501  503 -0.00000000000E+00 -0.00000000000E+00 -0.17753982868E+03  0.17753982868E+03  0.00000000000E+00 0. -1.
          6    2    1    2  501    0 -0.18040193641E+02  0.63106285660E+02 -0.67199210904E+02  0.19540080438E+03  0.17134143845E+03 0.  0.
         24    2    3    3    0    0 -0.45032774130E+02  0.39668212888E+02 -0.10501900642E+03  0.14314786581E+03  0.76555874475E+02 0.  0.
         -6    2    1    2    0  502  0.18040193641E+02 -0.63106285660E+02  0.13737618799E+03  0.22985583005E+03  0.17220230460E+03 0.  0.
        -24    2    5    5    0    0  0.45467833571E+02 -0.93035670763E+02  0.57105525518E+02  0.13978079035E+03  0.74529647670E+02 0.  0.
          5    1    3    3  501    0  0.26992580488E+02  0.23438072772E+02  0.37819795517E+02  0.52252938574E+02  0.47000000000E+01 0. -1.
        -13    1    4    4    0    0 -0.38905473722E+02 -0.29779302560E+01 -0.12307138444E+02  0.40914173715E+02  0.00000000000E+00 0.  1.
         14    1    4    4    0    0 -0.61273004075E+01  0.42646143144E+02 -0.92711867977E+02  0.10223369209E+03  0.00000000000E+00 0. -1.
         -5    1    5    5    0  502 -0.27427639930E+02  0.29929385103E+02  0.80270662470E+02  0.90075039706E+02  0.47000000000E+01 0.  1.
         13    1    6    6    0    0 -0.13658334792E+02 -0.44402293389E+02  0.40416245398E+01  0.46630982152E+02  0.00000000000E+00 0. -1.
        -14    1    6    6    0    0  0.59126168364E+02 -0.48633377374E+02  0.53063900978E+02  0.93149808197E+02  0.00000000000E+00 0.  1.
</event>
<event>
12    1  0.8453150E-002  0.3837136E+03  0.7818608E-02  0.1049856E+00
         21   -1    0    0  503  502  0.00000000000E+00  0.00000000000E+00  0.10873764072E+03  0.10873764072E+03  0.00000000000E+00 0.  1.
         21   -1    0    0  501  503 -0.00000000000E+00 -0.00000000000E+00 -0.13546394734E+04  0.13546394734E+04  0.00000000000E+00 0. -1.
          6    2    1    2  501    0  0.79911446404E+02  0.33111958536E+03 -0.55268698438E+03  0.67104956318E+03  0.16976040312E+03 0.  0.
         24    2    3    3    0    0  0.11148930666E+03  0.16296711701E+03 -0.30763835009E+03  0.37214600510E+03  0.69736274170E+02 0.  0.
         -6    2    1    2    0  502 -0.79911446404E+02 -0.33111958536E+03 -0.69321484832E+03  0.79232755096E+03  0.17666381353E+03 0.  0.
        -24    2    5    5    0    0 -0.10018504740E+03 -0.21178098147E+03 -0.55932602456E+03  0.61177000223E+03  0.80800408713E+02 0.  0.
          5    1    3    3  501    0 -0.31577860255E+02  0.16815246834E+03 -0.24504863429E+03  0.29890355808E+03  0.47000000000E+01 0. -1.
        -11    1    4    4    0    0  0.27330825231E+02  0.10164200848E+03 -0.15739091670E+03  0.18934088982E+03  0.00000000000E+00 0.  1.
         12    1    4    4    0    0  0.84158481428E+02  0.61325108535E+02 -0.15024743339E+03  0.18280511528E+03  0.00000000000E+00 0. -1.
         -5    1    5    5    0  502  0.20273600993E+02 -0.11933860389E+03 -0.13388882376E+03  0.18055754873E+03  0.47000000000E+01 0.  1.
         11    1    6    6    0    0 -0.13236012314E+02 -0.10495863599E+03 -0.30049044047E+03  0.31856869291E+03  0.00000000000E+00 0. -1.
        -12    1    6    6    0    0 -0.86949035083E+02 -0.10682234548E+03 -0.25883558409E+03  0.29320130932E+03  0.00000000000E+00 0.  1.
</event>
<event>
12    1  0.8453150E-002  0.1858405E+03  0.7818608E-02  0.1162604E+00
         21   -1    0    0  501  502  0.00000000000E+00  0.00000000000E+00  0.52649103644E+03  0.52649103644E+03  0.00000000000E+00 0. -1.
         21   -1    0    0  502  503 -0.00000000000E+00 -0.00000000000E+00 -0.10312935048E+03  0.10312935048E+03  0.00000000000E+00 0. -1.
         -6    2    1    2    0  503  0.64536499969E+02  0.26921401226E+02  0.19961927865E+02  0.18547169039E+03  0.17062106464E+03 0.  0.
        -24    2    3    3    0    0  0.11117283504E+03  0.12098627928E+02  0.17943404778E+02  0.13626979213E+03  0.75774101280E+02 0.  0.
          6    2    1    2  501    0 -0.64536499969E+02 -0.26921401226E+02  0.40339975809E+03  0.44414869654E+03  0.17218297864E+03 0.  0.
         24    2    5    5    0    0 -0.31298233433E+02 -0.20147760939E+02  0.80029502342E+02  0.11897016577E+03  0.79772598129E+02 0.  0.
          5    1    5    5  501    0 -0.33238266537E+02 -0.67736402874E+01  0.32337025575E+03  0.32517853076E+03  0.47000000000E+01 0. -1.
        -13    1    6    6    0    0 -0.42090210542E+02  0.56176221143E+00  0.74781720563E+01  0.42753063721E+02  0.00000000000E+00 0.  1.
         14    1    6    6    0    0  0.10791977109E+02 -0.20709523150E+02  0.72551330285E+02  0.76217102052E+02  0.00000000000E+00 0. -1.
         -5    1    3    3    0  503 -0.46636335066E+02  0.14822773298E+02  0.20185230870E+01  0.49201898257E+02  0.47000000000E+01 0.  1.
         11    1    4    4    0    0  0.57195289176E+00 -0.18722955362E+02 -0.45398245347E+01  0.19273977129E+02  0.00000000000E+00 0. -1.
        -12    1    4    4    0    0  0.11060088214E+03  0.30821583290E+02  0.22483229313E+02  0.11699581500E+03  0.00000000000E+00 0.  1.
</event>
<event>
12    1  0.8453150E-002  0.2445176E+03  0.7818608E-02  0.1117123E+00
         21   -1    0    0  501  502  0.00000000000E+00  0.00000000000E+00  0.21192691662E+03  0.21192691662E+03  0.00000000000E+00 0.  1.
         21   -1    0    0  502  503 -0.00000000000E+00 -0.00000000000E+00 -0.28487404944E+03  0.28487404944E+03  0.00000000000E+00 0. -1.
         -6    2    1    2    0  503 -0.97676367500E+02 -0.14149641989E+03 -0.69177729339E+02  0.25411495845E+03  0.17385897809E+03 0.  0.
        -24    2    3    3    0    0 -0.22316010706E+02 -0.93712454379E+02 -0.99218941547E+02  0.15984377957E+03  0.80159884395E+02 0.  0.
          6    2    1    2  501    0  0.97676367500E+02  0.14149641989E+03 -0.37694034812E+01  0.24268600761E+03  0.17123194876E+03 0.  0.
         24    2    5    5    0    0  0.97132608544E+01  0.57115569479E+02 -0.13986605458E+02  0.12027637865E+03  0.10447127076E+03 0.  0.
          5    1    5    5  501    0  0.87963106646E+02  0.84380850410E+02  0.10217201976E+02  0.12240962896E+03  0.47000000000E+01 0. -1.
        -13    1    6    6    0    0  0.29924711784E+02  0.39437280683E+02  0.37569287423E+02  0.62146913363E+02  0.00000000000E+00 0.  1.
         14    1    6    6    0    0 -0.20211450930E+02  0.17678288796E+02 -0.51555892880E+02  0.58129465283E+02  0.00000000000E+00 0. -1.
         -5    1    3    3    0  503 -0.75360356795E+02 -0.47783965509E+02  0.30041212208E+02  0.94271178877E+02  0.47000000000E+01 0.  1.
         13    1    4    4    0    0  0.27928343596E+02 -0.16865519380E+02 -0.18002486492E+02  0.37262952646E+02  0.00000000000E+00 0. -1.
        -14    1    4    4    0    0 -0.50244354302E+02 -0.76846934999E+02 -0.81216455056E+02  0.12258082693E+03  0.00000000000E+00 0.  1.
</event>
<event>
12    1  0.8453150E-002  0.2166066E+03  0.7818608E-02  0.1136448E+00
         21   -1    0    0  501  502  0.00000000000E+00  0.00000000000E+00  0.17896069812E+04  0.17896069812E+04  0.00000000000E+00 0. -1.
         21   -1    0    0  502  503 -0.00000000000E+00 -0.00000000000E+00 -0.49370552459E+02  0.49370552459E+02  0.00000000000E+00 0. -1.
         -6    2    1    2    0  503 -0.75611071186E+02  0.10759697205E+03  0.24040876418E+03  0.32359664043E+03  0.17211702217E+03 0.  0.
        -24    2    3    3    0    0 -0.31590627506E+02  0.28764120357E+02  0.21000820633E+03  0.22820952450E+03  0.78427023273E+02 0.  0.
          6    2    1    2  501    0  0.75611071186E+02 -0.10759697205E+03  0.14998276645E+04  0.15153808932E+04  0.17205256671E+03 0.  0.
         24    2    5    5    0    0 -0.16931634159E+02 -0.10542116439E+02  0.63839538508E+03  0.64356012068E+03  0.78886911417E+02 0.  0.
          5    1    5    5  501    0  0.92542705345E+02 -0.97054855610E+02  0.86143227945E+03  0.87182077251E+03  0.47000000000E+01 0. -1.
        -13    1    6    6    0    0 -0.18362447385E+02 -0.26600566688E+02  0.10367723762E+03  0.10859898352E+03  0.00000000000E+00 0.  1.
         14    1    6    6    0    0  0.14308132261E+01  0.16058450248E+02  0.53471814746E+03  0.53496113716E+03  0.00000000000E+00 0. -1.
         -5    1    3    3    0  503 -0.44020443680E+02  0.78832851692E+02  0.30400557851E+02  0.95387115930E+02  0.47000000000E+01 0.  1.
         11    1    4    4    0    0 -0.51619101039E+02  0.39191967554E+02  0.13287052330E+03  0.14783476545E+03  0.00000000000E+00 0. -1.
        -12    1    4    4    0    0  0.20028473533E+02 -0.10427847197E+02  0.77137683031E+02  0.80374759052E+02  0.00000000000E+00 0.  1.
</event>
<event>
12    1  0.8453150E-002  0.2918188E+03  0.7818608E-02  0.1089443E+00
         21   -1    0    0  501  502  0.00000000000E+00  0.00000000000E+00  0.71615774447E+03  0.71615774447E+03  0.00000000000E+00 0.  1.
         21   -1    0    0  502  503 -0.00000000000E+00 -0.00000000000E+00 -0.13035043561E+03  0.13035043561E+03  0.00000000000E+00 0.  1.
         -6    2    1    2    0  503 -0.99961936302E+02  0.21309201661E+03  0.16697579143E+03  0.33621290910E+03  0.17250393929E+03 0.  0.
        -24    2    3    3    0    0 -0.11190252561E+02  0.10138497507E+03  0.20681760679E+02  0.13180422925E+03  0.80873263210E+02 0.  0.
          6    2    1    2  501    0  0.99961936302E+02 -0.21309201661E+03  0.41883151744E+03  0.51029527098E+03  0.17199077688E+03 0.  0.
         24    2    5    5    0    0  0.10842493062E+03 -0.23162252804E+03  0.36738358654E+03  0.45476166206E+03  0.80202921045E+02 0.  0.
          5    1    5    5  501    0 -0.84629943173E+01  0.18530511424E+02  0.51447930891E+02  0.55533608918E+02  0.47000000000E+01 0. -1.
        -13    1    6    6    0    0  0.66718838325E+02 -0.19839795926E+03  0.25156920690E+03  0.32726169878E+03  0.00000000000E+00 0.  1.
         14    1    6    6    0    0  0.41706092293E+02 -0.33224568775E+02  0.11581437965E+03  0.12749996328E+03  0.00000000000E+00 0. -1.
         -5    1    3    3    0  503 -0.88771683740E+02  0.11170704155E+03  0.14629403075E+03  0.20440867985E+03  0.47000000000E+01 0.  1.
         11    1    4    4    0    0 -0.14893066848E+01  0.91943193985E+02  0.46206665032E+02  0.10291173329E+03  0.00000000000E+00 0. -1.
        -12    1    4    4    0    0 -0.97009458765E+01  0.94417810828E+01 -0.25524904353E+02  0.28892495966E+02  0.00000000000E+00 0.  1.
</event>
<event>
12    1  0.8453150E-002  0.1740979E+03  0.7818608E-02  0.1173962E+00
         21   -1    0    0  503  502  0.00000000000E+00  0.00000000000E+00  0.76498769780E+02  0.76498769780E+02  0.00000000000E+00 0.  1.
         21   -1    0    0  501  503 -0.00000000000E+00 -0.00000000000E+00 -0.69364791974E+03  0.69364791974E+03  0.00000000000E+00 0.  1.
          6    2    1    2  501    0 -0.10075929801E+02  0.15179806818E+02 -0.56130702885E+03  0.58731227020E+03  0.17186672511E+03 0.  0.
         24    2    3    3    0    0 -0.30883725262E+01  0.74547208646E+02 -0.41365581912E+03  0.42795015397E+03  0.80395106989E+02 0.  0.
         -6    2    1    2    0  502  0.10075929801E+02 -0.15179806818E+02 -0.55842121113E+02  0.18283441932E+03  0.17314194033E+03 0.  0.
        -24    2    5    5    0    0  0.16417954911E+02 -0.27963348192E+02 -0.10218741400E+03  0.13411464525E+03  0.80578982400E+02 0.  0.
          5    1    3    3  501    0 -0.69875572744E+01 -0.59367401828E+02 -0.14765120973E+03  0.15936211623E+03  0.47000000000E+01 0. -1.
        -11    1    4    4    0    0 -0.25333723276E+01  0.41779403933E+02 -0.37475212273E+03  0.37708233857E+03  0.00000000000E+00 0.  1.
         12    1    4    4    0    0 -0.55500019867E+00  0.32767804714E+02 -0.38903696393E+02  0.50867815404E+02  0.00000000000E+00 0. -1.
         -5    1    5    5    0  502 -0.63420251108E+01  0.12783541373E+02  0.46345292888E+02  0.48719774070E+02  0.47000000000E+01 0.  1.
         11    1    6    6    0    0  0.40625699255E+02 -0.34630442738E+02 -0.38971215121E+02  0.66094406814E+02  0.00000000000E+00 0. -1.
        -12    1    6    6    0    0 -0.24207744343E+02  0.66670945461E+01 -0.63216198880E+02  0.68020238435E+02  0.00000000000E+00 0.  1.
</event>
<event>
12    1  0.8453150E-002  0.2808539E+03  0.7818608E-02  0.1095343E+00
         21   -1    0    0  501  502  0.00000000000E+00  0.00000000000E+00  0.58096911950E+03  0.58096911950E+03  0.00000000000E+00 0. -1.
         21   -1    0    0  502  503 -0.00000000000E+00 -0.00000000000E+00 -0.14346664223E+03  0.14346664223E+03  0.00000000000E+00 0. -1.
         -6    2    1    2    0  503  0.20970339501E+03  0.66737563762E+02  0.30524047937E+03  0.41478988922E+03  0.17449780988E+03 0.  0.
        -24    2    3    3    0    0  0.90780896139E+02  0.41125855434E+02  0.59262782557E+02  0.14033472408E+03  0.79052199819E+02 0.  0.
          6    2    1    2  501    0 -0.20970339501E+03 -0.66737563762E+02  0.13226199790E+03  0.30964587251E+03  0.17308354624E+03 0.  0.
         24    2    5    5    0    0 -0.73804847287E+02  0.25895144878E+02  0.77292328642E+02  0.13617256470E+03  0.80319046930E+02 0.  0.
          5    1    5    5  501    0 -0.13589854772E+03 -0.92632708640E+02  0.54969669258E+02  0.17347330781E+03  0.47000000000E+01 0. -1.
        -11    1    6    6    0    0 -0.43667820135E+02  0.37385551430E+02  0.85372696485E+02  0.10292256932E+03  0.00000000000E+00 0.  1.
         12    1    6    6    0    0 -0.30137027152E+02 -0.11490406552E+02 -0.80803678426E+01  0.33249995380E+02  0.00000000000E+00 0. -1.
         -5    1    3    3    0  503  0.11892249887E+03  0.25611708328E+02  0.24597769682E+03  0.27445516514E+03  0.47000000000E+01 0.  1.
         11    1    4    4    0    0  0.10986543640E+02  0.10744590296E+02  0.52479613258E+02  0.54683271387E+02  0.00000000000E+00 0. -1.
        -12    1    4    4    0    0  0.79794352499E+02  0.30381265138E+02  0.67831692984E+01  0.85651452690E+02  0.00000000000E+00 0.  1.
</event>
<event>
12    1  0.8453150E-002  0.2006032E+03  0.7818608E-02  0.1149441E+00
         21   -1    0    0  503  502  0.00000000000E+00  0.00000000000E+00  0.12485600255E+03  0.12485600255E+03  0.00000000000E+00 0.  1.
         21   -1    0    0  501  503 -0.00000000000E+00 -0.00000000000E+00 -0.33387986036E+03  0.33387986036E+03  0.00000000000E+00 0.  1.
          6    2    1    2  501    0 -0.98293446253E+02 -0.22545748036E+02 -0.58704639792E+02  0.20806175595E+03  0.17226011502E+03 0.  0.
         24    2    3    3    0    0 -0.88369808560E+02 -0.76729590643E+02 -0.29963769358E+02  0.14575208561E+03  0.81542564593E+02 0.  0.
         -6    2    1    2    0  502  0.98293446253E+02  0.22545748036E+02 -0.15031921802E+03  0.25067410697E+03  0.17341201881E+03 0.  0.
        -24    2    5    5    0    0  0.65231612666E+02  0.78097123936E+02 -0.12831608264E+03  0.18222508819E+03  0.79916466668E+02 0.  0.
          5    1    3    3  501    0 -0.99236376933E+01  0.54183842608E+02 -0.28740870434E+02  0.62309670342E+02  0.47000000000E+01 0. -1.
        -13    1    4    4    0    0 -0.10840800839E+02  0.17117458284E+02 -0.92495700886E+01  0.22272963156E+02  0.00000000000E+00 0.  1.
         14    1    4    4    0    0 -0.77529007721E+02 -0.93847048927E+02 -0.20714199269E+02  0.12347912245E+03  0.00000000000E+00 0. -1.
         -5    1    5    5    0  502  0.33061833587E+02 -0.55551375900E+02 -0.22003135376E+02  0.68449018773E+02  0.47000000000E+01 0.  1.
         11    1    6    6    0    0  0.22546944248E+02 -0.66842769665E+01 -0.62339114915E+02  0.66627393029E+02  0.00000000000E+00 0. -1.
        -12    1    6    6    0    0  0.42684668418E+02  0.84781400902E+02 -0.65976967725E+02  0.11559769516E+03  0.00000000000E+00 0.  1.
</event>
<event>
12    1  0.8453150E-002  0.2126785E+03  0.7818608E-02  0.1139518E+00
         21   -1    0    0  503  502  0.00000000000E+00  0.00000000000E+00  0.31549284347E+02  0.31549284347E+02  0.00000000000E+00 0. -1.
         21   -1    0    0  501  503 -0.00000000000E+00 -0.00000000000E+00 -0.14567015347E+04  0.14567015347E+04  0.00000000000E+00 0. -1.
          6    2    1    2  501    0  0.26558329782E+02  0.12254407157E+03 -0.61570764627E+03  0.65140467294E+03  0.17178401525E+03 0.  0.
         24    2    3    3    0    0  0.83043070305E+01  0.91788979856E+02 -0.20206835684E+03  0.23619552471E+03  0.80389842137E+02 0.  0.
         -6    2    1    2    0  502 -0.26558329782E+02 -0.12254407157E+03 -0.80944460412E+03  0.83684614615E+03  0.17143077560E+03 0.  0.
        -24    2    5    5    0    0 -0.58076760798E+02 -0.59376837788E+02 -0.28110335940E+03  0.30378885861E+03  0.79812611422E+02 0.  0.
          5    1    3    3  501    0  0.18254022751E+02  0.30755091714E+02 -0.41363928943E+03  0.41520914823E+03  0.47000000000E+01 0. -1.
        -13    1    4    4    0    0  0.37255979392E+02  0.21557635605E+02 -0.10077019180E+03  0.10957815114E+03  0.00000000000E+00 0.  1.
         14    1    4    4    0    0 -0.28951672361E+02  0.70231344251E+02 -0.10129816505E+03  0.12661737357E+03  0.00000000000E+00 0. -1.
         -5    1    5    5    0  502  0.31518431016E+02 -0.63167233782E+02 -0.52834124472E+03  0.53305728753E+03  0.47000000000E+01 0.  1.
         11    1    6    6    0    0  0.22391086575E+01 -0.54261339422E+02 -0.14478306981E+03  0.15463325602E+03  0.00000000000E+00 0. -1.
        -12    1    6    6    0    0 -0.60315869455E+02 -0.51154983651E+01 -0.13632028958E+03  0.14915560259E+03  0.00000000000E+00 0.  1.
</event>
<event>
12    1  0.8453150E-002  0.2611683E+03  0.7818608E-02  0.1106448E+00
         21   -1    0    0  503  502  0.00000000000E+00  0.00000000000E+00  0.22738034741E+03  0.22738034741E+03  0.00000000000E+00 0.  1.
         21   -1    0    0  501  503 -0.00000000000E+00 -0.00000000000E+00 -0.54829221940E+03  0.54829221940E+03  0.00000000000E+00 0. -1.
          6    2    1    2  501    0  0.15577477504E+03  0.12080868334E+03 -0.42148135654E+03  0.49583808262E+03  0.17131360645E+03 0.  0.
         24    2    3    3    0    0  0.31931899728E+02  0.76895653395E+01 -0.87813932045E+02  0.12235577676E+03  0.78618533497E+02 0.  0.
         -6    2    1    2    0  502 -0.15577477504E+03 -0.12080868334E+03  0.10056948456E+03  0.27983448419E+03  0.17126762336E+03 0.  0.
        -24    2    5    5    0    0 -0.49935989051E+02 -0.11671185913E+03  0.29525310248E+02  0.15221004574E+03  0.78618655637E+02 0.  0.
          5    1    3    3  501    0  0.12384287531E+03  0.11311911800E+03 -0.33366742449E+03  0.37348230586E+03  0.47000000000E+01 0. -1.
        -13    1    4    4    0    0  0.12189373686E+02  0.15709256296E+02 -0.97097232872E+02  0.99112230303E+02  0.00000000000E+00 0.  1.
         14    1    4    4    0    0  0.19742526041E+02 -0.80196909569E+01  0.92833008263E+01  0.23243546454E+02  0.00000000000E+00 0. -1.
         -5    1    5    5    0  502 -0.10583878599E+03 -0.40968242139E+01  0.71044174308E+02  0.12762443846E+03  0.47000000000E+01 0.  1.
         11    1    6    6    0    0  0.12906979049E+02 -0.55526831550E+02 -0.65290731310E+01  0.57379856449E+02  0.00000000000E+00 0. -1.
        -12    1    6    6    0    0 -0.62842968100E+02 -0.61185027577E+02  0.36054383379E+02  0.94830189286E+02  0.00000000000E+00 0.  1.
</event>
<event>
12    1  0.8453150E-002  0.2032193E+03  0.7818608E-02  0.1149683E+00
         21   -1    0    0  501  502  0.00000000000E+00  0.00000000000E+00  0.24761223179E+03  0.24761223179E+03  0.00000000000E+00 0. -1.
         21   -1    0    0  502  503 -0.00000000000E+00 -0.00000000000E+00 -0.34322844830E+03  0.34322844830E+03  0.00000000000E+00 0.  1.
         -6    2    1    2    0  503 -0.13933899452E+02 -0.80924580495E+02 -0.26478380716E+03  0.32642479689E+03  0.17233613147E+03 0.  0.
        -24    2    3    3    0    0 -0.51007511362E+02 -0.57883721475E+02 -0.25941475804E+03  0.28219527538E+03  0.79911609487E+02 0.  0.
          6    2    1    2  501    0  0.13933899452E+02  0.80924580495E+02  0.16916759065E+03  0.26441588320E+03  0.18589014035E+03 0.  0.
         24    2    5    5    0    0  0.10456190923E+02  0.27767257306E+02  0.44160076544E+01  0.91202230258E+02  0.86127772371E+02 0.  0.
          5    1    5    5  501    0  0.34777085284E+01  0.53157323189E+02  0.16475158300E+03  0.17321365294E+03  0.47000000000E+01 0. -1.
        -13    1    6    6    0    0  0.50228622780E+01  0.56057526377E+02  0.18355387848E+02  0.59199625607E+02  0.00000000000E+00 0.  1.
         14    1    6    6    0    0  0.54333286451E+01 -0.28290269071E+02 -0.13939380193E+02  0.32002604651E+02  0.00000000000E+00 0. -1.
         -5    1    3    3    0  503  0.37073611910E+02 -0.23040859020E+02 -0.53690491188E+01  0.44229521509E+02  0.47000000000E+01 0.  1.
         13    1    4    4    0    0 -0.29689437053E+02  0.49385005870E+01 -0.26781905111E+02  0.40287987067E+02  0.00000000000E+00 0. -1.
        -14    1    4    4    0    0 -0.21318074309E+02 -0.62822222062E+02 -0.23263285293E+03  0.24190728831E+03  0.00000000000E+00 0.  1.
</event>
<event>
12    1  0.8453150E-002  0.1905314E+03  0.7818608E-02  0.1158069E+00
         21   -1    0    0  501  502  0.00000000000E+00  0.00000000000E+00  0.56399909414E+03  0.56399909414E+03  0.00000000000E+00 0.  1.
         21   -1    0    0  502  503 -0.00000000000E+00 -0.00000000000E+00 -0.20328517080E+03  0.20328517080E+03  0.00000000000E+00 0.  1.
         -6    2    1    2    0  503 -0.14473525278E+02  0.80144443070E+02 -0.13699058301E+03  0.23435652674E+03  0.17182533895E+03 0.  0.
        -24    2    3    3    0    0  0.38159724406E+02  0.69444508311E+01 -0.10749016501E+03  0.13937830557E+03  0.79798411790E+02 0.  0.
          6    2    1    2  501    0  0.14473525278E+02 -0.80144443070E+02  0.49770450634E+03  0.53292773820E+03  0.17224861050E+03 0.  0.
         24    2    5    5    0    0  0.53721537980E+02  0.25763855540E+01  0.27375671801E+03  0.29094045777E+03  0.82528588426E+02 0.  0.
          5    1    5    5  501    0 -0.39248012703E+02 -0.82720828624E+02  0.22394778834E+03  0.24198728043E+03  0.47000000000E+01 0. -1.
        -13    1    6    6    0    0  0.23056599224E+02 -0.36600756491E+02  0.17617423457E+03  0.18140722993E+03  0.00000000000E+00 0.  1.
         14    1    6    6    0    0  0.30664938756E+02  0.39177142045E+02  0.97582483432E+02  0.10953322784E+03  0.00000000000E+00 0. -1.
         -5    1    3    3    0  503 -0.52633249683E+02  0.73199992239E+02 -0.29500417993E+02  0.94978221176E+02  0.47000000000E+01 0.  1.
         13    1    4    4    0    0  0.31478997720E+02 -0.34521790255E+02 -0.55853575163E+02  0.72816915331E+02  0.00000000000E+00 0. -1.
        -14    1    4    4    0    0  0.66807266854E+01  0.41466241086E+02 -0.51636589850E+02  0.66561390236E+02  0.00000000000E+00 0.  1.
</event>
<event>
12    1  0.8453150E-002  0.2057648E+03  0.7818608E-02  0.1145105E+00
         21   -1    0    0  503  502  0.00000000000E+00  0.00000000000E+00  0.10553347032E+04  0.10553347032E+04  0.00000000000E+00 0.  1.
         21   -1    0    0  501  503 -0.00000000000E+00 -0.00000000000E+00 -0.21526792452E+03  0.21526792452E+03  0.00000000000E+00 0.  1.
          6    2    1    2  501    0 -0.33376525170E+02 -0.10618691435E+03 -0.15310710895E+03  0.25647793872E+03  0.17305921826E+03 0.  0.
         24    2    3    3    0    0 -0.51813293166E+02 -0.13607763164E+02 -0.12718106790E+03  0.15847251411E+03  0.77902022616E+02 0.  0.
         -6    2    1    2    0  502  0.33376525170E+02  0.10618691435E+03  0.99317388763E+03  0.10141246890E+04  0.17223489935E+03 0.  0.
        -24    2    5    5    0    0 -0.12864017183E+02  0.10401779627E+03  0.90431923530E+03  0.91382447927E+03  0.79351841223E+02 0.  0.
          5    1    3    3  501    0  0.18436767996E+02 -0.92579151186E+02 -0.25926041048E+02  0.98005424609E+02  0.47000000000E+01 0. -1.
        -11    1    4    4    0    0 -0.40653952338E+01  0.11481552097E+02 -0.94761553948E+02  0.95541119857E+02  0.00000000000E+00 0.  1.
         12    1    4    4    0    0 -0.47747897933E+02 -0.25089315260E+02 -0.32419513954E+02  0.62931394250E+02  0.00000000000E+00 0. -1.
         -5    1    5    5    0  502  0.46240542353E+02  0.21691180805E+01  0.88854652332E+02  0.10030020973E+03  0.47000000000E+01 0.  1.
         11    1    6    6    0    0 -0.28677700371E+02  0.31799946932E+02  0.15308092471E+03  0.15895727927E+03  0.00000000000E+00 0. -1.
        -12    1    6    6    0    0  0.15813683189E+02  0.72217849337E+02  0.75123831058E+03  0.75486720000E+03  0.00000000000E+00 0.  1.
</event>
<event>
12    1  0.8453150E-002  0.1746747E+03  0.7818608E-02  0.1173906E+00
         21   -1    0    0  503  502  0.00000000000E+00  0.00000000000E+00  0.13599693507E+03  0.13599693507E+03  0.00000000000E+00 0.  1.
         21   -1    0    0  501  503 -0.00000000000E+00 -0.00000000000E+00 -0.43135736223E+03  0.43135736223E+03  0.00000000000E+00 0.  1.
          6    2    1    2  501    0  0.30613940496E+02  0.11859081501E+02 -0.34547738096E+03  0.38563206061E+03  0.16816543714E+03 0.  0.
         24    2    3    3    0    0  0.29879431837E+02  0.61915008338E+02 -0.14784207230E+03  0.18170084538E+03  0.80197694273E+02 0.  0.
         -6    2    1    2    0  502 -0.30613940496E+02 -0.11859081501E+02  0.50116953793E+02  0.18172223670E+03  0.17156168304E+03 0.  0.
        -24    2    5    5    0    0  0.39064356738E+01 -0.42556897879E+02  0.82528741872E+02  0.12509515565E+03  0.83734431005E+02 0.  0.
          5    1    3    3  501    0  0.73450865828E+00 -0.50055926837E+02 -0.19763530866E+03  0.20393121522E+03  0.47000000000E+01 0. -1.
        -11    1    4    4    0    0  0.33331238713E+02  0.27051549405E+02 -0.13912723769E+03  0.14559926534E+03  0.00000000000E+00 0.  1.
         12    1    4    4    0    0 -0.34518068759E+01  0.34863458933E+02 -0.87148346084E+01  0.36101580045E+02  0.00000000000E+00 0. -1.
         -5    1    5    5    0  502 -0.34520376169E+02  0.30697816379E+02 -0.32411788079E+02  0.56627081046E+02  0.47000000000E+01 0.  1.
         13    1    6    6    0    0 -0.32412005694E+02 -0.27409093567E+01  0.86667865071E+01  0.33662499692E+02  0.00000000000E+00 0. -1.
        -14    1    6    6    0    0  0.36318441367E+02 -0.39815988523E+02  0.73861955364E+02  0.91432655959E+02  0.00000000000E+00 0.  1.
</event>
<event>
12    1  0.8453150E-002  0.1909877E+03  0.7818608E-02  0.1157711E+00
         21   -1    0    0  503  502  0.00000000000E+00  0.00000000000E+00  0.37900543242E+03  0.37900543242E+03  0.00000000000E+00 0. -1.
         21   -1    0    0  501  503 -0.00000000000E+00 -0.00000000000E+00 -0.18073862102E+03  0.18073862102E+03  0.00000000000E+00 0.  1.
          6    2    1    2  501    0 -0.46666807680E+02  0.65950520752E+02 -0.92491377572E+02  0.21220497738E+03  0.17305789601E+03 0.  0.
         24    2    3    3    0    0 -0.15353195009E+02  0.31862769020E+02 -0.12761643353E+03  0.15390937966E+03  0.78429499517E+02 0.  0.
         -6    2    1    2    0  502  0.46666807680E+02 -0.65950520752E+02  0.29075818897E+03  0.34753907606E+03  0.17238277990E+03 0.  0.
        -24    2    5    5    0    0  0.12277011878E+02  0.10273622425E+02  0.23048099658E+03  0.24434892158E+03  0.79552708025E+02 0.  0.
          5    1    3    3  501    0 -0.31313612672E+02  0.34087751733E+02  0.35125055961E+02  0.58295597715E+02  0.47000000000E+01 0. -1.
        -11    1    4    4    0    0 -0.30867493201E+02  0.45406106246E+02 -0.11997855996E+03  0.13194457727E+03  0.00000000000E+00 0.  1.
         12    1    4    4    0    0  0.15514298192E+02 -0.13543337226E+02 -0.76378735775E+01  0.21964802399E+02  0.00000000000E+00 0. -1.
         -5    1    5    5    0  502  0.34389795802E+02 -0.76224143177E+02  0.60277192391E+02  0.10319015448E+03  0.47000000000E+01 0.  1.
         13    1    6    6    0    0 -0.19527159374E+02 -0.13575639275E+02  0.17199730570E+03  0.17363375566E+03  0.00000000000E+00 0. -1.
        -14    1    6    6    0    0  0.31804171252E+02  0.23849261700E+02  0.58483690879E+02  0.70715165923E+02  0.00000000000E+00 0.  1.
</event>
<event>
12    1  0.8453150E-002  0.2068363E+03  0.7818608E-02  0.1144519E+00
         21   -1    0    0  503  502  0.00000000000E+00  0.00000000000E+00  0.67574537720E+03  0.67574537720E+03  0.00000000000E+00 0. -1.
         21   -1    0    0  501  503 -0.00000000000E+00 -0.00000000000E+00 -0.12969568528E+03  0.12969568528E+03  0.00000000000E+00 0. -1.
          6    2    1    2  501    0 -0.58538535712E+02 -0.10106581663E+03 -0.15805755005E+02  0.20743929890E+03  0.17070495418E+03 0.  0.
         24    2    3    3    0    0 -0.74579260660E+02 -0.86192307117E+02  0.41915283100E+02  0.14553344795E+03  0.80199211892E+02 0.  0.
         -6    2    1    2    0  502  0.58538535712E+02  0.10106581663E+03  0.56185544692E+03  0.59800176358E+03  0.16817700961E+03 0.  0.
        -24    2    5    5    0    0  0.27998026522E+02  0.80027158427E+02  0.17995619071E+03  0.21427727943E+03  0.79638472688E+02 0.  0.
          5    1    3    3  501    0  0.16040724948E+02 -0.14873509511E+02 -0.57721038105E+02  0.61905850951E+02  0.47000000000E+01 0. -1.
        -13    1    4    4    0    0 -0.15598254119E+02 -0.17900730523E+02  0.49580749075E+02  0.54972651051E+02  0.00000000000E+00 0.  1.
         14    1    4    4    0    0 -0.58981006541E+02 -0.68291576595E+02 -0.76654659742E+01  0.90560796899E+02  0.00000000000E+00 0. -1.
         -5    1    5    5    0  502  0.30540509190E+02  0.21038658201E+02  0.38189925621E+03  0.38372448415E+03  0.47000000000E+01 0.  1.
         11    1    6    6    0    0  0.42514209322E+02  0.69025025376E+02  0.17844981828E+03  0.19600063716E+03  0.00000000000E+00 0. -1.
        -12    1    6    6    0    0 -0.14516182799E+02  0.11002133051E+02  0.15063724214E+01  0.18276642269E+02  0.00000000000E+00 0.  1.
</event>
<event>
12    1  0.8453150E-002  0.1878391E+03  0.7818608E-02  0.1160631E+00
         21   -1    0    0  503  502  0.00000000000E+00  0.00000000000E+00  0.94478838313E+02  0.94478838313E+02  0.00000000000E+00 0. -1.
         21   -1    0    0  501  503 -0.00000000000E+00 -0.00000000000E+00 -0.57295868942E+03  0.57295868942E+03  0.00000000000E+00 0. -1.
          6    2    1    2  501    0 -0.12329713007E+01 -0.70222565531E+02 -0.43741139054E+03  0.47603808743E+03  0.17421483054E+03 0.  0.
         24    2    3    3    0    0  0.42964624245E+02 -0.83515660956E+02 -0.20410725323E+03  0.23816618004E+03  0.79009707838E+02 0.  0.
         -6    2    1    2    0  502  0.12329713007E+01  0.70222565531E+02 -0.41068460567E+02  0.19139944031E+03  0.17324664028E+03 0.  0.
        -24    2    5    5    0    0  0.13687489858E+02  0.11442019831E+03 -0.39961893784E+02  0.14522736794E+03  0.78833408429E+02 0.  0.
          5    1    3    3  501    0 -0.44197595546E+02  0.13293095425E+02 -0.23330413731E+03  0.23787190739E+03  0.47000000000E+01 0. -1.
        -13    1    4    4    0    0 -0.20686144119E+02 -0.39657361939E+02 -0.87430092934E+02  0.98207148747E+02  0.00000000000E+00 0.  1.
         14    1    4    4    0    0  0.63650768365E+02 -0.43858299017E+02 -0.11667716030E+03  0.13995903130E+03  0.00000000000E+00 0. -1.
         -5    1    5    5    0  502 -0.12454518558E+02 -0.44197632783E+02 -0.11065667826E+01  0.46172072362E+02  0.47000000000E+01 0.  1.
         13    1    6    6    0    0 -0.32692969863E+02  0.56481475006E+02 -0.21990239465E+02  0.68866232139E+02  0.00000000000E+00 0. -1.
        -14    1    6    6    0    0  0.46380459722E+02  0.57938723308E+02 -0.17971654319E+02  0.76361135806E+02  0.00000000000E+00 0.  1.
</event>
<event>
12    1  0.8453150E-002  0.2989323E+03  0.7818608E-02  0.1085817E+00
         21   -1    0    0  503  502  0.00000000000E+00  0.00000000000E+00  0.18540892087E+03  0.18540892087E+03  0.00000000000E+00 0. -1.
         21   -1    0    0  501  503 -0.00000000000E+00 -0.00000000000E+00 -0.50834643477E+03  0.50834643477E+03  0.00000000000E+00 0. -1.
          6    2    1    2  501    0 -0.11372308109E+03  0.21661710760E+03 -0.24135753930E+03  0.38420564368E+03  0.17176904373E+03 0.  0.
         24    2    3    3    0    0 -0.89849103486E+02  0.20976719285E+03 -0.25815541278E+03  0.35385524514E+03  0.80586480047E+02 0.  0.
         -6    2    1    2    0  502  0.11372308109E+03 -0.21661710760E+03 -0.81579974599E+02  0.30954971195E+03  0.17120111400E+03 0.  0.
        -24    2    5    5    0    0  0.24099221803E+02 -0.35498702339E+02 -0.59353787918E+00  0.91794790510E+02  0.81148018573E+02 0.  0.
          5    1    3    3  501    0 -0.23873977600E+02  0.68499147502E+01  0.16797873481E+02  0.30350398548E+02  0.47000000000E+01 0. -1.
        -11    1    4    4    0    0 -0.58460129071E+02  0.58217648380E+02 -0.58031728988E+02  0.10086903808E+03  0.00000000000E+00 0.  1.
         12    1    4    4    0    0 -0.31388974415E+02  0.15154954447E+03 -0.20012368379E+03  0.25298620706E+03  0.00000000000E+00 0. -1.
         -5    1    5    5    0  502  0.89623859283E+02 -0.18111840527E+03 -0.80986436720E+02  0.21775492144E+03  0.47000000000E+01 0.  1.
         13    1    6    6    0    0 -0.31345033112E+00 -0.57920726008E+02  0.51644787041E+01  0.58151359336E+02  0.00000000000E+00 0. -1.
        -14    1    6    6    0    0  0.24412672134E+02  0.22422023669E+02 -0.57580165833E+01  0.33643431174E+02  0.00000000000E+00 0.  1.
</event>
<event>
12    1  0.8453150E-002  0.2186864E+03  0.7818608E-02  0.1135161E+00
         21   -1    0    0  501  502  0.00000000000E+00  0.00000000000E+00  0.59535388162E+03  0.59535388162E+03  0.00000000000E+00 0. -1.
         21   -1    0    0  502  503 -0.00000000000E+00 -0.00000000000E+00 -0.87418650316E+02  0.87418650316E+02  0.00000000000E+00 0. -1.
         -6    2    1    2    0  503 -0.58414438718E+02 -0.12196356930E+03  0.35421666899E+03  0.41546533034E+03  0.16986651594E+03 0.  0.
        -24    2    3    3    0    0 -0.19590218539E+02 -0.13685019696E+03  0.33137924053E+03  0.36779385151E+03  0.79676615646E+02 0.  0.
          6    2    1    2  501    0  0.58414438718E+02  0.12196356930E+03  0.15371856232E+03  0.26730720160E+03  0.17186152780E+03 0.  0.
         24    2    5    5    0    0  0.37814702791E+02 -0.56776305429E+01  0.48122780864E+02  0.10030665047E+03  0.79268120037E+02 0.  0.
          5    1    5    5  501    0  0.20599735928E+02  0.12764119984E+03  0.10559578145E+03  0.16700055113E+03  0.47000000000E+01 0. -1.
        -13    1    6    6    0    0  0.44107843190E+02 -0.18975782395E+01 -0.69974186662E+01  0.44699737158E+02  0.00000000000E+00 0.  1.
         14    1    6    6    0    0 -0.62931403991E+01 -0.37800523033E+01  0.55120199531E+02  0.55606913309E+02  0.00000000000E+00 0. -1.
         -5    1    3    3    0  503 -0.38824220179E+02  0.14886627659E+02  0.22837428459E+02  0.47671478834E+02  0.47000000000E+01 0.  1.
         11    1    4    4    0    0 -0.43788026169E+02 -0.11857445304E+03  0.23611875846E+03  0.26782337509E+03  0.00000000000E+00 0. -1.
        -12    1    4    4    0    0  0.24197807630E+02 -0.18275743920E+02  0.95260482074E+02  0.99970476416E+02  0.00000000000E+00 0.  1.
</event>
<event>
12    1  0.8453150E-002  0.1717579E+03  0.7818608E-02  0.1177432E+00
         21   -1    0    0  503  502  0.00000000000E+00  0.00000000000E+00  0.12852822833E+04  0.12852822833E+04  0.00000000000E+00 0.  1.
         21   -1    0    0  501  503 -0.00000000000E+00 -0.00000000000E+00 -0.48132490330E+02  0.48132490330E+02  0.00000000000E+00 0.  1.
          6    2    1    2  501    0 -0.45578135323E+01 -0.24614838242E+02  0.12508059162E+03  0.20815983222E+03  0.16449528086E+03 0.  0.
         24    2    3    3    0    0  0.44166748812E+02 -0.59788474444E+02  0.72090705808E+02  0.12790221166E+03  0.75076910615E+02 0.  0.
         -6    2    1    2    0  502  0.45578135323E+01  0.24614838242E+02  0.11120692013E+04  0.11252549414E+04  0.16992383778E+03 0.  0.
        -24    2    5    5    0    0 -0.50084864494E+02 -0.23977500569E+02  0.57140859673E+03  0.57965159003E+03  0.80029789554E+02 0.  0.
          5    1    3    3  501    0 -0.48724562344E+02  0.35173636202E+02  0.52989885812E+02  0.80257620559E+02  0.47000000000E+01 0. -1.
        -11    1    4    4    0    0  0.18186158899E+02 -0.14789610836E+02 -0.14031392131E+02  0.27319387426E+02  0.00000000000E+00 0.  1.
         12    1    4    4    0    0  0.25980589913E+02 -0.44998863608E+02  0.86122097939E+02  0.10058282424E+03  0.00000000000E+00 0. -1.
         -5    1    5    5    0  502  0.54642678027E+02  0.48592338810E+02  0.54066060462E+03  0.54560335138E+03  0.47000000000E+01 0.  1.
         11    1    6    6    0    0 -0.19525569968E+02  0.28652583170E+02  0.15586229404E+03  0.15967239307E+03  0.00000000000E+00 0. -1.
        -12    1    6    6    0    0 -0.30559294527E+02 -0.52630083739E+02  0.41554630269E+03  0.41997919696E+03  0.00000000000E+00 0.  1.
</event>
<event>
12    1  0.8453150E-002  0.1835655E+03  0.7818608E-02  0.1165167E+00
         21   -1    0    0  501  502  0.00000000000E+00  0.00000000000E+00  0.28377532437E+03  0.28377532437E+03  0.00000000000E+00 0.  1.
         21   -1    0    0  502  503 -0.00000000000E+00 -0.00000000000E+00 -0.22376754927E+03  0.22376754927E+03  0.00000000000E+00 0.  1.
         -6    2    1    2    0  503  0.63642683379E+02 -0.13691518354E+01 -0.14542658495E+03  0.23419050926E+03  0.17217443856E+03 0.  0.
        -24    2    3    3    0    0  0.63766604165E+02  0.60328826679E+02 -0.11269001469E+03  0.16418744546E+03  0.80948938853E+02 0.  0.
          6    2    1    2  501    0 -0.63642683379E+02  0.13691518354E+01  0.20543436004E+03  0.27335236438E+03  0.16871862108E+03 0.  0.
         24    2    5    5    0    0  0.28290051667E+02 -0.15573913255E+02  0.86708820325E+02  0.12216857223E+03  0.79773847345E+02 0.  0.
          5    1    5    5  501    0 -0.91932735046E+02  0.16943065091E+02  0.11872553972E+03  0.15118379215E+03  0.47000000000E+01 0. -1.
        -13    1    6    6    0    0 -0.24187219701E+02 -0.72175916246E+01  0.66896986744E+01  0.26112588805E+02  0.00000000000E+00 0.  1.
         14    1    6    6    0    0  0.52477271368E+02 -0.83563216306E+01  0.80019121650E+02  0.96055983422E+02  0.00000000000E+00 0. -1.
         -5    1    3    3    0  503 -0.12392078577E+00 -0.61697978515E+02 -0.32736570260E+02  0.70003063801E+02  0.47000000000E+01 0.  1.
         11    1    4    4    0    0 -0.19140376998E+02  0.87955114215E+01 -0.27380882441E+02  0.34546024026E+02  0.00000000000E+00 0. -1.
        -12    1    4    4    0    0  0.82906981162E+02  0.51533315258E+02 -0.85309132250E+02  0.12964142144E+03  0.00000000000E+00 0.  1.
</event>
<event>
12    1  0.8453150E-002  0.2375845E+03  0.7818608E-02  0.1121593E+00
         21   -1    0    0  503  502  0.00000000000E+00  0.00000000000E+00  0.33727291782E+03  0.33727291782E+03  0.00000000000E+00 0. -1.
         21   -1    0    0  501  503 -0.00000000000E+00 -0.00000000000E+00 -0.17224775581E+03  0.17224775581E+03  0.00000000000E+00 0.  1.
          6    2    1    2  501    0  0.31287130435E+02  0.16013954753E+03  0.12877336191E+03  0.27023872348E+03  0.17269287685E+03 0.  0.
         24    2    3    3    0    0  0.61729842345E+01  0.18366035582E+03  0.96876227245E+02  0.22308508139E+03  0.81318620869E+02 0.  0.
         -6    2    1    2    0  502 -0.31287130435E+02 -0.16013954753E+03  0.36251800097E+02  0.23928195015E+03  0.17122528857E+03 0.  0.
        -24    2    5    5    0    0 -0.60773698355E+02 -0.39001294239E+02  0.48266274337E+02  0.11394092858E+03  0.73745227664E+02 0.  0.
          5    1    3    3  501    0  0.25114146201E+02 -0.23520808292E+02  0.31897134664E+02  0.47153642085E+02  0.47000000000E+01 0. -1.
        -13    1    4    4    0    0  0.24638998761E+00  0.81501082891E+01 -0.13425452961E+02  0.15707570161E+02  0.00000000000E+00 0.  1.
         14    1    4    4    0    0  0.59265942469E+01  0.17551024753E+03  0.11030168021E+03  0.20737751123E+03  0.00000000000E+00 0. -1.
         -5    1    5    5    0  502  0.29486567919E+02 -0.12113825329E+03 -0.12014474240E+02  0.12534102157E+03  0.47000000000E+01 0.  1.
         11    1    6    6    0    0 -0.45696861581E+02  0.14181682258E+02  0.24733158260E+02  0.53861418358E+02  0.00000000000E+00 0. -1.
        -12    1    6    6    0    0 -0.15076836774E+02 -0.53182976497E+02  0.23533116077E+02  0.60079510222E+02  0.00000000000E+00 0.  1.
</event>
<event>
12    1  0.8453150E-002  0.1782729E+03  0.7818608E-02  0.1169551E+00
         21   -1    0    0  501  502  0.00000000000E+00  0.00000000000E+00  0.75640888828E+02  0.75640888828E+02  0.00000000000E+00 0. -1.
         21   -1    0    0  502  503 -0.00000000000E+00 -0.00000000000E+00 -0.51755865732E+03  0.51755865732E+03  0.00000000000E+00 0. -1.
         -6    2    1    2    0  503 -0.12979157776E+02 -0.46261762587E+02 -0.35017820748E+03  0.39294530415E+03  0.17167593262E+03 0.  0.
        -24    2    3    3    0    0  0.24818814873E+02 -0.44854795806E+02 -0.34063690287E+03  0.35365417556E+03  0.80061538911E+02 0.  0.
          6    2    1    2  501    0  0.12979157776E+02  0.46261762587E+02 -0.91739561012E+02  0.20025424200E+03  0.17139721460E+03 0.  0.
         24    2    5    5    0    0  0.31376418091E+02 -0.10897549416E+02  0.52475978383E+01  0.86086623486E+02  0.79247291845E+02 0.  0.
          5    1    5    5  501    0 -0.18397260315E+02  0.57159312003E+02 -0.96987158850E+02  0.11416761852E+03  0.47000000000E+01 0. -1.
        -11    1    6    6    0    0  0.74287086723E+01 -0.41581495361E+02 -0.11402695729E+02  0.43751890689E+02  0.00000000000E+00 0.  1.
         12    1    6    6    0    0  0.23947709419E+02  0.30683945945E+02  0.16650293568E+02  0.42334732797E+02  0.00000000000E+00 0. -1.
         -5    1    3    3    0  503 -0.37797972649E+02 -0.14069667806E+01 -0.95413046048E+01  0.39291128585E+02  0.47000000000E+01 0.  1.
         13    1    4    4    0    0 -0.28385249765E+02 -0.21734588490E+02 -0.10258917130E+03  0.10864001477E+03  0.00000000000E+00 0. -1.
        -14    1    4    4    0    0  0.53204064639E+02 -0.23120207317E+02 -0.23804773157E+03  0.24501416079E+03  0.00000000000E+00 0.  1.
</event>
<event>
12    1  0.8453150E-002  0.2045420E+03  0.7818608E-02  0.1145966E+00
         21   -1    0    0  503  502  0.00000000000E+00  0.00000000000E+00  0.15514968341E+03  0.15514968341E+03  0.00000000000E+00 0. -1.
         21   -1    0    0  501  503 -0.00000000000E+00 -0.00000000000E+00 -0.59360956853E+03  0.59360956853E+03  0.00000000000E+00 0. -1.
          6    2    1    2  501    0  0.45509700661E+02 -0.99963957461E+02 -0.49581157163E+03  0.53634553051E+03  0.17254995767E+03 0.  0.
         24    2    3    3    0    0 -0.39836267842E+02 -0.54519265396E+02 -0.30409633495E+03  0.32157594152E+03  0.79857540059E+02 0.  0.
         -6    2    1    2    0  502 -0.45509700661E+02  0.99963957461E+02  0.57351686509E+02  0.21241372144E+03  0.17252955533E+03 0.  0.
        -24    2    5    5    0    0  0.24325744858E+02  0.10195556272E+03  0.18994141823E+02  0.13257421256E+03  0.78920629628E+02 0.  0.
          5    1    3    3  501    0  0.85345968504E+02 -0.45444692065E+02 -0.19171523668E+03  0.21476958899E+03  0.47000000000E+01 0. -1.
        -11    1    4    4    0    0 -0.31463024811E+02 -0.37383804362E+02 -0.63004988122E+02  0.79731419698E+02  0.00000000000E+00 0.  1.
         12    1    4    4    0    0 -0.83732430318E+01 -0.17135461034E+02 -0.24109134682E+03  0.24184452183E+03  0.00000000000E+00 0. -1.
         -5    1    5    5    0  502 -0.69835445519E+02 -0.19916052596E+01  0.38357544687E+02  0.79839508871E+02  0.47000000000E+01 0.  1.
         11    1    6    6    0    0  0.16292789606E+02  0.61621842613E+02  0.50048622793E+02  0.81040552340E+02  0.00000000000E+00 0. -1.
        -12    1    6    6    0    0  0.80329552525E+01  0.40333720107E+02 -0.31054480970E+02  0.51533660224E+02  0.00000000000E+00 0.  1.
</event>
<event>
12    1  0.8453150E-002  0.2631656E+03  0.7818608E-02  0.1105624E+00
         21   -1    0    0  501  502  0.00000000000E+00  0.00000000000E+00  0.53717030185E+03  0.53717030185E+03  0.00000000000E+00 0.  1.
         21   -1    0    0  502  503 -0.00000000000E+00 -0.00000000000E+00 -0.13152212520E+03  0.13152212520E+03  0.00000000000E+00 0.  1.
         -6    2    1    2    0  503  0.19543296093E+03  0.11036369867E+02  0.14501848669E+03  0.29830886522E+03  0.17216844633E+03 0.  0.
        -24    2    3    3    0    0  0.75009473963E+02  0.23510392406E+02  0.13662266854E+03  0.17685929868E+03  0.80214077538E+02 0.  0.
          6    2    1    2  501    0 -0.19543296093E+03 -0.11036369867E+02  0.26062968995E+03  0.37038356183E+03  0.17589856143E+03 0.  0.
         24    2    5    5    0    0 -0.18845743114E+03  0.23790996744E+02  0.26350327963E+03  0.33443984196E+03  0.79585266460E+02 0.  0.
          5    1    5    5  501    0 -0.69755297905E+01 -0.34827366611E+02 -0.28735896729E+01  0.35943719876E+02  0.47000000000E+01 0. -1.
        -11    1    6    6    0    0 -0.15977161499E+03 -0.11730262175E+02  0.20084027361E+03  0.25690734422E+03  0.00000000000E+00 0.  1.
         12    1    6    6    0    0 -0.28685816143E+02  0.35521258919E+02  0.62663006011E+02  0.77532497737E+02  0.00000000000E+00 0. -1.
         -5    1    3    3    0  503  0.12042348696E+03 -0.12474022539E+02  0.83958181508E+01  0.12144956654E+03  0.47000000000E+01 0.  1.
         11    1    4    4    0    0 -0.11601382588E+02  0.21538235787E+02  0.20113924041E+02  0.31671084906E+02  0.00000000000E+00 0. -1.
        -12    1    4    4    0    0  0.86610856551E+02  0.19721566188E+01  0.11650874450E+03  0.14518821377E+03  0.00000000000E+00 0.  1.
</event>
<event>
12    1  0.8453150E-002  0.2142394E+03  0.7818608E-02  0.1139872E+00
         21   -1    0    0  503  502  0.00000000000E+00  0.00000000000E+00  0.26617716630E+03  0.26617716630E+03  0.00000000000E+00 0.  1.
         21   -1    0    0  501  503 -0.00000000000E+00 -0.00000000000E+00 -0.18259839843E+03  0.18259839843E+03  0.00000000000E+00 0. -1.
          6    2    1    2  501    0  0.12122003309E+03 -0.38890580443E+02 -0.26840159878E+02  0.20775513440E+03  0.16197230633E+03 0.  0.
         24    2    3    3    0    0  0.12364316703E+03  0.11680980159E+02 -0.33286935951E+02  0.15650081515E+03  0.89221112901E+02 0.  0.
         -6    2    1    2    0  502 -0.12122003309E+03  0.38890580443E+02  0.11041892775E+03  0.24102043033E+03  0.17231289726E+03 0.  0.
        -24    2    5    5    0    0 -0.12601410769E+02 -0.31572496966E+02  0.43353612384E+02  0.95133841098E+02  0.77558325776E+02 0.  0.
          5    1    3    3  501    0 -0.24231339437E+01 -0.50571560601E+02  0.64467760730E+01  0.51254319247E+02  0.47000000000E+01 0. -1.
        -13    1    4    4    0    0  0.55060835632E+02 -0.35270575626E+02  0.37747607215E+01  0.65497770527E+02  0.00000000000E+00 0.  1.
         14    1    4    4    0    0  0.68582331399E+02  0.46951555785E+02 -0.37061696673E+02  0.91003044625E+02  0.00000000000E+00 0. -1.
         -5    1    5    5    0  502 -0.10861862232E+03  0.70463077408E+02  0.67065315362E+02  0.14588658923E+03  0.47000000000E+01 0.  1.
         11    1    6    6    0    0 -0.88597751223E+01 -0.47918768460E+02  0.55923691023E+02  0.74176567753E+02  0.00000000000E+00 0. -1.
        -12    1    6    6    0    0 -0.37416356463E+01  0.16346271494E+02 -0.12570078639E+02  0.20957273345E+02  0.00000000000E+00 0.  1.
</event>
<event>
12    1  0.8453150E-002  0.2163660E+03  0.7818608E-02  0.1137840E+00
         21   -1    0    0  503  502  0.00000000000E+00  0.00000000000E+00  0.16775875258E+03  0.16775875258E+03  0.00000000000E+00 0.  1.
         21   -1    0    0  501  503 -0.00000000000E+00 -0.00000000000E+00 -0.44908885433E+03  0.44908885433E+03  0.00000000000E+00 0.  1.
          6    2    1    2  501    0 -0.11675359186E+03 -0.35052207770E+02 -0.33362428621E+03  0.39425175595E+03  0.17108250712E+03 0.  0.
         24    2    3    3    0    0 -0.18836012125E+02  0.37163134849E+02 -0.14400873803E+03  0.16890967324E+03  0.77820737209E+02 0.  0.
         -6    2    1    2    0  502  0.11675359186E+03  0.35052207770E+02  0.52294184462E+02  0.22259585096E+03  0.17875730098E+03 0.  0.
        -24    2    5    5    0    0  0.24633539393E+02  0.75138306046E+02  0.48706253313E+02  0.12195807181E+03  0.79049958061E+02 0.  0.
          5    1    3    3  501    0 -0.97917579737E+02 -0.72215342619E+02 -0.18961554817E+03  0.22534208271E+03  0.47000000000E+01 0. -1.
        -11    1    4    4    0    0 -0.39289698628E+02  0.34846291636E+02 -0.49440347339E+02  0.72126918720E+02  0.00000000000E+00 0.  1.
         12    1    4    4    0    0  0.20453686503E+02  0.23168432127E+01 -0.94568390695E+02  0.96782754522E+02  0.00000000000E+00 0. -1.
         -5    1    5    5    0  502  0.92120052468E+02 -0.40086098275E+02  0.35879311494E+01  0.10063777915E+03  0.47000000000E+01 0.  1.
         11    1    6    6    0    0  0.50589646004E+00  0.55421868020E+02 -0.92174936571E+01  0.56185421377E+02  0.00000000000E+00 0. -1.
        -12    1    6    6    0    0  0.24127642933E+02  0.19716438026E+02  0.57923746970E+02  0.65772650433E+02  0.00000000000E+00 0.  1.
</event>
<event>
12    1  0.8453150E-002  0.1853665E+03  0.7818608E-02  0.1163576E+00
         21   -1    0    0  503  502  0.00000000000E+00  0.00000000000E+00  0.32093058526E+03  0.32093058526E+03  0.00000000000E+00 0. -1.
         21   -1    0    0  501  503 -0.00000000000E+00 -0.00000000000E+00 -0.31606963171E+03  0.31606963171E+03  0.00000000000E+00 0. -1.
          6    2    1    2  501    0 -0.55197954668E+02 -0.36832556521E+02 -0.25786399540E+03  0.31757610322E+03  0.17308174310E+03 0.  0.
         24    2    3    3    0    0  0.76974237846E+01  0.36717291100E+02 -0.11298752235E+03  0.14328700099E+03  0.79734400644E+02 0.  0.
         -6    2    1    2    0  502  0.55197954668E+02  0.36832556521E+02  0.26272494895E+03  0.31942411376E+03  0.16912691752E+03 0.  0.
        -24    2    5    5    0    0 -0.14480148621E+02  0.93790415402E+01  0.21842190244E+03  0.23228294385E+03  0.77133633481E+02 0.  0.
          5    1    3    3  501    0 -0.62895378453E+02 -0.73549847621E+02 -0.14487647304E+03  0.17428910223E+03  0.47000000000E+01 0. -1.
        -11    1    4    4    0    0 -0.27250317523E+02  0.40293831917E+02 -0.42771961548E+02  0.64773554714E+02  0.00000000000E+00 0.  1.
         12    1    4    4    0    0  0.34947741307E+02 -0.35765408166E+01 -0.70215560803E+02  0.78513446273E+02  0.00000000000E+00 0. -1.
         -5    1    5    5    0  502  0.69678103289E+02  0.27453514981E+02  0.44303046506E+02  0.87141169905E+02  0.47000000000E+01 0.  1.
         11    1    6    6    0    0 -0.11630555489E+02  0.41183705317E+02  0.16088254191E+03  0.16647690439E+03  0.00000000000E+00 0. -1.
        -12    1    6    6    0    0 -0.28495931315E+01 -0.31804663777E+02  0.57539360533E+02  0.65806039461E+02  0.00000000000E+00 0.  1.
</event>
<event>
12    1  0.8453150E-002  0.3201650E+03  0.7818608E-02  0.1075682E+00
         21   -1    0    0  501  502  0.00000000000E+00  0.00000000000E+00  0.73347491621E+03  0.73347491621E+03  0.00000000000E+00 0.  1.
         21   -1    0    0  502  503 -0.00000000000E+00 -0.00000000000E+00 -0.14205501632E+03  0.14205501632E+03  0.00000000000E+00 0. -1.
         -6    2    1    2    0  503 -0.26248287782E+03 -0.59030557634E+02  0.35662767723E+03  0.47925872659E+03  0.17356197442E+03 0.  0.
        -24    2    3    3    0    0 -0.12026433416E+03 -0.10269304654E+02  0.26969139278E+03  0.30552392437E+03  0.77733212514E+02 0.  0.
          6    2    1    2  501    0  0.26248287782E+03  0.59030557634E+02  0.23479222266E+03  0.39627120594E+03  0.17181854658E+03 0.  0.
         24    2    5    5    0    0  0.24506541928E+03  0.38358260128E+02  0.13641534302E+03  0.29413985818E+03  0.79879249568E+02 0.  0.
          5    1    5    5  501    0  0.17417458539E+02  0.20672297506E+02  0.98376879647E+02  0.10213134776E+03  0.47000000000E+01 0. -1.
        -13    1    6    6    0    0  0.11886199059E+03 -0.18166213700E+02  0.81970431773E+02  0.14552434784E+03  0.00000000000E+00 0.  1.
         14    1    6    6    0    0  0.12620342869E+03  0.56524473828E+02  0.54444911242E+02  0.14861551034E+03  0.00000000000E+00 0. -1.
         -5    1    3    3    0  503 -0.14221854365E+03 -0.48761252980E+02  0.86936284442E+02  0.17373480222E+03  0.47000000000E+01 0.  1.
         13    1    4    4    0    0 -0.15748079042E+02  0.27875474856E+02  0.68673385356E+02  0.75769901335E+02  0.00000000000E+00 0. -1.
        -14    1    4    4    0    0 -0.10451625512E+03 -0.38144779510E+02  0.20101800743E+03  0.22975402303E+03  0.00000000000E+00 0.  1.
</event>
<event>
12    1  0.8453150E-002  0.1891949E+03  0.7818608E-02  0.1159417E+00
         21   -1    0    0  503  502  0.00000000000E+00  0.00000000000E+00  0.83598920073E+03  0.83598920073E+03  0.00000000000E+00 0. -1.
         21   -1    0    0  501  503 -0.00000000000E+00 -0.00000000000E+00 -0.44620057570E+02  0.44620057570E+02  0.00000000000E+00 0. -1.
          6    2    1    2  501    0 -0.55680143198E+02  0.57075230876E+02  0.49056762169E+03  0.52578635784E+03  0.17157168273E+03 0.  0.
         24    2    3    3    0    0 -0.47769673565E+02 -0.93047986973E+01  0.13760584627E+03  0.16651906353E+03  0.80154279977E+02 0.  0.
         -6    2    1    2    0  502  0.55680143198E+02 -0.57075230876E+02  0.30080152147E+03  0.35482290046E+03  0.17046957220E+03 0.  0.
        -24    2    5    5    0    0  0.14069704996E+02  0.28830431724E+02  0.19147841293E+03  0.20961669021E+03  0.79031789835E+02 0.  0.
          5    1    3    3  501    0 -0.79104696329E+01  0.66380029574E+02  0.35296177542E+03  0.35926729432E+03  0.47000000000E+01 0. -1.
        -11    1    4    4    0    0 -0.66892764835E+02 -0.22714310936E+01  0.74235256031E+02  0.99953362246E+02  0.00000000000E+00 0.  1.
         12    1    4    4    0    0  0.19123091270E+02 -0.70333676036E+01  0.63370590242E+02  0.66565701282E+02  0.00000000000E+00 0. -1.
         -5    1    5    5    0  502  0.41610438201E+02 -0.85905662600E+02  0.10932310854E+03  0.14520621025E+03  0.47000000000E+01 0.  1.
         13    1    6    6    0    0 -0.30739353157E+02  0.26230365331E+02  0.91092668265E+02  0.99653470133E+02  0.00000000000E+00 0. -1.
        -14    1    6    6    0    0  0.44809058154E+02  0.26000663935E+01  0.10038574466E+03  0.10996322007E+03  0.00000000000E+00 0.  1.
</event>
