<event>
12    1  0.8728348E-002  0.1790809E+03  0.7818608E-02  0.1168956E+00
         21   -1    0    0  503  502  0.00000000000E+00  0.00000000000E+00  0.15419138028E+03  0.15419138028E+03  0.00000000000E+00 0. -1.
         21   -1    0    0  501  503 -0.00000000000E+00 -0.00000000000E+00 -0.25645693537E+03  0.25645693537E+03  0.00000000000E+00 0. -1.
          6    2    1    2  501    0  0.29860483007E+02 -0.37808550252E+02 -0.14140129065E+03  0.22734099902E+03  0.17137231375E+03 0.  0.
         24    2    3    3    0    0  0.24742381024E+02 -0.15038949414E+02 -0.12515475260E+01  0.85183726292E+02  0.80102093828E+02 0.  0.
         -6    2    1    2    0  502 -0.29860483007E+02  0.37808550252E+02  0.39135735558E+02  0.18330731663E+03  0.17247849610E+03 0.  0.
        -24    2    5    5    0    0 -0.28457640746E+02  0.87623895326E+02  0.51577096720E+02  0.13172811502E+03  0.78767474459E+02 0.  0.
          5    1    3    3  501    0  0.51181019832E+01 -0.22769600838E+02 -0.14014974313E+03  0.14215727273E+03  0.47000000000E+01 0. -1.
        -11    1    4    4    0    0  0.32819351545E+02  0.24476228484E+02 -0.13371847917E+02  0.43069733147E+02  0.00000000000E+00 0.  1.
         12    1    4    4    0    0 -0.80769705205E+01 -0.39515177898E+02  0.12120300391E+02  0.42113993145E+02  0.00000000000E+00 0. -1.
         -5    1    5    5    0  502 -0.14028422611E+01 -0.49815345074E+02 -0.12441361162E+02  0.51579201611E+02  0.47000000000E+01 0.  1.
         13    1    6    6    0    0 -0.12261085138E+02  0.88411820065E+02  0.13410726614E+02  0.90259801264E+02  0.00000000000E+00 0. -1.
        -14    1    6    6    0    0 -0.16196555608E+02 -0.78792473895E+00  0.38166370106E+02  0.41468313759E+02  0.00000000000E+00 0.  1.
</event>
<event>
12    1  0.8728348E-002  0.1829723E+03  0.7818608E-02  0.1164999E+00
         21   -1    0    0  501  502  0.00000000000E+00  0.00000000000E+00  0.51825539297E+02  0.51825539297E+02  0.00000000000E+00 0.  1.
         21   -1    0    0  502  503 -0.00000000000E+00 -0.00000000000E+00 -0.96164516546E+03  0.96164516546E+03  0.00000000000E+00 0.  1.
         -6    2    1    2    0  503 -0.26832610491E+02 -0.55968727890E+02 -0.74566733604E+03  0.76778815828E+03  0.17212318981E+03 0.  0.
        -24    2    3    3    0    0 -0.61326466766E+02 -0.13837482237E+02 -0.25046337341E+03  0.26957743721E+03  0.77380112393E+02 0.  0.
          6    2    1    2  501    0  0.26832610491E+02  0.55968727890E+02 -0.16415229013E+03  0.24568254648E+03  0.17193444043E+03 0.  0.
         24    2    5    5    0    0  0.35090673331E+02 -0.23372739121E+02 -0.32899732593E+02  0.92018667030E+02  0.74882590690E+02 0.  0.
          5    1    5    5  501    0 -0.82580628394E+01  0.79341467010E+02 -0.13125255753E+03  0.15366387945E+03  0.47000000000E+01 0. -1.
        -11    1    6    6    0    0  0.51106919016E+02  0.67527136258E+01 -0.16229129824E+02  0.54045360277E+02  0.00000000000E+00 0.  1.
         12    1    6    6    0    0 -0.16016245685E+02 -0.30125452747E+02 -0.16670602769E+02  0.37973306753E+02  0.00000000000E+00 0. -1.
         -5    1    3    3    0  503  0.34493856275E+02 -0.42131245652E+02 -0.49520396263E+03  0.49821072106E+03  0.47000000000E+01 0.  1.
         13    1    4    4    0    0 -0.57804386862E+02  0.20893070071E+02 -0.19075700932E+03  0.20041483010E+03  0.00000000000E+00 0. -1.
        -14    1    4    4    0    0 -0.35220799044E+01 -0.34730552308E+02 -0.59706364086E+02  0.69162607114E+02  0.00000000000E+00 0.  1.
</event>
<event>
12    1  0.8728348E-002  0.2466014E+03  0.7818608E-02  0.1115572E+00
         21   -1    0    0  503  502  0.00000000000E+00  0.00000000000E+00  0.10251364929E+04  0.10251364929E+04  0.00000000000E+00 0. -1.
         21   -1    0    0  501  503 -0.00000000000E+00 -0.00000000000E+00 -0.10162303072E+03  0.10162303072E+03  0.00000000000E+00 0. -1.
          6    2    1    2  501    0  0.81515126003E+01  0.17711145324E+03  0.97290271112E+02  0.26451999141E+03  0.17050077706E+03 0.  0.
         24    2    3    3    0    0 -0.56271844701E+02  0.13997104541E+03  0.60464221583E+02  0.18140545127E+03  0.80582886507E+02 0.  0.
         -6    2    1    2    0  502 -0.81515126003E+01 -0.17711145324E+03  0.82622319106E+03  0.86223953220E+03  0.17139817796E+03 0.  0.
        -24    2    5    5    0    0  0.43467320012E+02 -0.37137047610E+02  0.29274839744E+03  0.30827673242E+03  0.77873945134E+02 0.  0.
          5    1    3    3  501    0  0.64423357301E+02  0.37140407824E+02  0.36826049529E+02  0.83114540143E+02  0.47000000000E+01 0. -1.
        -11    1    4    4    0    0 -0.40627129941E+02  0.67383140173E+02  0.71522165269E+02  0.10633189264E+03  0.00000000000E+00 0.  1.
         12    1    4    4    0    0 -0.15644714760E+02  0.72587905240E+02 -0.11057943686E+02  0.75073558631E+02  0.00000000000E+00 0. -1.
         -5    1    5    5    0  502 -0.51618832612E+02 -0.13997440563E+03  0.53347479362E+03  0.55396279978E+03  0.47000000000E+01 0.  1.
         11    1    6    6    0    0  0.19154876336E+02 -0.47808414343E+02  0.26466253313E+03  0.26962716891E+03  0.00000000000E+00 0. -1.
        -12    1    6    6    0    0  0.24312443675E+02  0.10671366733E+02  0.28085864310E+02  0.38649563509E+02  0.00000000000E+00 0.  1.
</event>
<event>
12    1  0.8728348E-002  0.1736368E+03  0.7818608E-02  0.1174610E+00
         21   -1    0    0  501  502  0.00000000000E+00  0.00000000000E+00  0.87644210080E+02  0.87644210080E+02  0.00000000000E+00 0.  1.
         21   -1    0    0  502  503 -0.00000000000E+00 -0.00000000000E+00 -0.75875158532E+03  0.75875158532E+03  0.00000000000E+00 0.  1.
         -6    2    1    2    0  503  0.27818215509E+02  0.23776291229E+01 -0.65075800179E+03  0.67352484918E+03  0.17137747614E+03 0.  0.
        -24    2    3    3    0    0  0.56870394099E+02  0.58921433669E+02 -0.42566070937E+03  0.43957589755E+03  0.73033917676E+02 0.  0.
          6    2    1    2  501    0 -0.27818215509E+02 -0.23776291229E+01 -0.20349373446E+02  0.17287094622E+03  0.16938347267E+03 0.  0.
         24    2    5    5    0    0 -0.29618719077E+02  0.62566622373E+02 -0.21322809634E+02  0.10772468621E+03  0.79737663957E+02 0.  0.
          5    1    5    5  501    0  0.18005035678E+01 -0.64944251496E+02  0.97343618737E+00  0.65146260011E+02  0.47000000000E+01 0. -1.
        -13    1    6    6    0    0  0.24382066404E+02  0.31352119397E+02  0.49882510023E+01  0.40029029478E+02  0.00000000000E+00 0.  1.
         14    1    6    6    0    0 -0.54000785481E+02  0.31214502976E+02 -0.26311060636E+02  0.67695656732E+02  0.00000000000E+00 0. -1.
         -5    1    3    3    0  503 -0.29052178590E+02 -0.56543804547E+02 -0.22509729242E+03  0.23394895163E+03  0.47000000000E+01 0.  1.
         11    1    4    4    0    0 -0.13350521458E+02 -0.41968059044E+01 -0.35639732604E+02  0.38288903655E+02  0.00000000000E+00 0. -1.
        -12    1    4    4    0    0  0.70220915557E+02  0.63118239574E+02 -0.39002097677E+03  0.40128699390E+03  0.00000000000E+00 0.  1.
</event>
<event>
12    1  0.8728348E-002  0.2009180E+03  0.7818608E-02  0.1149129E+00
         21   -1    0    0  503  502  0.00000000000E+00  0.00000000000E+00  0.28697410332E+02  0.28697410332E+02  0.00000000000E+00 0. -1.
         21   -1    0    0  501  503 -0.00000000000E+00 -0.00000000000E+00 -0.32683496213E+04  0.32683496213E+04  0.00000000000E+00 0.  1.
          6    2    1    2  501    0  0.24979545223E+02 -0.98317604438E+02 -0.28644692652E+04  0.28714529950E+04  0.17253348152E+03 0.  0.
         24    2    3    3    0    0 -0.47286112243E+02 -0.48280672792E+02 -0.19194337137E+04  0.19223269215E+04  0.80919788268E+02 0.  0.
         -6    2    1    2    0  502 -0.24979545223E+02  0.98317604438E+02 -0.37518294578E+03  0.42559403663E+03  0.17342927144E+03 0.  0.
        -24    2    5    5    0    0 -0.31429724380E+02  0.12938238442E+03 -0.23723961474E+03  0.28397102316E+03  0.81420379647E+02 0.  0.
          5    1    3    3  501    0  0.72265657466E+02 -0.50036931646E+02 -0.94503555144E+03  0.94912607343E+03  0.47000000000E+01 0. -1.
        -13    1    4    4    0    0 -0.25140838877E+02 -0.25366168642E+02 -0.24494011105E+03  0.24753012401E+03  0.00000000000E+00 0.  1.
         14    1    4    4    0    0 -0.22145273365E+02 -0.22914504150E+02 -0.16744936027E+04  0.16747967975E+04  0.00000000000E+00 0. -1.
         -5    1    5    5    0  502  0.64501791567E+01 -0.31064779982E+02 -0.13794333103E+03  0.14162301347E+03  0.47000000000E+01 0.  1.
         13    1    6    6    0    0 -0.22269231684E+02  0.86877827733E+02 -0.77863905077E+02  0.11877063335E+03  0.00000000000E+00 0. -1.
        -14    1    6    6    0    0 -0.91604926958E+01  0.42504556687E+02 -0.15937570966E+03  0.16520038982E+03  0.00000000000E+00 0.  1.
</event>
<event>
12    1  0.8728348E-002  0.2075642E+03  0.7818608E-02  0.1143655E+00
         21   -1    0    0  503  502  0.00000000000E+00  0.00000000000E+00  0.42731165453E+03  0.42731165453E+03  0.00000000000E+00 0. -1.
         21   -1    0    0  501  503 -0.00000000000E+00 -0.00000000000E+00 -0.10562958933E+03  0.10562958933E+03  0.00000000000E+00 0. -1.
          6    2    1    2  501    0 -0.96849182694E+02  0.62692765265E+02  0.10223354114E+03  0.23137542068E+03  0.17254779440E+03 0.  0.
         24    2    3    3    0    0 -0.55002462690E+02 -0.32206902874E+02  0.35947878644E+02  0.10819679412E+03  0.79697809153E+02 0.  0.
         -6    2    1    2    0  502  0.96849182694E+02 -0.62692765265E+02  0.21944852406E+03  0.30156582318E+03  0.17168035414E+03 0.  0.
        -24    2    5    5    0    0  0.30670019600E+02 -0.70592119159E+02  0.51888402926E+02  0.12117578573E+03  0.77892665244E+02 0.  0.
          5    1    3    3  501    0 -0.41846720004E+02  0.94899668139E+02  0.66285662500E+02  0.12317862656E+03  0.47000000000E+01 0. -1.
        -11    1    4    4    0    0 -0.43373462500E+02  0.50893171213E+01  0.50267359412E+02  0.66588030608E+02  0.00000000000E+00 0.  1.
         12    1    4    4    0    0 -0.11629000190E+02 -0.37296219996E+02 -0.14319480768E+02  0.41608763510E+02  0.00000000000E+00 0. -1.
         -5    1    5    5    0  502  0.66179163094E+02  0.78993538942E+01  0.16756012113E+03  0.18039003745E+03  0.47000000000E+01 0.  1.
         11    1    6    6    0    0  0.49889737400E+02 -0.72642554315E+02  0.51018641581E+02  0.10182744416E+03  0.00000000000E+00 0. -1.
        -12    1    6    6    0    0 -0.19219717800E+02  0.20504351559E+01  0.86976134533E+00  0.19348341568E+02  0.00000000000E+00 0.  1.
</event>
<event>
12    1  0.8728348E-002  0.2486849E+03  0.7818608E-02  0.1114754E+00
         21   -1    0    0  501  502  0.00000000000E+00  0.00000000000E+00  0.54843377178E+03  0.54843377178E+03  0.00000000000E+00 0. -1.
         21   -1    0    0  502  503 -0.00000000000E+00 -0.00000000000E+00 -0.12415429853E+03  0.12415429853E+03  0.00000000000E+00 0. -1.
         -6    2    1    2    0  503 -0.72293768121E+01  0.16932678795E+03  0.10429048629E+03  0.26966769029E+03  0.18198992458E+03 0.  0.
        -24    2    3    3    0    0  0.51433338196E+02  0.89477342764E+02  0.93999781680E+01  0.13239589217E+03  0.82393746892E+02 0.  0.
          6    2    1    2  501    0  0.72293768121E+01 -0.16932678795E+03  0.31998898695E+03  0.40292038002E+03  0.17671461699E+03 0.  0.
         24    2    5    5    0    0  0.72186820531E+02 -0.82469892169E+02  0.17247806104E+03  0.21976702050E+03  0.80849499608E+02 0.  0.
          5    1    5    5  501    0 -0.64957443719E+02 -0.86856895779E+02  0.14751092591E+03  0.18315335951E+03  0.47000000000E+01 0. -1.
        -11    1    6    6    0    0  0.48840092976E+02 -0.10264324814E+02  0.29702034847E+02  0.58076862173E+02  0.00000000000E+00 0.  1.
         12    1    6    6    0    0  0.23346727556E+02 -0.72205567355E+02  0.14277602620E+03  0.16169015833E+03  0.00000000000E+00 0. -1.
         -5    1    3    3    0  503 -0.58662715008E+02  0.79849445184E+02  0.94890508125E+02  0.13727179813E+03  0.47000000000E+01 0.  1.
         11    1    4    4    0    0  0.58037147815E+01  0.85756841796E+02  0.10565985334E+02  0.86599994609E+02  0.00000000000E+00 0. -1.
        -12    1    4    4    0    0  0.45629623415E+02  0.37205009680E+01 -0.11660071655E+01  0.45795897558E+02  0.00000000000E+00 0.  1.
</event>
<event>
12    1  0.8728348E-002  0.1819259E+03  0.7818608E-02  0.1166360E+00
         21   -1    0    0  501  502  0.00000000000E+00  0.00000000000E+00  0.88225245097E+02  0.88225245097E+02  0.00000000000E+00 0. -1.
         21   -1    0    0  502  503 -0.00000000000E+00 -0.00000000000E+00 -0.11592588447E+04  0.11592588447E+04  0.00000000000E+00 0. -1.
         -6    2    1    2    0  503 -0.26553093064E+02  0.50793606062E+02 -0.10488377474E+04  0.10642091867E+04  0.17086695266E+03 0.  0.
        -24    2    3    3    0    0  0.30572050180E+02 -0.12558442981E+02 -0.37695467148E+03  0.38691625021E+03  0.80727910805E+02 0.  0.
          6    2    1    2  501    0  0.26553093064E+02 -0.50793606062E+02 -0.22195852218E+02  0.18327490311E+03  0.17266145224E+03 0.  0.
         24    2    5    5    0    0  0.16582615331E+02 -0.62212589158E+02 -0.76004327812E+02  0.12717458541E+03  0.79065339727E+02 0.  0.
          5    1    5    5  501    0  0.99704777329E+01  0.11418983097E+02  0.53808475594E+02  0.56100317708E+02  0.47000000000E+01 0. -1.
        -13    1    6    6    0    0  0.77929713246E+01  0.17841654939E+02 -0.57447306267E+01  0.20299186757E+02  0.00000000000E+00 0.  1.
         14    1    6    6    0    0  0.87896440061E+01 -0.80054244098E+02 -0.70259597186E+02  0.10687539865E+03  0.00000000000E+00 0. -1.
         -5    1    3    3    0  503 -0.57125143244E+02  0.63352049043E+02 -0.67188307592E+03  0.67729293649E+03  0.47000000000E+01 0.  1.
         11    1    4    4    0    0 -0.84441456440E+01  0.27980096530E+02 -0.16779022667E+03  0.17031661564E+03  0.00000000000E+00 0. -1.
        -12    1    4    4    0    0  0.39016195824E+02 -0.40538539511E+02 -0.20916444481E+03  0.21659963457E+03  0.00000000000E+00 0.  1.
</event>
<event>
12    1  0.8728348E-002  0.2153319E+03  0.7818608E-02  0.1138732E+00
         21   -1    0    0  501  502  0.00000000000E+00  0.00000000000E+00  0.34046446329E+03  0.34046446329E+03  0.00000000000E+00 0. -1.
         21   -1    0    0  502  503 -0.00000000000E+00 -0.00000000000E+00 -0.13194464659E+03  0.13194464659E+03  0.00000000000E+00 0.  1.
         -6    2    1    2    0  503 -0.12999610662E+03  0.20497225624E+02  0.10477495920E+03  0.23946948247E+03  0.17043684156E+03 0.  0.
        -24    2    3    3    0    0 -0.15971508151E+03  0.99323770118E-01  0.93181368931E+02  0.20131462427E+03  0.79598324736E+02 0.  0.
          6    2    1    2  501    0  0.12999610662E+03 -0.20497225624E+02  0.10374485750E+03  0.23293962741E+03  0.16179848753E+03 0.  0.
         24    2    5    5    0    0  0.11416249281E+03 -0.58762081005E+02  0.11503250400E+03  0.18976088904E+03  0.79313687996E+02 0.  0.
          5    1    5    5  501    0  0.15833613813E+02  0.38264855381E+02 -0.11287646505E+02  0.43178738372E+02  0.47000000000E+01 0. -1.
        -13    1    6    6    0    0  0.37285396309E+02 -0.56744575112E+02  0.27530144949E+02  0.73267021664E+02  0.00000000000E+00 0.  1.
         14    1    6    6    0    0  0.76877096499E+02 -0.20175058929E+01  0.87502359051E+02  0.11649386737E+03  0.00000000000E+00 0. -1.
         -5    1    3    3    0  503  0.29718974892E+02  0.20397901854E+02  0.11593590270E+02  0.38154858196E+02  0.47000000000E+01 0.  1.
         11    1    4    4    0    0 -0.11546466150E+02 -0.20238444613E+02  0.32329133119E+02  0.39850826455E+02  0.00000000000E+00 0. -1.
        -12    1    4    4    0    0 -0.14816861536E+03  0.20337768383E+02  0.60852235813E+02  0.16146379781E+03  0.00000000000E+00 0.  1.
</event>
<event>
12    1  0.8728348E-002  0.2252173E+03  0.7818608E-02  0.1130830E+00
         21   -1    0    0  503  502  0.00000000000E+00  0.00000000000E+00  0.19676679258E+03  0.19676679258E+03  0.00000000000E+00 0.  1.
         21   -1    0    0  501  503 -0.00000000000E+00 -0.00000000000E+00 -0.26702303545E+03  0.26702303545E+03  0.00000000000E+00 0. -1.
          6    2    1    2  501    0  0.11817996681E+03 -0.76949874459E+02  0.17821893893E+02  0.22592129317E+03  0.17559904063E+03 0.  0.
         24    2    3    3    0    0  0.87787320876E+02  0.50656596683E+01  0.36848275439E+02  0.13628673533E+03  0.97385852201E+02 0.  0.
         -6    2    1    2    0  502 -0.11817996681E+03  0.76949874459E+02 -0.88078136765E+02  0.23786853485E+03  0.17010553772E+03 0.  0.
        -24    2    5    5    0    0 -0.57672435216E+02 -0.11286196097E+02 -0.84566085229E+02  0.13071821972E+03  0.80512993918E+02 0.  0.
          5    1    3    3  501    0  0.30392645935E+02 -0.82015534127E+02 -0.19026381546E+02  0.89634557844E+02  0.47000000000E+01 0. -1.
        -13    1    4    4    0    0 -0.15631198558E+02  0.92455903704E+01  0.26695215781E+02  0.32286992044E+02  0.00000000000E+00 0.  1.
         14    1    4    4    0    0  0.10341851943E+03 -0.41799307020E+01  0.10153059658E+02  0.10399974328E+03  0.00000000000E+00 0. -1.
         -5    1    5    5    0  502 -0.60507531595E+02  0.88236070556E+02 -0.35120515358E+01  0.10715031513E+03  0.47000000000E+01 0.  1.
         13    1    6    6    0    0 -0.74497655464E+02 -0.16642400524E+02 -0.83344994729E+02  0.11301884051E+03  0.00000000000E+00 0. -1.
        -14    1    6    6    0    0  0.16825220248E+02  0.53562044270E+01 -0.12210905002E+01  0.17699379206E+02  0.00000000000E+00 0.  1.
</event>
<event>
12    1  0.8728348E-002  0.1819135E+03  0.7818608E-02  0.1166413E+00
         21   -1    0    0  503  502  0.00000000000E+00  0.00000000000E+00  0.98201877087E+03  0.98201877087E+03  0.00000000000E+00 0. -1.
         21   -1    0    0  501  503 -0.00000000000E+00 -0.00000000000E+00 -0.87212502654E+02  0.87212502654E+02  0.00000000000E+00 0. -1.
          6    2    1    2  501    0  0.44099745995E+02 -0.40611444329E+02  0.26387548541E+02  0.18196378796E+03  0.16976583992E+03 0.  0.
         24    2    3    3    0    0  0.60865756010E+02 -0.13670639932E+02  0.72809004839E+02  0.12553730802E+03  0.81036645218E+02 0.  0.
         -6    2    1    2    0  502 -0.44099745995E+02  0.40611444329E+02  0.86841871967E+03  0.88726748556E+03  0.17175110263E+03 0.  0.
        -24    2    5    5    0    0  0.28556102477E+02  0.59202982559E+02  0.41124321626E+03  0.42395760165E+03  0.79363851628E+02 0.  0.
          5    1    3    3  501    0 -0.16766010015E+02 -0.26940804397E+02 -0.46421456298E+02  0.56426479938E+02  0.47000000000E+01 0. -1.
        -11    1    4    4    0    0  0.72867122402E+01 -0.41266687625E+02  0.27235804043E+02  0.49978242313E+02  0.00000000000E+00 0.  1.
         12    1    4    4    0    0  0.53579043770E+02  0.27596047693E+02  0.45573200796E+02  0.75559065705E+02  0.00000000000E+00 0. -1.
         -5    1    5    5    0  502 -0.72655848471E+02 -0.18591538230E+02  0.45717550341E+03  0.46330988391E+03  0.47000000000E+01 0.  1.
         13    1    6    6    0    0 -0.68564817100E+01  0.63549895630E+02  0.20776208717E+03  0.21737222786E+03  0.00000000000E+00 0. -1.
        -14    1    6    6    0    0  0.35412584187E+02 -0.43469130711E+01  0.20348112909E+03  0.20658537380E+03  0.00000000000E+00 0.  1.
</event>
<event>
12    1  0.8728348E-002  0.2285402E+03  0.7818608E-02  0.1128376E+00
         21   -1    0    0  503  502  0.00000000000E+00  0.00000000000E+00  0.61132017203E+03  0.61132017203E+03  0.00000000000E+00 0.  1.
         21   -1    0    0  501  503 -0.00000000000E+00 -0.00000000000E+00 -0.44525579292E+03  0.44525579292E+03  0.00000000000E+00 0. -1.
          6    2    1    2  501    0 -0.46829428164E+02  0.13643706776E+03 -0.39297055592E+03  0.45263002969E+03  0.17216276356E+03 0.  0.
         24    2    3    3    0    0 -0.36375442470E+02  0.12516068896E+03 -0.16932940259E+03  0.22841161386E+03  0.80691064479E+02 0.  0.
         -6    2    1    2    0  502  0.46829428164E+02 -0.13643706776E+03  0.55903493504E+03  0.60394593526E+03  0.17726411177E+03 0.  0.
        -24    2    5    5    0    0 -0.58715339713E+01 -0.56832384527E+02  0.44166500590E+03  0.45257854357E+03  0.80591350756E+02 0.  0.
          5    1    3    3  501    0 -0.10453985694E+02  0.11276378794E+02 -0.22364115333E+03  0.22421841583E+03  0.47000000000E+01 0. -1.
        -13    1    4    4    0    0 -0.49565751259E+02  0.33934996038E+02 -0.53998504756E+02  0.80772434468E+02  0.00000000000E+00 0.  1.
         14    1    4    4    0    0  0.13190308789E+02  0.91225692926E+02 -0.11533089783E+03  0.14763917939E+03  0.00000000000E+00 0. -1.
         -5    1    5    5    0  502  0.52700962135E+02 -0.79604683230E+02  0.11736992914E+03  0.15136739169E+03  0.47000000000E+01 0.  1.
         11    1    6    6    0    0  0.10484026551E+02  0.13567785507E+02  0.29470752771E+02  0.34095819175E+02  0.00000000000E+00 0. -1.
        -12    1    6    6    0    0 -0.16355560523E+02 -0.70400170034E+02  0.41219425313E+03  0.41848272439E+03  0.00000000000E+00 0.  1.
</event>
<event>
12    1  0.8728348E-002  0.2069759E+03  0.7818608E-02  0.1146715E+00
         21   -1    0    0  501  502  0.00000000000E+00  0.00000000000E+00  0.87930168433E+02  0.87930168433E+02  0.00000000000E+00 0.  1.
         21   -1    0    0  502  503 -0.00000000000E+00 -0.00000000000E+00 -0.11608287993E+04  0.11608287993E+04  0.00000000000E+00 0.  1.
         -6    2    1    2    0  503  0.17745477184E+02 -0.88587748331E+02 -0.10294507525E+04  0.10500513689E+04  0.18621582708E+03 0.  0.
        -24    2    3    3    0    0 -0.54640462912E+01 -0.16556493596E+02 -0.18897822428E+03  0.20616550906E+03  0.80544860739E+02 0.  0.
          6    2    1    2  501    0 -0.17745477184E+02  0.88587748331E+02 -0.43447878344E+02  0.19870759888E+03  0.17156427543E+03 0.  0.
         24    2    5    5    0    0 -0.38319065643E+01 -0.20986278699E+02 -0.13367207420E+02  0.84134514731E+02  0.80279679455E+02 0.  0.
          5    1    5    5  501    0 -0.13913570620E+02  0.10957402703E+03 -0.30080670924E+02  0.11457308414E+03  0.47000000000E+01 0. -1.
        -13    1    6    6    0    0 -0.34465361242E+02  0.10570759571E+02  0.51483194674E+01  0.36415755886E+02  0.00000000000E+00 0.  1.
         14    1    6    6    0    0  0.30633454677E+02 -0.31557038269E+02 -0.18515526888E+02  0.47718758845E+02  0.00000000000E+00 0. -1.
         -5    1    3    3    0  503  0.23209523475E+02 -0.72031254736E+02 -0.84047252825E+03  0.84388585980E+03  0.47000000000E+01 0.  1.
         11    1    4    4    0    0  0.35370070936E+02 -0.34779844738E+01 -0.54915372881E+02  0.65412815814E+02  0.00000000000E+00 0. -1.
        -12    1    4    4    0    0 -0.40834117227E+02 -0.13078509122E+02 -0.13406285140E+03  0.14075269325E+03  0.00000000000E+00 0.  1.
</event>
<event>
12    1  0.8728348E-002  0.3650097E+03  0.7818608E-02  0.1057040E+00
         21   -1    0    0  501  502  0.00000000000E+00  0.00000000000E+00  0.17369585128E+04  0.17369585128E+04  0.00000000000E+00 0. -1.
         21   -1    0    0  502  503 -0.00000000000E+00 -0.00000000000E+00 -0.17234010408E+03  0.17234010408E+03  0.00000000000E+00 0.  1.
         -6    2    1    2    0  503 -0.32122355315E+03  0.20507980097E+02  0.69858719229E+02  0.37163462904E+03  0.17212468882E+03 0.  0.
        -24    2    3    3    0    0 -0.40910592403E+02 -0.35495302752E+01 -0.12734014903E+02  0.78380866063E+02  0.65537235930E+02 0.  0.
          6    2    1    2  501    0  0.32122355315E+03 -0.20507980097E+02  0.14947596895E+04  0.15376639879E+04  0.16278471009E+03 0.  0.
         24    2    5    5    0    0  0.24260994343E+03  0.68755273959E+01  0.13133196806E+04  0.13379829348E+04  0.80516413530E+02 0.  0.
          5    1    5    5  501    0  0.78613609724E+02 -0.27383507493E+02  0.18144000888E+03  0.19968105303E+03  0.47000000000E+01 0. -1.
        -11    1    6    6    0    0 -0.47738343043E+01  0.50976867693E+00  0.73840942454E+01  0.88076220341E+01  0.00000000000E+00 0.  1.
         12    1    6    6    0    0  0.24738377773E+03  0.63657587190E+01  0.13059355864E+04  0.13291753128E+04  0.00000000000E+00 0. -1.
         -5    1    3    3    0  503 -0.28031296075E+03  0.24057510373E+02  0.82592734133E+02  0.29325376298E+03  0.47000000000E+01 0.  1.
         11    1    4    4    0    0 -0.36082391299E+02 -0.12256215330E+02 -0.36404781987E+02  0.52701631166E+02  0.00000000000E+00 0. -1.
        -12    1    4    4    0    0 -0.48282011041E+01  0.87066850547E+01  0.23670767084E+02  0.25679234897E+02  0.00000000000E+00 0.  1.
</event>
<event>
12    1  0.8728348E-002  0.3194344E+03  0.7818608E-02  0.1076469E+00
         21   -1    0    0  501  502  0.00000000000E+00  0.00000000000E+00  0.41039329759E+03  0.41039329759E+03  0.00000000000E+00 0. -1.
         21   -1    0    0  502  503 -0.00000000000E+00 -0.00000000000E+00 -0.34957925362E+03  0.34957925362E+03  0.00000000000E+00 0.  1.
         -6    2    1    2    0  503 -0.26818400620E+03  0.18897849014E+02 -0.17735190971E+03  0.36536565287E+03  0.17250672608E+03 0.  0.
        -24    2    3    3    0    0 -0.75776136571E+02 -0.33029389790E+02 -0.96083989752E+02  0.15008957144E+03  0.80385215707E+02 0.  0.
          6    2    1    2  501    0  0.26818400620E+03 -0.18897849014E+02  0.23816595368E+03  0.39460689834E+03  0.16343742793E+03 0.  0.
         24    2    5    5    0    0  0.13976378556E+03  0.16809903104E+02  0.19850338768E+03  0.25545947374E+03  0.77713957612E+02 0.  0.
          5    1    5    5  501    0  0.12842022064E+03 -0.35707752118E+02  0.39662565993E+02  0.13914742459E+03  0.47000000000E+01 0. -1.
        -11    1    6    6    0    0  0.13318114023E+03  0.26917541160E+02  0.13762280383E+03  0.19339546600E+03  0.00000000000E+00 0.  1.
         12    1    6    6    0    0  0.65826453246E+01 -0.10107638056E+02  0.60880583857E+02  0.62064007744E+02  0.00000000000E+00 0. -1.
         -5    1    3    3    0  503 -0.19240786963E+03  0.51927238804E+02 -0.81267919960E+02  0.21527608144E+03  0.47000000000E+01 0.  1.
         11    1    4    4    0    0 -0.74899371049E+00 -0.21832592627E+02 -0.64179233516E+02  0.67795258736E+02  0.00000000000E+00 0. -1.
        -12    1    4    4    0    0 -0.75027142861E+02 -0.11196797163E+02 -0.31904756236E+02  0.82294312702E+02  0.00000000000E+00 0.  1.
</event>
<event>
12    1  0.8728348E-002  0.2196994E+03  0.7818608E-02  0.1134336E+00
         21   -1    0    0  501  502  0.00000000000E+00  0.00000000000E+00  0.12299451447E+03  0.12299451447E+03  0.00000000000E+00 0. -1.
         21   -1    0    0  502  503 -0.00000000000E+00 -0.00000000000E+00 -0.39607483550E+03  0.39607483550E+03  0.00000000000E+00 0.  1.
         -6    2    1    2    0  503 -0.10288184119E+03  0.89364737719E+02 -0.16834922891E+03  0.27678383918E+03  0.17232846882E+03 0.  0.
        -24    2    3    3    0    0 -0.22755220940E+02 -0.17933752339E+02 -0.56199954157E+02  0.10204749188E+03  0.80098915092E+02 0.  0.
          6    2    1    2  501    0  0.10288184119E+03 -0.89364737719E+02 -0.10473109211E+03  0.24228551079E+03  0.17077159450E+03 0.  0.
         24    2    5    5    0    0  0.30485052130E+02 -0.65025912882E+02  0.58725862033E+01  0.10779039148E+03  0.80165912193E+02 0.  0.
          5    1    5    5  501    0  0.72396789056E+02 -0.24338824837E+02 -0.11060367832E+03  0.13449511931E+03  0.47000000000E+01 0. -1.
        -13    1    6    6    0    0 -0.26446417452E+02 -0.12228857268E+02 -0.44061305844E+01  0.29468151161E+02  0.00000000000E+00 0.  1.
         14    1    6    6    0    0  0.56931469582E+02 -0.52797055614E+02  0.10278716788E+02  0.78322240322E+02  0.00000000000E+00 0. -1.
         -5    1    3    3    0  503 -0.80126620245E+02  0.10729849006E+03 -0.11214927475E+03  0.17473634730E+03  0.47000000000E+01 0.  1.
         11    1    4    4    0    0 -0.14069771260E+02 -0.14542163861E+02 -0.76807799796E+02  0.79428402367E+02  0.00000000000E+00 0. -1.
        -12    1    4    4    0    0 -0.86854496800E+01 -0.33915884782E+01  0.20607845639E+02  0.22619089514E+02  0.00000000000E+00 0.  1.
</event>
<event>
12    1  0.8728348E-002  0.2004272E+03  0.7818608E-02  0.1149526E+00
         21   -1    0    0  501  502  0.00000000000E+00  0.00000000000E+00  0.38033443507E+02  0.38033443507E+02  0.00000000000E+00 0. -1.
         21   -1    0    0  502  503 -0.00000000000E+00 -0.00000000000E+00 -0.10539253359E+04  0.10539253359E+04  0.00000000000E+00 0.  1.
         -6    2    1    2    0  503 -0.34771076762E+02 -0.95519605274E+02 -0.52860525496E+03  0.56532697045E+03  0.17273692473E+03 0.  0.
        -24    2    3    3    0    0  0.83281305168E+01 -0.31760171323E+02 -0.12827699163E+03  0.15764128819E+03  0.85543690138E+02 0.  0.
          6    2    1    2  501    0  0.34771076762E+02  0.95519605274E+02 -0.48728663742E+03  0.52663180895E+03  0.17192955657E+03 0.  0.
         24    2    5    5    0    0  0.64073673336E+02  0.90178719355E+02 -0.47500335137E+03  0.49407207393E+03  0.79002489741E+02 0.  0.
          5    1    5    5  501    0 -0.29302596573E+02  0.53408859199E+01 -0.12283286045E+02  0.32559735018E+02  0.47000000000E+01 0. -1.
        -11    1    6    6    0    0 -0.66203794376E+01  0.54122671502E+02 -0.15271496427E+03  0.16215718703E+03  0.00000000000E+00 0.  1.
         12    1    6    6    0    0  0.70694052773E+02  0.36056047853E+02 -0.32228838710E+03  0.33191488690E+03  0.00000000000E+00 0. -1.
         -5    1    3    3    0  503 -0.43099207279E+02 -0.63759433952E+02 -0.40032826334E+03  0.40768568225E+03  0.47000000000E+01 0.  1.
         13    1    4    4    0    0  0.29074004782E+02 -0.53926490897E+02 -0.86438143887E+02  0.10594770830E+03  0.00000000000E+00 0. -1.
        -14    1    4    4    0    0 -0.20745874266E+02  0.22166319574E+02 -0.41838847738E+02  0.51693579897E+02  0.00000000000E+00 0.  1.
</event>
<event>
12    1  0.8728348E-002  0.2507014E+03  0.7818608E-02  0.1112872E+00
         21   -1    0    0  503  502  0.00000000000E+00  0.00000000000E+00  0.99867558468E+02  0.99867558468E+02  0.00000000000E+00 0. -1.
         21   -1    0    0  501  503 -0.00000000000E+00 -0.00000000000E+00 -0.67540684422E+03  0.67540684422E+03  0.00000000000E+00 0. -1.
          6    2    1    2  501    0  0.42980449034E+02 -0.17731617630E+03 -0.38920414659E+03  0.46295902447E+03  0.17193849259E+03 0.  0.
         24    2    3    3    0    0 -0.32267331455E+02 -0.12407897946E+03 -0.19706267084E+03  0.24979977813E+03  0.84436124329E+02 0.  0.
         -6    2    1    2    0  502 -0.42980449034E+02  0.17731617630E+03 -0.18633513916E+03  0.31231537822E+03  0.17184808992E+03 0.  0.
        -24    2    5    5    0    0 -0.12567010002E+02  0.15870151446E+03 -0.20562295083E+03  0.27150370601E+03  0.78034377269E+02 0.  0.
          5    1    3    3  501    0  0.75247780489E+02 -0.53237196841E+02 -0.19214147575E+03  0.21315924634E+03  0.47000000000E+01 0. -1.
        -11    1    4    4    0    0 -0.59874018964E+01 -0.22446212795E+02  0.34346380285E+01  0.23483572742E+02  0.00000000000E+00 0.  1.
         12    1    4    4    0    0 -0.26279929559E+02 -0.10163276666E+03 -0.20049730887E+03  0.22631620539E+03  0.00000000000E+00 0. -1.
         -5    1    5    5    0  502 -0.30413439032E+02  0.18614661840E+02  0.19287811674E+02  0.40811672208E+02  0.47000000000E+01 0.  1.
         13    1    6    6    0    0 -0.29957710418E+02  0.14509165363E+03 -0.14634012594E+03  0.20824140997E+03  0.00000000000E+00 0. -1.
        -14    1    6    6    0    0  0.17390700416E+02  0.13609860829E+02 -0.59282824894E+02  0.63262296039E+02  0.00000000000E+00 0.  1.
</event>
<event>
12    1  0.8728348E-002  0.1953462E+03  0.7818608E-02  0.1156373E+00
         21   -1    0    0  503  502  0.00000000000E+00  0.00000000000E+00  0.75002444309E+02  0.75002444309E+02  0.00000000000E+00 0.  1.
         21   -1    0    0  501  503 -0.00000000000E+00 -0.00000000000E+00 -0.60331443391E+03  0.60331443391E+03  0.00000000000E+00 0. -1.
          6    2    1    2  501    0 -0.61499493644E+02 -0.15900683625E+02 -0.41179747059E+03  0.45086186324E+03  0.17223310798E+03 0.  0.
         24    2    3    3    0    0 -0.21284165425E+02 -0.74966023069E+02 -0.21903445456E+03  0.24522709649E+03  0.78021255169E+02 0.  0.
         -6    2    1    2    0  502  0.61499493644E+02  0.15900683625E+02 -0.11651451901E+03  0.22745501498E+03  0.18472988724E+03 0.  0.
        -24    2    5    5    0    0  0.54758012116E+01 -0.23565404287E+02  0.93466747919E+01  0.84069672927E+02  0.79968974598E+02 0.  0.
          5    1    3    3  501    0 -0.40215328218E+02  0.59065339445E+02 -0.19276301603E+03  0.20563476675E+03  0.47000000000E+01 0. -1.
        -13    1    4    4    0    0 -0.33536419446E+02 -0.17715723326E+02 -0.33260518002E+02  0.50446014114E+02  0.00000000000E+00 0.  1.
         14    1    4    4    0    0  0.12252254020E+02 -0.57250299743E+02 -0.18577393656E+03  0.19478108238E+03  0.00000000000E+00 0. -1.
         -5    1    5    5    0  502  0.56023692432E+02  0.39466087912E+02 -0.12586119381E+03  0.14338534205E+03  0.47000000000E+01 0.  1.
         11    1    6    6    0    0 -0.53125767325E+01  0.26201723214E+02 -0.11424176903E+02  0.29073451616E+02  0.00000000000E+00 0. -1.
        -12    1    6    6    0    0  0.10788377944E+02 -0.49767127501E+02  0.20770851695E+02  0.54996221311E+02  0.00000000000E+00 0.  1.
</event>
<event>
12    1  0.8728348E-002  0.2672017E+03  0.7818608E-02  0.1103083E+00
         21   -1    0    0  501  502  0.00000000000E+00  0.00000000000E+00  0.10419968872E+04  0.10419968872E+04  0.00000000000E+00 0. -1.
         21   -1    0    0  502  503 -0.00000000000E+00 -0.00000000000E+00 -0.72829765237E+02  0.72829765237E+02  0.00000000000E+00 0.  1.
         -6    2    1    2    0  503 -0.20424111579E+03  0.11722118067E+02  0.34490099895E+03  0.43629510928E+03  0.17188624691E+03 0.  0.
        -24    2    3    3    0    0 -0.22352605023E+03  0.13477574594E+02  0.34122642846E+03  0.41603226663E+03  0.80633933641E+02 0.  0.
          6    2    1    2  501    0  0.20424111579E+03 -0.11722118067E+02  0.62426612304E+03  0.67853154318E+03  0.16983822093E+03 0.  0.
         24    2    5    5    0    0  0.21091139467E+03  0.17782916056E+02  0.59261328576E+03  0.63449710476E+03  0.81217122515E+02 0.  0.
          5    1    5    5  501    0 -0.66702788819E+01 -0.29505034123E+02  0.31652837280E+02  0.44034438419E+02  0.47000000000E+01 0. -1.
        -13    1    6    6    0    0  0.18198158519E+03  0.34028747945E+02  0.42409837481E+03  0.46274689038E+03  0.00000000000E+00 0.  1.
         14    1    6    6    0    0  0.28929809478E+02 -0.16245831888E+02  0.16851491094E+03  0.17175021438E+03  0.00000000000E+00 0. -1.
         -5    1    3    3    0  503  0.19284934438E+02 -0.17554565264E+01  0.36745704902E+01  0.20262842648E+02  0.47000000000E+01 0.  1.
         13    1    4    4    0    0 -0.93238391920E+02  0.13506997450E+02  0.77937474955E+02  0.12227054719E+03  0.00000000000E+00 0. -1.
        -14    1    4    4    0    0 -0.13028765831E+03 -0.29422856621E-01  0.26328895350E+03  0.29376171944E+03  0.00000000000E+00 0.  1.
</event>
<event>
12    1  0.8728348E-002  0.1846262E+03  0.7818608E-02  0.1165661E+00
         21   -1    0    0  501  502  0.00000000000E+00  0.00000000000E+00  0.20604573583E+04  0.20604573583E+04  0.00000000000E+00 0.  1.
         21   -1    0    0  502  503 -0.00000000000E+00 -0.00000000000E+00 -0.20504096209E+02  0.20504096209E+02  0.00000000000E+00 0.  1.
         -6    2    1    2    0  503  0.16411046884E+02 -0.64469619162E+02  0.53751307821E+03  0.56833718306E+03  0.17222424378E+03 0.  0.
        -24    2    3    3    0    0 -0.43987723242E+02 -0.27798784160E+01  0.36169958472E+03  0.37241344780E+03  0.76958033974E+02 0.  0.
          6    2    1    2  501    0 -0.16411046884E+02  0.64469619162E+02  0.15024401839E+04  0.15126242714E+04  0.16211115378E+03 0.  0.
         24    2    5    5    0    0  0.26775761513E+01  0.99285377397E+02  0.91532540369E+03  0.92414966055E+03  0.79795017889E+02 0.  0.
          5    1    5    5  501    0 -0.19088623036E+02 -0.34815758235E+02  0.58711478018E+03  0.58847461088E+03  0.47000000000E+01 0. -1.
        -13    1    6    6    0    0  0.34008178575E+02  0.68261826949E+02  0.42018279339E+03  0.42704778783E+03  0.00000000000E+00 0.  1.
         14    1    6    6    0    0 -0.31330602424E+02  0.31023550448E+02  0.49514261030E+03  0.49710187273E+03  0.00000000000E+00 0. -1.
         -5    1    3    3    0  503  0.60398770127E+02 -0.61689740746E+02  0.17581349349E+03  0.19592373526E+03  0.47000000000E+01 0.  1.
         13    1    4    4    0    0 -0.26931670769E+02  0.62067779217E+01  0.34718088651E+03  0.34827920830E+03  0.00000000000E+00 0. -1.
        -14    1    4    4    0    0 -0.17056052473E+02 -0.89866563377E+01  0.14518698219E+02  0.24134239497E+02  0.00000000000E+00 0.  1.
</event>
<event>
12    1  0.8728348E-002  0.1873455E+03  0.7818608E-02  0.1161163E+00
         21   -1    0    0  503  502  0.00000000000E+00  0.00000000000E+00  0.16213051312E+04  0.16213051312E+04  0.00000000000E+00 0.  1.
         21   -1    0    0  501  503 -0.00000000000E+00 -0.00000000000E+00 -0.25306066867E+02  0.25306066867E+02  0.00000000000E+00 0.  1.
          6    2    1    2  501    0 -0.29290457661E+02  0.65415341168E+02  0.47669317146E+03  0.51173498546E+03  0.17175336346E+03 0.  0.
         24    2    3    3    0    0  0.13571365710E+01  0.44953377452E+01  0.39986260239E+03  0.40889750108E+03  0.85352303555E+02 0.  0.
         -6    2    1    2    0  502  0.29290457661E+02 -0.65415341168E+02  0.11193058929E+04  0.11348762126E+04  0.17309314933E+03 0.  0.
        -24    2    5    5    0    0 -0.26056453754E+02  0.18412678079E+02  0.55222289081E+03  0.55894597495E+03  0.80327556196E+02 0.  0.
          5    1    3    3  501    0 -0.30647594232E+02  0.60920003423E+02  0.76830569069E+02  0.10283748438E+03  0.47000000000E+01 0. -1.
        -13    1    4    4    0    0 -0.34861232701E+02  0.25651427101E+02  0.21883085402E+03  0.22307004265E+03  0.00000000000E+00 0.  1.
         14    1    4    4    0    0  0.36218369272E+02 -0.21156089356E+02  0.18103174837E+03  0.18582745843E+03  0.00000000000E+00 0. -1.
         -5    1    5    5    0  502  0.55346911414E+02 -0.83828019248E+02  0.56708300209E+03  0.57593023768E+03  0.47000000000E+01 0.  1.
         11    1    6    6    0    0 -0.14437833675E+02  0.24258113822E+02  0.54108954683E+03  0.54182543758E+03  0.00000000000E+00 0. -1.
        -12    1    6    6    0    0 -0.11618620079E+02 -0.58454357426E+01  0.11133343984E+02  0.17120537369E+02  0.00000000000E+00 0.  1.
</event>
<event>
12    1  0.8728348E-002  0.1755766E+03  0.7818608E-02  0.1172294E+00
         21   -1    0    0  503  502  0.00000000000E+00  0.00000000000E+00  0.60964778311E+03  0.60964778311E+03  0.00000000000E+00 0.  1.
         21   -1    0    0  501  503 -0.00000000000E+00 -0.00000000000E+00 -0.50478806508E+02  0.50478806508E+02  0.00000000000E+00 0.  1.
          6    2    1    2  501    0 -0.13007911609E+02  0.27650161929E+02  0.29269331567E+03  0.34131588686E+03  0.17289713810E+03 0.  0.
         24    2    3    3    0    0  0.10310155767E+02 -0.46904634184E+02  0.12753990877E+03  0.15855952527E+03  0.81045362019E+02 0.  0.
         -6    2    1    2    0  502  0.13007911609E+02 -0.27650161929E+02  0.26647566093E+03  0.31881070276E+03  0.17232889806E+03 0.  0.
        -24    2    5    5    0    0  0.19075301974E+02 -0.48029080179E+02  0.27818383307E+03  0.29408652775E+03  0.80187163159E+02 0.  0.
          5    1    3    3  501    0 -0.23318067376E+02  0.74554796113E+02  0.16515340690E+03  0.18275636158E+03  0.47000000000E+01 0. -1.
        -13    1    4    4    0    0  0.27198051243E+02 -0.37578542551E+02  0.13099017696E+03  0.13896153177E+03  0.00000000000E+00 0.  1.
         14    1    4    4    0    0 -0.16887895476E+02 -0.93260916330E+01 -0.34502681876E+01  0.19597993502E+02  0.00000000000E+00 0. -1.
         -5    1    5    5    0  502 -0.60673903652E+01  0.20378918249E+02 -0.11708172142E+02  0.24724175007E+02  0.47000000000E+01 0.  1.
         11    1    6    6    0    0 -0.20044236227E+02 -0.51536172031E+02  0.14323825311E+03  0.15354134813E+03  0.00000000000E+00 0. -1.
        -12    1    6    6    0    0  0.39119538201E+02  0.35070918527E+01  0.13494557997E+03  0.14054517962E+03  0.00000000000E+00 0.  1.
</event>
<event>
12    1  0.8728348E-002  0.2374100E+03  0.7818608E-02  0.1121613E+00
         21   -1    0    0  503  502  0.00000000000E+00  0.00000000000E+00  0.70706371653E+03  0.70706371653E+03  0.00000000000E+00 0. -1.
         21   -1    0    0  501  503 -0.00000000000E+00 -0.00000000000E+00 -0.11763942834E+03  0.11763942834E+03  0.00000000000E+00 0.  1.
          6    2    1    2  501    0 -0.94430813637E+01  0.16267724758E+03  0.60285307869E+02  0.24494454247E+03  0.17265703541E+03 0.  0.
         24    2    3    3    0    0 -0.13552016249E+01  0.18459485228E+03  0.28324277248E+02  0.20507735455E+03  0.84719304809E+02 0.  0.
         -6    2    1    2    0  502  0.94430813637E+01 -0.16267724758E+03  0.52913898032E+03  0.57975860239E+03  0.17198522579E+03 0.  0.
        -24    2    5    5    0    0  0.39704037149E+02 -0.72384322620E+02  0.41482594246E+03  0.43090263722E+03  0.82344517116E+02 0.  0.
          5    1    3    3  501    0 -0.80878797388E+01 -0.21917604701E+02  0.31961030621E+02  0.39867187922E+02  0.47000000000E+01 0. -1.
        -11    1    4    4    0    0 -0.82318965257E+01  0.89779457009E+01 -0.19449163390E+02  0.22948585708E+02  0.00000000000E+00 0.  1.
         12    1    4    4    0    0  0.68766949008E+01  0.17561690658E+03  0.47773440638E+02  0.18212876884E+03  0.00000000000E+00 0. -1.
         -5    1    5    5    0  502 -0.30260955786E+02 -0.90292924960E+02  0.11431303786E+03  0.14885596518E+03  0.47000000000E+01 0.  1.
         13    1    6    6    0    0 -0.13776943934E+02 -0.50892034484E+02  0.26862665692E+03  0.27375186605E+03  0.00000000000E+00 0. -1.
        -14    1    6    6    0    0  0.53480981084E+02 -0.21492288135E+02  0.14619928554E+03  0.15715077117E+03  0.00000000000E+00 0.  1.
</event>
<event>
12    1  0.8728348E-002  0.1784409E+03  0.7818608E-02  0.1169426E+00
         21   -1    0    0  503  502  0.00000000000E+00  0.00000000000E+00  0.16267914071E+03  0.16267914071E+03  0.00000000000E+00 0.  1.
         21   -1    0    0  501  503 -0.00000000000E+00 -0.00000000000E+00 -0.19704287030E+03  0.19704287030E+03  0.00000000000E+00 0.  1.
          6    2    1    2  501    0  0.45515803272E+02 -0.12676031964E+02 -0.34332189446E+02  0.18171370540E+03  0.17207208188E+03 0.  0.
         24    2    3    3    0    0  0.95294623551E+02 -0.52122032317E+01 -0.46630818878E+02  0.12968500203E+03  0.74401170305E+02 0.  0.
         -6    2    1    2    0  502 -0.45515803272E+02  0.12676031964E+02 -0.31540149488E-01  0.17800830562E+03  0.17162338343E+03 0.  0.
        -24    2    5    5    0    0  0.16243829971E+01  0.54987353758E+02  0.37961463773E+02  0.10399476996E+03  0.79671775137E+02 0.  0.
          5    1    3    3  501    0 -0.49778820279E+02 -0.74638287320E+01  0.12298629433E+02  0.52028703363E+02  0.47000000000E+01 0. -1.
        -13    1    4    4    0    0  0.38384888923E+02  0.25772137299E+02 -0.45513784357E+02  0.64877633473E+02  0.00000000000E+00 0.  1.
         14    1    4    4    0    0  0.56909734628E+02 -0.30984340530E+02 -0.11170345215E+01  0.64807368560E+02  0.00000000000E+00 0. -1.
         -5    1    5    5    0  502 -0.47140186269E+02 -0.42311321794E+02 -0.37993003923E+02  0.74013535657E+02  0.47000000000E+01 0.  1.
         13    1    6    6    0    0 -0.92922918023E+01  0.15277286996E+01 -0.21391724991E+02  0.23372773477E+02  0.00000000000E+00 0. -1.
        -14    1    6    6    0    0  0.10916674799E+02  0.53459625058E+02  0.59353188764E+02  0.80621996481E+02  0.00000000000E+00 0.  1.
</event>
<event>
12    1  0.8728348E-002  0.2816864E+03  0.7818608E-02  0.1094814E+00
         21   -1    0    0  503  502  0.00000000000E+00  0.00000000000E+00  0.36731938198E+03  0.36731938198E+03  0.00000000000E+00 0.  1.
         21   -1    0    0  501  503 -0.00000000000E+00 -0.00000000000E+00 -0.26381945453E+03  0.26381945453E+03  0.00000000000E+00 0. -1.
          6    2    1    2  501    0  0.15797667929E+03 -0.15705291561E+03 -0.82939697705E+02  0.29334163978E+03  0.17189553418E+03 0.  0.
         24    2    3    3    0    0  0.23185361985E+02 -0.11182398365E+03 -0.35345648233E+02  0.14333617637E+03  0.79080846461E+02 0.  0.
         -6    2    1    2    0  502 -0.15797667929E+03  0.15705291561E+03  0.18643962515E+03  0.33779719674E+03  0.17240928860E+03 0.  0.
        -24    2    5    5    0    0 -0.22330637837E+02  0.53883422606E+02  0.25800337107E+02  0.10355189004E+03  0.81579751882E+02 0.  0.
          5    1    3    3  501    0  0.13479131731E+03 -0.45228931960E+02 -0.47594049472E+02  0.15000546341E+03  0.47000000000E+01 0. -1.
        -11    1    4    4    0    0 -0.14614914934E+02 -0.56041573661E+02  0.14280454660E+02  0.59650524744E+02  0.00000000000E+00 0.  1.
         12    1    4    4    0    0  0.37800276919E+02 -0.55782409988E+02 -0.49626102892E+02  0.83685651623E+02  0.00000000000E+00 0. -1.
         -5    1    5    5    0  502 -0.13564604146E+03  0.10316949300E+03  0.16063928804E+03  0.23424530670E+03  0.47000000000E+01 0.  1.
         13    1    6    6    0    0 -0.43274797985E+02  0.77174343244E+01 -0.49888432049E+01  0.44239750109E+02  0.00000000000E+00 0. -1.
        -14    1    6    6    0    0  0.20944160148E+02  0.46165988282E+02  0.30789180312E+02  0.59312139926E+02  0.00000000000E+00 0.  1.
</event>
<event>
12    1  0.8728348E-002  0.2334210E+03  0.7818608E-02  0.1124331E+00
         21   -1    0    0  503  502  0.00000000000E+00  0.00000000000E+00  0.22889808221E+03  0.22889808221E+03  0.00000000000E+00 0. -1.
         21   -1    0    0  501  503 -0.00000000000E+00 -0.00000000000E+00 -0.25135960058E+03  0.25135960058E+03  0.00000000000E+00 0.  1.
          6    2    1    2  501    0 -0.95445565886E+02 -0.12566330154E+03 -0.67435832849E+02  0.24254346723E+03  0.17140192689E+03 0.  0.
         24    2    3    3    0    0 -0.25456405995E+02 -0.30476700825E+01 -0.56775382103E+02  0.10087903701E+03  0.79346198367E+02 0.  0.
         -6    2    1    2    0  502  0.95445565886E+02  0.12566330154E+03  0.44974314475E+02  0.23771421556E+03  0.17200069162E+03 0.  0.
        -24    2    5    5    0    0  0.76592913947E+02  0.10684426162E+03  0.94292482624E+02  0.18146521149E+03  0.82197201877E+02 0.  0.
          5    1    3    3  501    0 -0.69989159891E+02 -0.12261563145E+03 -0.10660450746E+02  0.14166443022E+03  0.47000000000E+01 0. -1.
        -13    1    4    4    0    0 -0.47177290086E+02 -0.24213090486E+02 -0.37408511871E+02  0.64895047662E+02  0.00000000000E+00 0.  1.
         14    1    4    4    0    0  0.21720884091E+02  0.21165420403E+02 -0.19366870232E+02  0.35983989344E+02  0.00000000000E+00 0. -1.
         -5    1    5    5    0  502  0.18852651939E+02  0.18819039922E+02 -0.49318168150E+02  0.56249004066E+02  0.47000000000E+01 0.  1.
         11    1    6    6    0    0  0.23183336041E+02  0.60346900018E+02  0.89612299672E+02  0.11049696676E+03  0.00000000000E+00 0. -1.
        -12    1    6    6    0    0  0.53409577906E+02  0.46497361597E+02  0.46801829528E+01  0.70968244730E+02  0.00000000000E+00 0.  1.
</event>
<event>
12    1  0.8728348E-002  0.2169910E+03  0.7818608E-02  0.1136258E+00
         21   -1    0    0  501  502  0.00000000000E+00  0.00000000000E+00  0.25524440403E+04  0.25524440403E+04  0.00000000000E+00 0. -1.
         21   -1    0    0  502  503 -0.00000000000E+00 -0.00000000000E+00 -0.18479586130E+02  0.18479586130E+02  0.00000000000E+00 0. -1.
         -6    2    1    2    0  503 -0.99834442513E+02 -0.86857849728E+02  0.13544417241E+04  0.13717133314E+04  0.17197057205E+03 0.  0.
        -24    2    3    3    0    0 -0.41717063645E+02 -0.95808908785E+02  0.11808289414E+04  0.11883523773E+04  0.83094665032E+02 0.  0.
          6    2    1    2  501    0  0.99834442513E+02  0.86857849728E+02  0.11795227301E+04  0.11992102950E+04  0.17123159442E+03 0.  0.
         24    2    5    5    0    0  0.94139495631E+02  0.44652417409E+02  0.11128682372E+04  0.11199724104E+04  0.70755944475E+02 0.  0.
          5    1    5    5  501    0  0.56949468816E+01  0.42205432319E+02  0.66654492899E+02  0.79237884631E+02  0.47000000000E+01 0. -1.
        -13    1    6    6    0    0  0.44222773524E+02 -0.14468907276E+02  0.51971026975E+03  0.52178900665E+03  0.00000000000E+00 0.  1.
         14    1    6    6    0    0  0.49916722107E+02  0.59121324684E+02  0.59315796746E+03  0.59818340376E+03  0.00000000000E+00 0. -1.
         -5    1    3    3    0  503 -0.58117378868E+02  0.89510590574E+01  0.17361278271E+03  0.18336095415E+03  0.47000000000E+01 0.  1.
         11    1    4    4    0    0 -0.41903699148E+02 -0.73266536811E+02  0.49436285866E+03  0.50151624245E+03  0.00000000000E+00 0. -1.
        -12    1    4    4    0    0  0.18663550352E+00 -0.22542371974E+02  0.68646608274E+03  0.68683613483E+03  0.00000000000E+00 0.  1.
</event>
<event>
12    1  0.8728348E-002  0.2112395E+03  0.7818608E-02  0.1140693E+00
         21   -1    0    0  503  502  0.00000000000E+00  0.00000000000E+00  0.42936383785E+03  0.42936383785E+03  0.00000000000E+00 0.  1.
         21   -1    0    0  501  503 -0.00000000000E+00 -0.00000000000E+00 -0.18400477534E+03  0.18400477534E+03  0.00000000000E+00 0.  1.
          6    2    1    2  501    0  0.81462518787E+01  0.12188851240E+03 -0.79881542552E+02  0.22583889456E+03  0.17233390432E+03 0.  0.
         24    2    3    3    0    0  0.46341578191E+02  0.18889475032E+02 -0.64712137863E+02  0.11484391499E+03  0.80604651765E+02 0.  0.
         -6    2    1    2    0  502 -0.81462518787E+01 -0.12188851240E+03  0.32524060506E+03  0.38752971863E+03  0.17168185916E+03 0.  0.
        -24    2    5    5    0    0  0.25157358930E+00 -0.60774067166E+02  0.31442671914E+03  0.32472423306E+03  0.53741188073E+02 0.  0.
          5    1    3    3  501    0 -0.38195326312E+02  0.10299903737E+03 -0.15169404689E+02  0.11099497957E+03  0.47000000000E+01 0. -1.
        -13    1    4    4    0    0  0.16941637659E+02 -0.31554523961E+02 -0.18072571554E+02  0.40116392056E+02  0.00000000000E+00 0.  1.
         14    1    4    4    0    0  0.29399940532E+02  0.50443998994E+02 -0.46639566310E+02  0.74727522930E+02  0.00000000000E+00 0. -1.
         -5    1    5    5    0  502 -0.83978254680E+01 -0.61114445238E+02  0.10813885920E+02  0.62805485572E+02  0.47000000000E+01 0.  1.
         13    1    6    6    0    0  0.20978556874E+02 -0.23146724339E+02  0.71470363497E+02  0.77999253551E+02  0.00000000000E+00 0. -1.
        -14    1    6    6    0    0 -0.20726983285E+02 -0.37627342827E+02  0.24295635564E+03  0.24672497951E+03  0.00000000000E+00 0.  1.
</event>
<event>
12    1  0.8728348E-002  0.2573186E+03  0.7818608E-02  0.1109134E+00
         21   -1    0    0  503  502  0.00000000000E+00  0.00000000000E+00  0.66459921239E+03  0.66459921239E+03  0.00000000000E+00 0. -1.
         21   -1    0    0  501  503 -0.00000000000E+00 -0.00000000000E+00 -0.98765475885E+02  0.98765475885E+02  0.00000000000E+00 0.  1.
          6    2    1    2  501    0  0.11908223367E+03 -0.14802602991E+03  0.29438773017E+03  0.39099487498E+03  0.17355279508E+03 0.  0.
         24    2    3    3    0    0  0.10152062931E+03 -0.10335586109E+03  0.10990029086E+03  0.20030785604E+03  0.84001732492E+02 0.  0.
         -6    2    1    2    0  502 -0.11908223367E+03  0.14802602991E+03  0.27144600634E+03  0.37236981329E+03  0.16995310998E+03 0.  0.
        -24    2    5    5    0    0 -0.26424420891E+02  0.62407803314E+02  0.20359368666E+03  0.22904508312E+03  0.80114149314E+02 0.  0.
          5    1    3    3  501    0  0.17561604355E+02 -0.44670168821E+02  0.18448743931E+03  0.19068701894E+03  0.47000000000E+01 0. -1.
        -11    1    4    4    0    0  0.82450301320E+01 -0.11485694189E+02 -0.14111955921E+02  0.19976210672E+02  0.00000000000E+00 0.  1.
         12    1    4    4    0    0  0.93275599182E+02 -0.91870166899E+02  0.12401224678E+03  0.18033164536E+03  0.00000000000E+00 0. -1.
         -5    1    5    5    0  502 -0.92657812779E+02  0.85618226595E+02  0.67852319679E+02  0.14332473018E+03  0.47000000000E+01 0.  1.
         13    1    6    6    0    0 -0.28524105733E+01  0.46697802953E+01  0.13953562129E+03  0.13964287559E+03  0.00000000000E+00 0. -1.
        -14    1    6    6    0    0 -0.23572010318E+02  0.57738023019E+02  0.64058065368E+02  0.89402207530E+02  0.00000000000E+00 0.  1.
</event>
<event>
12    1  0.8728348E-002  0.2153253E+03  0.7818608E-02  0.1137540E+00
         21   -1    0    0  503  502  0.00000000000E+00  0.00000000000E+00  0.17919876306E+04  0.17919876306E+04  0.00000000000E+00 0. -1.
         21   -1    0    0  501  503 -0.00000000000E+00 -0.00000000000E+00 -0.52103400587E+02  0.52103400587E+02  0.00000000000E+00 0. -1.
          6    2    1    2  501    0 -0.12348628451E+03  0.40346988311E+02  0.21413729994E+03  0.30322482038E+03  0.17092035144E+03 0.  0.
         24    2    3    3    0    0 -0.12152613494E+03  0.84376150713E+02  0.18730016885E+03  0.25141043113E+03  0.78980474458E+02 0.  0.
         -6    2    1    2    0  502  0.12348628451E+03 -0.40346988311E+02  0.15257469300E+04  0.15408662108E+04  0.17172141123E+03 0.  0.
        -24    2    5    5    0    0  0.11442551848E+03 -0.37989766468E+02  0.15232294521E+04  0.15300920904E+04  0.80108797655E+02 0.  0.
          5    1    3    3  501    0 -0.19601495782E+01 -0.44029162401E+02  0.26837131092E+02  0.51814389250E+02  0.47000000000E+01 0. -1.
        -13    1    4    4    0    0 -0.89474188154E+02  0.14258866838E+02  0.99922378029E+02  0.13488301324E+03  0.00000000000E+00 0.  1.
         14    1    4    4    0    0 -0.32051946781E+02  0.70117283875E+02  0.87377790824E+02  0.11652741789E+03  0.00000000000E+00 0. -1.
         -5    1    5    5    0  502  0.90607660313E+01 -0.23572218434E+01  0.25174778928E+01  0.10774120420E+02  0.47000000000E+01 0.  1.
         13    1    6    6    0    0  0.11263531195E+03 -0.11564849192E+02  0.10418737196E+04  0.10480082571E+04  0.00000000000E+00 0. -1.
        -14    1    6    6    0    0  0.17902065350E+01 -0.26424917276E+02  0.48135573250E+03  0.48208383327E+03  0.00000000000E+00 0.  1.
</event>
<event>
12    1  0.8728348E-002  0.2274491E+03  0.7818608E-02  0.1128541E+00
         21   -1    0    0  503  502  0.00000000000E+00  0.00000000000E+00  0.10082213609E+03  0.10082213609E+03  0.00000000000E+00 0.  1.
         21   -1    0    0  501  503 -0.00000000000E+00 -0.00000000000E+00 -0.93708343152E+03  0.93708343152E+03  0.00000000000E+00 0.  1.
          6    2    1    2  501    0 -0.12134233183E+02 -0.14608257320E+03 -0.76741652237E+03  0.80026567522E+03  0.17323300590E+03 0.  0.
         24    2    3    3    0    0  0.56068652419E+02 -0.11753880997E+03 -0.51541505715E+03  0.53760009222E+03  0.80013201314E+02 0.  0.
         -6    2    1    2    0  502  0.12134233183E+02  0.14608257320E+03 -0.68844773057E+02  0.23763989238E+03  0.17391307561E+03 0.  0.
        -24    2    5    5    0    0  0.57893587253E+02  0.11623158376E+03 -0.19556733702E+01  0.15114572083E+03  0.77328880498E+02 0.  0.
          5    1    3    3  501    0 -0.68202885602E+02 -0.28543763237E+02 -0.25200146522E+03  0.26266558301E+03  0.47000000000E+01 0. -1.
        -11    1    4    4    0    0 -0.16663392657E+02 -0.16258755580E+02 -0.41799080056E+02  0.47845364262E+02  0.00000000000E+00 0.  1.
         12    1    4    4    0    0  0.72732045076E+02 -0.10128005439E+03 -0.47361597709E+03  0.48975472795E+03  0.00000000000E+00 0. -1.
         -5    1    5    5    0  502 -0.45759354070E+02  0.29850989444E+02 -0.66889099687E+02  0.86494171553E+02  0.47000000000E+01 0.  1.
         11    1    6    6    0    0  0.66700367821E+02  0.86380228241E+02 -0.25554643750E+02  0.11208712110E+03  0.00000000000E+00 0. -1.
        -12    1    6    6    0    0 -0.88067805686E+01  0.29851355519E+02  0.23598970380E+02  0.39058599736E+02  0.00000000000E+00 0.  1.
</event>
<event>
12    1  0.8728348E-002  0.3022999E+03  0.7818608E-02  0.1084238E+00
         21   -1    0    0  503  502  0.00000000000E+00  0.00000000000E+00  0.12530013972E+03  0.12530013972E+03  0.00000000000E+00 0.  1.
         21   -1    0    0  501  503 -0.00000000000E+00 -0.00000000000E+00 -0.83129594797E+03  0.83129594797E+03  0.00000000000E+00 0.  1.
          6    2    1    2  501    0  0.24113423813E+03  0.58953292935E+02 -0.52333634692E+03  0.60437253158E+03  0.17252250107E+03 0.  0.
         24    2    3    3    0    0  0.89239792423E+02 -0.24146144627E+02 -0.28629629137E+03  0.31079542570E+03  0.77983673509E+02 0.  0.
         -6    2    1    2    0  502 -0.24113423813E+03 -0.58953292935E+02 -0.18265946133E+03  0.35222355611E+03  0.17051610809E+03 0.  0.
        -24    2    5    5    0    0 -0.23101714969E+03 -0.77050382897E+02 -0.20066990976E+03  0.32436092170E+03  0.75072697339E+02 0.  0.
          5    1    3    3  501    0  0.15189444570E+03  0.83099437562E+02 -0.23704005555E+03  0.29357710588E+03  0.47000000000E+01 0. -1.
        -13    1    4    4    0    0  0.19511594332E+02  0.22889002155E+02 -0.12860665497E+03  0.13207679749E+03  0.00000000000E+00 0.  1.
         14    1    4    4    0    0  0.69728198091E+02 -0.47035146783E+02 -0.15768963640E+03  0.17871862821E+03  0.00000000000E+00 0. -1.
         -5    1    5    5    0  502 -0.10117088432E+02  0.18097089962E+02  0.18010448431E+02  0.27862634407E+02  0.47000000000E+01 0.  1.
         11    1    6    6    0    0 -0.21044082497E+03 -0.80916588291E+02 -0.15350339678E+03  0.27275653594E+03  0.00000000000E+00 0. -1.
        -12    1    6    6    0    0 -0.20576324729E+02  0.38662053944E+01 -0.47166512978E+02  0.51604385763E+02  0.00000000000E+00 0.  1.
</event>
<event>
12    1  0.8728348E-002  0.2297754E+03  0.7818608E-02  0.1127865E+00
         21   -1    0    0  501  502  0.00000000000E+00  0.00000000000E+00  0.18535596539E+03  0.18535596539E+03  0.00000000000E+00 0. -1.
         21   -1    0    0  502  503 -0.00000000000E+00 -0.00000000000E+00 -0.30267484382E+03  0.30267484382E+03  0.00000000000E+00 0.  1.
         -6    2    1    2    0  503 -0.12374146147E+02  0.15325832423E+03 -0.12834024984E+03  0.25799122523E+03  0.16262539509E+03 0.  0.
        -24    2    3    3    0    0  0.26926971648E+02  0.13925596122E+03 -0.52356645194E+02  0.17117969255E+03  0.80274431237E+02 0.  0.
          6    2    1    2  501    0  0.12374146147E+02 -0.15325832423E+03  0.11021371411E+02  0.23003958399E+03  0.17074983495E+03 0.  0.
         24    2    5    5    0    0 -0.53304445638E+01 -0.18013821491E+03  0.14591003517E+02  0.19731629979E+03  0.79010345340E+02 0.  0.
          5    1    5    5  501    0  0.17704590711E+02  0.26879890679E+02 -0.35696321058E+01  0.32723284196E+02  0.47000000000E+01 0. -1.
        -11    1    6    6    0    0 -0.16551152906E+02 -0.19759189565E+01 -0.57802161881E+01  0.17642443635E+02  0.00000000000E+00 0.  1.
         12    1    6    6    0    0  0.11220708342E+02 -0.17816229595E+03  0.20371219705E+02  0.17967385616E+03  0.00000000000E+00 0. -1.
         -5    1    3    3    0  503 -0.39301117795E+02  0.14002363011E+02 -0.75983604646E+02  0.86811532672E+02  0.47000000000E+01 0.  1.
         11    1    4    4    0    0 -0.21676828433E+02  0.12181939446E+02 -0.18460228287E+02  0.30968767621E+02  0.00000000000E+00 0. -1.
        -12    1    4    4    0    0  0.48603800081E+02  0.12707402177E+03 -0.33896416907E+02  0.14021092493E+03  0.00000000000E+00 0.  1.
</event>
<event>
12    1  0.8728348E-002  0.2098615E+03  0.7818608E-02  0.1141677E+00
         21   -1    0    0  501  502  0.00000000000E+00  0.00000000000E+00  0.35580685510E+04  0.35580685510E+04  0.00000000000E+00 0.  1.
         21   -1    0    0  502  503 -0.00000000000E+00 -0.00000000000E+00 -0.33578820244E+02  0.33578820244E+02  0.00000000000E+00 0.  1.
         -6    2    1    2    0  503 -0.10146604042E+03 -0.64941067845E+02  0.33529708284E+03  0.39555780182E+03  0.17184045265E+03 0.  0.
        -24    2    3    3    0    0 -0.13573909652E+02  0.88697258251E+01  0.20237931092E+03  0.21988115566E+03  0.84424013564E+02 0.  0.
          6    2    1    2  501    0  0.10146604042E+03  0.64941067845E+02  0.31891926479E+04  0.31960895694E+04  0.17183157631E+03 0.  0.
         24    2    5    5    0    0 -0.74964782722E+00 -0.61712442725E+01  0.17630525239E+04  0.17645160466E+04  0.71582333949E+02 0.  0.
          5    1    5    5  501    0  0.10221568825E+03  0.71112312118E+02  0.14261401240E+04  0.14315735228E+04  0.47000000000E+01 0. -1.
        -13    1    6    6    0    0  0.33480774315E+02 -0.11845195412E+02  0.70391466535E+03  0.70480999354E+03  0.00000000000E+00 0.  1.
         14    1    6    6    0    0 -0.34230422142E+02  0.56739511399E+01  0.10591378586E+04  0.10597060531E+04  0.00000000000E+00 0. -1.
         -5    1    3    3    0  503 -0.87892130770E+02 -0.73810793670E+02  0.13291777192E+03  0.17567664616E+03  0.47000000000E+01 0.  1.
         11    1    4    4    0    0  0.37747694368E+01 -0.36592437901E+02  0.99263243874E+02  0.10586050718E+03  0.00000000000E+00 0. -1.
        -12    1    4    4    0    0 -0.17348679089E+02  0.45462163727E+02  0.10311606705E+03  0.11402064848E+03  0.00000000000E+00 0.  1.
</event>
<event>
12    1  0.8728348E-002  0.2535554E+03  0.7818608E-02  0.1111130E+00
         21   -1    0    0  503  502  0.00000000000E+00  0.00000000000E+00  0.39058086302E+03  0.39058086302E+03  0.00000000000E+00 0. -1.
         21   -1    0    0  501  503 -0.00000000000E+00 -0.00000000000E+00 -0.27233003534E+03  0.27233003534E+03  0.00000000000E+00 0.  1.
          6    2    1    2  501    0  0.66919031994E+02  0.17379904947E+03 -0.14952947813E+03  0.29436272327E+03  0.17206417867E+03 0.  0.
         24    2    3    3    0    0  0.14036967885E+02  0.16852482440E+03 -0.71813572369E+02  0.20009617479E+03  0.79269395623E+02 0.  0.
         -6    2    1    2    0  502 -0.66919031994E+02 -0.17379904947E+03  0.26778030582E+03  0.36854817508E+03  0.17157272141E+03 0.  0.
        -24    2    5    5    0    0 -0.41083276156E+02 -0.19509575576E+03  0.20350176631E+03  0.29591996693E+03  0.80034170442E+02 0.  0.
          5    1    3    3  501    0  0.52882064109E+02  0.52742250702E+01 -0.77715905765E+02  0.94266548485E+02  0.47000000000E+01 0. -1.
        -13    1    4    4    0    0  0.30297253218E+02  0.16320538790E+03 -0.75874344061E+02  0.18251257019E+03  0.00000000000E+00 0.  1.
         14    1    4    4    0    0 -0.16260285333E+02  0.53194364980E+01  0.40607716928E+01  0.17583604593E+02  0.00000000000E+00 0. -1.
         -5    1    5    5    0  502 -0.25835755838E+02  0.21296706293E+02  0.64278539504E+02  0.72628208153E+02  0.47000000000E+01 0.  1.
         11    1    6    6    0    0 -0.53540411993E+02 -0.13772642298E+03  0.17949640516E+03  0.23249538226E+03  0.00000000000E+00 0. -1.
        -12    1    6    6    0    0  0.12457135838E+02 -0.57369332780E+02  0.24005361149E+02  0.63424584672E+02  0.00000000000E+00 0.  1.
</event>
<event>
12    1  0.8728348E-002  0.1832107E+03  0.7818608E-02  0.1165190E+00
         21   -1    0    0  503  502  0.00000000000E+00  0.00000000000E+00  0.25004110576E+03  0.25004110576E+03  0.00000000000E+00 0.  1.
         21   -1    0    0  501  503 -0.00000000000E+00 -0.00000000000E+00 -0.18575355866E+03  0.18575355866E+03  0.00000000000E+00 0.  1.
          6    2    1    2  501    0 -0.52382579031E+01  0.59048707446E+02 -0.84038707667E+02  0.20156549679E+03  0.17335499967E+03 0.  0.
         24    2    3    3    0    0  0.76029827507E+00  0.10206049884E+03 -0.49001939218E+02  0.14556851456E+03  0.91499065068E+02 0.  0.
         -6    2    1    2    0  502  0.52382579031E+01 -0.59048707446E+02  0.14832625477E+03  0.23422916763E+03  0.17131385209E+03 0.  0.
        -24    2    5    5    0    0  0.68068709372E+02 -0.27019453870E+02  0.10723692702E+03  0.15247366891E+03  0.79906577395E+02 0.  0.
          5    1    3    3  501    0 -0.59985561782E+01 -0.43011791392E+02 -0.35036768449E+02  0.55996982225E+02  0.47000000000E+01 0. -1.
        -13    1    4    4    0    0  0.28288058649E+02  0.14037178263E+02 -0.42723500672E+02  0.53127715417E+02  0.00000000000E+00 0.  1.
         14    1    4    4    0    0 -0.27527760374E+02  0.88023320575E+02 -0.62784385463E+01  0.92440799146E+02  0.00000000000E+00 0. -1.
         -5    1    5    5    0  502 -0.62830451468E+02 -0.32029253575E+02  0.41089327748E+02  0.81755498721E+02  0.47000000000E+01 0.  1.
         11    1    6    6    0    0  0.81257131185E+02 -0.65942631271E+01  0.95224111727E+02  0.12535484486E+03  0.00000000000E+00 0. -1.
        -12    1    6    6    0    0 -0.13188421814E+02 -0.20425190743E+02  0.12012815297E+02  0.27118824056E+02  0.00000000000E+00 0.  1.
</event>
<event>
12    1  0.8728348E-002  0.2028835E+03  0.7818608E-02  0.1147879E+00
         21   -1    0    0  503  502  0.00000000000E+00  0.00000000000E+00  0.23665110799E+02  0.23665110799E+02  0.00000000000E+00 0. -1.
         21   -1    0    0  501  503 -0.00000000000E+00 -0.00000000000E+00 -0.17225109799E+04  0.17225109799E+04  0.00000000000E+00 0. -1.
          6    2    1    2  501    0 -0.10484870651E+03  0.11970795317E+02 -0.90529936217E+03  0.92775462094E+03  0.17327766828E+03 0.  0.
         24    2    3    3    0    0 -0.81594014682E+02 -0.58472421272E+02 -0.59179889166E+03  0.60556265570E+03  0.80022462612E+02 0.  0.
         -6    2    1    2    0  502  0.10484870651E+03 -0.11970795317E+02 -0.79354650695E+03  0.81842146978E+03  0.17017958840E+03 0.  0.
        -24    2    5    5    0    0  0.10817754316E+03 -0.63906816998E+02 -0.57662700600E+03  0.59529686022E+03  0.78058860046E+02 0.  0.
          5    1    3    3  501    0 -0.23254691830E+02  0.70443216590E+02 -0.31350047051E+03  0.32219196524E+03  0.47000000000E+01 0. -1.
        -11    1    4    4    0    0  0.37245138542E+01 -0.40568386230E+02 -0.16538655485E+03  0.17033020428E+03  0.00000000000E+00 0.  1.
         12    1    4    4    0    0 -0.85318528536E+02 -0.17904035042E+02 -0.42641233681E+03  0.43523245142E+03  0.00000000000E+00 0. -1.
         -5    1    5    5    0  502 -0.33288366485E+01  0.51936021681E+02 -0.21691950095E+03  0.22312460956E+03  0.47000000000E+01 0.  1.
         13    1    6    6    0    0  0.65742296478E+02 -0.21473280276E+02 -0.44863555427E+03  0.45393503044E+03  0.00000000000E+00 0. -1.
        -14    1    6    6    0    0  0.42435246683E+02 -0.42433536722E+02 -0.12799145173E+03  0.14136182977E+03  0.00000000000E+00 0.  1.
</event>
<event>
12    1  0.8728348E-002  0.2031934E+03  0.7818608E-02  0.1147212E+00
         21   -1    0    0  501  502  0.00000000000E+00  0.00000000000E+00  0.85108871204E+02  0.85108871204E+02  0.00000000000E+00 0.  1.
         21   -1    0    0  502  503 -0.00000000000E+00 -0.00000000000E+00 -0.48686568942E+03  0.48686568942E+03  0.00000000000E+00 0.  1.
         -6    2    1    2    0  503 -0.86294907500E+02  0.64232600337E+02 -0.22494978924E+03  0.30313356117E+03  0.17238013292E+03 0.  0.
        -24    2    3    3    0    0  0.17478720470E+02  0.27525836208E+01 -0.79612954394E+02  0.11420594572E+03  0.79948065300E+02 0.  0.
          6    2    1    2  501    0  0.86294907500E+02 -0.64232600337E+02 -0.17680702898E+03  0.26884099946E+03  0.17158706095E+03 0.  0.
         24    2    5    5    0    0  0.73187084013E+02 -0.10212584957E+03 -0.17252224425E+03  0.22824342866E+03  0.80901789516E+02 0.  0.
          5    1    5    5  501    0  0.13107823488E+02  0.37893249238E+02 -0.42847847306E+01  0.40597570796E+02  0.47000000000E+01 0. -1.
        -11    1    6    6    0    0  0.30867816880E+02 -0.52093873355E+02 -0.14506209508E+03  0.15719289166E+03  0.00000000000E+00 0.  1.
         12    1    6    6    0    0  0.42319267132E+02 -0.50031976220E+02 -0.27460149172E+02  0.71050536997E+02  0.00000000000E+00 0. -1.
         -5    1    3    3    0  503 -0.10377362797E+03  0.61480016716E+02 -0.14533683484E+03  0.18892761545E+03  0.47000000000E+01 0.  1.
         11    1    4    4    0    0 -0.28127673541E+02 -0.66047426010E+01 -0.10229432940E+02  0.30650121402E+02  0.00000000000E+00 0. -1.
        -12    1    4    4    0    0  0.45606394011E+02  0.93573262218E+01 -0.69383521454E+02  0.83555824321E+02  0.00000000000E+00 0.  1.
</event>
<event>
12    1  0.8728348E-002  0.1910223E+03  0.7818608E-02  0.1157803E+00
         21   -1    0    0  501  502  0.00000000000E+00  0.00000000000E+00  0.12031586074E+04  0.12031586074E+04  0.00000000000E+00 0.  1.
         21   -1    0    0  502  503 -0.00000000000E+00 -0.00000000000E+00 -0.66417046267E+02  0.66417046267E+02  0.00000000000E+00 0.  1.
         -6    2    1    2    0  503  0.47410280785E+02  0.53642118585E+02  0.98474577299E+02  0.21388258531E+03  0.17585023831E+03 0.  0.
        -24    2    3    3    0    0 -0.29791724882E+02  0.69974743516E+02  0.70321576711E+02  0.12996842823E+03  0.78502589669E+02 0.  0.
          6    2    1    2  501    0 -0.47410280785E+02 -0.53642118585E+02  0.10382669838E+04  0.10556930684E+04  0.17709972683E+03 0.  0.
         24    2    5    5    0    0 -0.72058176020E+02 -0.91790222366E+01  0.92722480929E+03  0.93347629289E+03  0.79721435349E+02 0.  0.
          5    1    5    5  501    0  0.24647895235E+02 -0.44463096349E+02  0.11104217455E+03  0.12221677547E+03  0.47000000000E+01 0. -1.
        -13    1    6    6    0    0 -0.80812622367E+02 -0.18231119071E+02  0.89579517359E+03  0.89961772251E+03  0.00000000000E+00 0.  1.
         14    1    6    6    0    0  0.87544463471E+01  0.90520968342E+01  0.31429635699E+02  0.33858570379E+02  0.00000000000E+00 0. -1.
         -5    1    3    3    0  503  0.77202005667E+02 -0.16332624930E+02  0.28153000587E+02  0.83914157078E+02  0.47000000000E+01 0.  1.
         11    1    4    4    0    0 -0.92152366181E+00  0.61222272570E+02  0.77686017161E+02  0.98914777090E+02  0.00000000000E+00 0. -1.
        -12    1    4    4    0    0 -0.28870201220E+02  0.87524709459E+01 -0.73644404503E+01  0.31053651143E+02  0.00000000000E+00 0.  1.
</event>
<event>
12    1  0.8728348E-002  0.2090812E+03  0.7818608E-02  0.1143278E+00
         21   -1    0    0  501  502  0.00000000000E+00  0.00000000000E+00  0.60026668377E+03  0.60026668377E+03  0.00000000000E+00 0. -1.
         21   -1    0    0  502  503 -0.00000000000E+00 -0.00000000000E+00 -0.75990098100E+02  0.75990098100E+02  0.00000000000E+00 0. -1.
         -6    2    1    2    0  503  0.72140619991E+02 -0.90229711253E+02  0.17381802031E+03  0.26816838517E+03  0.16839212801E+03 0.  0.
        -24    2    3    3    0    0  0.62625378419E+02 -0.89397533374E+02  0.34310448013E+02  0.12825525116E+03  0.57951234767E+02 0.  0.
          6    2    1    2  501    0 -0.72140619991E+02  0.90229711253E+02  0.35045856536E+03  0.40808839670E+03  0.17426779289E+03 0.  0.
         24    2    5    5    0    0 -0.10505451426E+03  0.23182882595E+02  0.24074382135E+03  0.27528020146E+03  0.79042423953E+02 0.  0.
          5    1    5    5  501    0  0.32913894273E+02  0.67046828658E+02  0.10971474401E+03  0.13280819524E+03  0.47000000000E+01 0. -1.
        -11    1    6    6    0    0 -0.69028359852E+02 -0.24730289178E+02  0.12443740231E+03  0.14443395986E+03  0.00000000000E+00 0.  1.
         12    1    6    6    0    0 -0.36026154412E+02  0.47913171773E+02  0.11630641903E+03  0.13084624159E+03  0.00000000000E+00 0. -1.
         -5    1    3    3    0  503  0.95152415723E+01 -0.83217787937E+00  0.13950757229E+03  0.13991313401E+03  0.47000000000E+01 0.  1.
         11    1    4    4    0    0  0.55522610875E+02 -0.68412551781E+02  0.49813954643E+02  0.10121495757E+03  0.00000000000E+00 0. -1.
        -12    1    4    4    0    0  0.71027675435E+01 -0.20984981592E+02 -0.15503506630E+02  0.27040293583E+02  0.00000000000E+00 0.  1.
</event>
<event>
12    1  0.8728348E-002  0.3574469E+03  0.7818608E-02  0.1060041E+00
         21   -1    0    0  501  502  0.00000000000E+00  0.00000000000E+00  0.13804116711E+04  0.13804116711E+04  0.00000000000E+00 0. -1.
         21   -1    0    0  502  503 -0.00000000000E+00 -0.00000000000E+00 -0.91661816666E+02  0.91661816666E+02  0.00000000000E+00 0.  1.
         -6    2    1    2    0  503  0.30634496848E+03 -0.68250728345E+02  0.60300484285E+03  0.69875952998E+03  0.16169303819E+03 0.  0.
        -24    2    3    3    0    0  0.12237441942E+03 -0.15166195894E+02  0.16789628665E+03  0.22336003883E+03  0.80591760421E+02 0.  0.
          6    2    1    2  501    0 -0.30634496848E+03  0.68250728345E+02  0.68574501159E+03  0.77331395779E+03  0.17106389090E+03 0.  0.
         24    2    5    5    0    0 -0.25631619850E+03  0.10875370952E+03  0.51756068908E+03  0.59317116541E+03  0.80359203889E+02 0.  0.
          5    1    5    5  501    0 -0.50028769980E+02 -0.40502981171E+02  0.16818432250E+03  0.18014279238E+03  0.47000000000E+01 0. -1.
        -11    1    6    6    0    0 -0.58484821525E+02 -0.90703449906E+01  0.11802945816E+03  0.13203673164E+03  0.00000000000E+00 0.  1.
         12    1    6    6    0    0 -0.19783137697E+03  0.11782405451E+03  0.39953123092E+03  0.46113443378E+03  0.00000000000E+00 0. -1.
         -5    1    3    3    0  503  0.18397054906E+03 -0.53084532451E+02  0.43510855619E+03  0.47539949114E+03  0.47000000000E+01 0.  1.
         11    1    4    4    0    0  0.35739274485E+02 -0.33069407235E+02  0.10207571745E+03  0.11309435675E+03  0.00000000000E+00 0. -1.
        -12    1    4    4    0    0  0.86635144938E+02  0.17903211341E+02  0.65820569203E+02  0.11026568208E+03  0.00000000000E+00 0.  1.
</event>
<event>
12    1  0.8728348E-002  0.2066364E+03  0.7818608E-02  0.1145388E+00
         21   -1    0    0  503  502  0.00000000000E+00  0.00000000000E+00  0.31613762413E+03  0.31613762413E+03  0.00000000000E+00 0. -1.
         21   -1    0    0  501  503 -0.00000000000E+00 -0.00000000000E+00 -0.14312452976E+03  0.14312452976E+03  0.00000000000E+00 0. -1.
          6    2    1    2  501    0  0.76106985790E+02 -0.70012777353E+02  0.19953190730E+02  0.20211248376E+03  0.17250293908E+03 0.  0.
         24    2    3    3    0    0  0.23747172951E+02 -0.10735494454E+03  0.66493821007E+01  0.13627124459E+03  0.80228582687E+02 0.  0.
         -6    2    1    2    0  502 -0.76106985790E+02  0.70012777353E+02  0.15305990364E+03  0.25714967013E+03  0.17889817346E+03 0.  0.
        -24    2    5    5    0    0 -0.59672236291E+02  0.58314054745E+02  0.23784674521E+02  0.12622550901E+03  0.91683496971E+02 0.  0.
          5    1    3    3  501    0  0.52359812839E+02  0.37342167188E+02  0.13303808629E+02  0.65841239166E+02  0.47000000000E+01 0. -1.
        -13    1    4    4    0    0 -0.20520367789E+02 -0.20733813782E+01  0.78148171868E+01  0.22055742386E+02  0.00000000000E+00 0.  1.
         14    1    4    4    0    0  0.44267540740E+02 -0.10528156316E+03 -0.11654350861E+01  0.11421550221E+03  0.00000000000E+00 0. -1.
         -5    1    5    5    0  502 -0.16434749499E+02  0.11698722608E+02  0.12927522912E+03  0.13092416113E+03  0.47000000000E+01 0.  1.
         11    1    6    6    0    0 -0.32788247125E+02 -0.17746308741E+02 -0.10253254993E+02  0.38666909126E+02  0.00000000000E+00 0. -1.
        -12    1    6    6    0    0 -0.26883989167E+02  0.76060363486E+02  0.34037929514E+02  0.87558599879E+02  0.00000000000E+00 0.  1.
</event>
<event>
12    1  0.8728348E-002  0.2094344E+03  0.7818608E-02  0.1143594E+00
         21   -1    0    0  501  502  0.00000000000E+00  0.00000000000E+00  0.86292019015E+02  0.86292019015E+02  0.00000000000E+00 0.  1.
         21   -1    0    0  502  503 -0.00000000000E+00 -0.00000000000E+00 -0.50387805275E+03  0.50387805275E+03  0.00000000000E+00 0.  1.
         -6    2    1    2    0  503 -0.85059069982E+02  0.59533536826E+02 -0.15524492736E+03  0.25448328133E+03  0.17286256278E+03 0.  0.
        -24    2    3    3    0    0 -0.82022719064E+02  0.25361422799E+02 -0.25260640483E+02  0.11996578195E+03  0.79892181546E+02 0.  0.
          6    2    1    2  501    0  0.85059069982E+02 -0.59533536826E+02 -0.26234110637E+03  0.33568679043E+03  0.18188864117E+03 0.  0.
         24    2    5    5    0    0  0.20303284020E+02  0.36299135568E+02 -0.75600053410E+02  0.11597897588E+03  0.77497768912E+02 0.  0.
          5    1    5    5  501    0  0.64755785962E+02 -0.95832672394E+02 -0.18674105296E+03  0.21970781455E+03  0.47000000000E+01 0. -1.
        -13    1    6    6    0    0  0.41814344510E+02 -0.40241982516E+01 -0.40523327165E+02  0.58367573385E+02  0.00000000000E+00 0.  1.
         14    1    6    6    0    0 -0.21511060490E+02  0.40323333819E+02 -0.35076726244E+02  0.57611402497E+02  0.00000000000E+00 0. -1.
         -5    1    3    3    0  503 -0.30363509177E+01  0.34172114027E+02 -0.12998428688E+03  0.13451749938E+03  0.47000000000E+01 0.  1.
         13    1    4    4    0    0 -0.54346021553E+01 -0.19514465158E+02 -0.23710089504E+02  0.31185214370E+02  0.00000000000E+00 0. -1.
        -14    1    4    4    0    0 -0.76588116909E+02  0.44875887957E+02 -0.15505509790E+01  0.88780567580E+02  0.00000000000E+00 0.  1.
</event>
<event>
12    1  0.8728348E-002  0.1724835E+03  0.7818608E-02  0.1175333E+00
         21   -1    0    0  501  502  0.00000000000E+00  0.00000000000E+00  0.26154988916E+03  0.26154988916E+03  0.00000000000E+00 0.  1.
         21   -1    0    0  502  503 -0.00000000000E+00 -0.00000000000E+00 -0.13055284085E+03  0.13055284085E+03  0.00000000000E+00 0.  1.
         -6    2    1    2    0  503 -0.24048804754E+02 -0.16259708657E+02 -0.50794627284E+01  0.17255823298E+03  0.17002299754E+03 0.  0.
        -24    2    3    3    0    0 -0.22607173404E+01 -0.18161694013E+02  0.60509679604E+02  0.10325914285E+03  0.81646012046E+02 0.  0.
          6    2    1    2  501    0  0.24048804754E+02  0.16259708657E+02  0.13607651104E+03  0.21954449704E+03  0.16982416255E+03 0.  0.
         24    2    5    5    0    0  0.44619053605E+02 -0.57283699080E+01  0.15791033919E+03  0.18205560817E+03  0.78644103894E+02 0.  0.
          5    1    5    5  501    0 -0.20570248851E+02  0.21988078565E+02 -0.21833828150E+02  0.37488888867E+02  0.47000000000E+01 0. -1.
        -11    1    6    6    0    0  0.60240445601E+02 -0.12231349885E+02  0.72804042909E+02  0.95283502613E+02  0.00000000000E+00 0.  1.
         12    1    6    6    0    0 -0.15621391997E+02  0.65029799769E+01  0.85106296278E+02  0.86772105556E+02  0.00000000000E+00 0. -1.
         -5    1    3    3    0  503 -0.21788087414E+02  0.19019853560E+01 -0.65589142332E+02  0.69299090133E+02  0.47000000000E+01 0.  1.
         11    1    4    4    0    0 -0.26046367315E+02 -0.38791727777E+01  0.69316893003E+02  0.74150474627E+02  0.00000000000E+00 0. -1.
        -12    1    4    4    0    0  0.23785649975E+02 -0.14282521236E+02 -0.88072133998E+01  0.29108668218E+02  0.00000000000E+00 0.  1.
</event>
<event>
12    1  0.8728348E-002  0.2818934E+03  0.7818608E-02  0.1094685E+00
         21   -1    0    0  503  502  0.00000000000E+00  0.00000000000E+00  0.10604692756E+04  0.10604692756E+04  0.00000000000E+00 0.  1.
         21   -1    0    0  501  503 -0.00000000000E+00 -0.00000000000E+00 -0.95435697874E+02  0.95435697874E+02  0.00000000000E+00 0. -1.
          6    2    1    2  501    0 -0.21586278050E+03  0.56482280941E+02  0.21443177440E+03  0.35418195052E+03  0.17226978880E+03 0.  0.
         24    2    3    3    0    0 -0.25814428404E+02  0.78899006230E+01  0.38824886037E+02  0.90858072371E+02  0.77583389288E+02 0.  0.
         -6    2    1    2    0  502  0.21586278050E+03 -0.56482280941E+02  0.75060180330E+03  0.80172302293E+03  0.17195857152E+03 0.  0.
        -24    2    5    5    0    0  0.15764461978E+02 -0.12067039595E+02  0.14931643147E+03  0.16644494278E+03  0.70812361676E+02 0.  0.
          5    1    3    3  501    0 -0.19004835210E+03  0.48592380318E+02  0.17560688837E+03  0.26332387815E+03  0.47000000000E+01 0. -1.
        -13    1    4    4    0    0 -0.27235553697E+02 -0.77277751419E+01  0.58919601773E+02  0.65368290224E+02  0.00000000000E+00 0.  1.
         14    1    4    4    0    0  0.14211252926E+01  0.15617675765E+02 -0.20094715735E+02  0.25489782147E+02  0.00000000000E+00 0. -1.
         -5    1    5    5    0  502  0.20009831852E+03 -0.44415241346E+02  0.60128537183E+03  0.63527808015E+03  0.47000000000E+01 0.  1.
         11    1    6    6    0    0  0.89509881559E+01 -0.39929297995E+02  0.59918617806E+02  0.72558319903E+02  0.00000000000E+00 0. -1.
        -12    1    6    6    0    0  0.68134738219E+01  0.27862258400E+02  0.89397813661E+02  0.93886622881E+02  0.00000000000E+00 0.  1.
</event>
<event>
12    1  0.8728348E-002  0.1899951E+03  0.7818608E-02  0.1159030E+00
         21   -1    0    0  501  502  0.00000000000E+00  0.00000000000E+00  0.56158516723E+03  0.56158516723E+03  0.00000000000E+00 0. -1.
         21   -1    0    0  502  503 -0.00000000000E+00 -0.00000000000E+00 -0.64119169902E+02  0.64119169902E+02  0.00000000000E+00 0. -1.
         -6    2    1    2    0  503 -0.55913384606E+02 -0.54138282254E+02  0.28251320567E+03  0.34045827403E+03  0.17332300710E+03 0.  0.
        -24    2    3    3    0    0  0.79400902693E+01 -0.82755097989E+02  0.13498694643E+03  0.17711117254E+03  0.78964805175E+02 0.  0.
          6    2    1    2  501    0  0.55913384606E+02  0.54138282254E+02  0.21495279165E+03  0.28524606310E+03  0.17059705066E+03 0.  0.
         24    2    5    5    0    0 -0.10458495569E+02  0.17390399957E+01  0.38229072264E+02  0.89275988700E+02  0.79977095487E+02 0.  0.
          5    1    5    5  501    0  0.66371880175E+02  0.52399242258E+02  0.17672371939E+03  0.19597007440E+03  0.47000000000E+01 0. -1.
        -13    1    6    6    0    0 -0.40095326311E+02 -0.18572595572E+02  0.15836654847E+02  0.46940133522E+02  0.00000000000E+00 0.  1.
         14    1    6    6    0    0  0.29636830742E+02  0.20311635568E+02  0.22392417417E+02  0.42335855178E+02  0.00000000000E+00 0. -1.
         -5    1    3    3    0  503 -0.63853474876E+02  0.28616815735E+02  0.14752625925E+03  0.16334710149E+03  0.47000000000E+01 0.  1.
         13    1    4    4    0    0 -0.13081014877E+02 -0.55916954568E+02  0.26224491282E+02  0.63131154761E+02  0.00000000000E+00 0. -1.
        -14    1    4    4    0    0  0.21021105147E+02 -0.26838143420E+02  0.10876245515E+03  0.11398001778E+03  0.00000000000E+00 0.  1.
</event>
<event>
12    1  0.8728348E-002  0.2388275E+03  0.7818608E-02  0.1122688E+00
         21   -1    0    0  503  502  0.00000000000E+00  0.00000000000E+00  0.10190113275E+04  0.10190113275E+04  0.00000000000E+00 0.  1.
         21   -1    0    0  501  503 -0.00000000000E+00 -0.00000000000E+00 -0.38633764284E+03  0.38633764284E+03  0.00000000000E+00 0. -1.
          6    2    1    2  501    0  0.13762171188E+03 -0.92273242518E+02 -0.33733816958E+03  0.40636871483E+03  0.15454580185E+03 0.  0.
         24    2    3    3    0    0  0.87312783580E+02 -0.11861980698E+03 -0.22807747211E+03  0.28314079698E+03  0.80344239649E+02 0.  0.
         -6    2    1    2    0  502 -0.13762171188E+03  0.92273242518E+02  0.97001185421E+03  0.99898025547E+03  0.17200135653E+03 0.  0.
        -24    2    5    5    0    0 -0.76002380900E+02 -0.37277296184E+01  0.31116824765E+03  0.33031732356E+03  0.80582864376E+02 0.  0.
          5    1    3    3  501    0  0.50308928303E+02  0.26346564465E+02 -0.10926069748E+03  0.12322791786E+03  0.47000000000E+01 0. -1.
        -13    1    4    4    0    0 -0.28765085453E+01 -0.57279395900E+02 -0.96242775294E+02  0.11203515204E+03  0.00000000000E+00 0.  1.
         14    1    4    4    0    0  0.90189292125E+02 -0.61340411083E+02 -0.13183469681E+03  0.17110564494E+03  0.00000000000E+00 0. -1.
         -5    1    5    5    0  502 -0.61619330983E+02  0.96000972136E+02  0.65884360656E+03  0.66866293191E+03  0.47000000000E+01 0.  1.
         11    1    6    6    0    0 -0.33244546349E+02  0.30989043993E+02  0.74033641380E+02  0.86870597819E+02  0.00000000000E+00 0. -1.
        -12    1    6    6    0    0 -0.42757834552E+02 -0.34716773611E+02  0.23713460627E+03  0.24344672574E+03  0.00000000000E+00 0.  1.
</event>
<event>
12    1  0.8728348E-002  0.3001566E+03  0.7818608E-02  0.1085409E+00
         21   -1    0    0  503  502  0.00000000000E+00  0.00000000000E+00  0.67065943075E+02  0.67065943075E+02  0.00000000000E+00 0. -1.
         21   -1    0    0  501  503 -0.00000000000E+00 -0.00000000000E+00 -0.20691996340E+04  0.20691996340E+04  0.00000000000E+00 0. -1.
          6    2    1    2  501    0 -0.11089927569E+03 -0.21791926975E+03 -0.16396341202E+04  0.16668815318E+04  0.17408772339E+03 0.  0.
         24    2    3    3    0    0 -0.12578604464E+03 -0.14397461975E+03 -0.91360751302E+03  0.93693211472E+03  0.81315924573E+02 0.  0.
         -6    2    1    2    0  502  0.11089927569E+03  0.21791926975E+03 -0.36249957069E+03  0.46938404524E+03  0.17066922893E+03 0.  0.
        -24    2    5    5    0    0  0.50845157986E+02  0.34727577266E+02 -0.16051914171E+03  0.19012811077E+03  0.81185398540E+02 0.  0.
          5    1    3    3  501    0  0.14886768949E+02 -0.73944650003E+02 -0.72602660717E+03  0.72994941707E+03  0.47000000000E+01 0. -1.
        -13    1    4    4    0    0 -0.36341476223E+02 -0.10136425369E+03 -0.42977376185E+03  0.44305857535E+03  0.00000000000E+00 0.  1.
         14    1    4    4    0    0 -0.89444568416E+02 -0.42610366062E+02 -0.48383375117E+03  0.49387353937E+03  0.00000000000E+00 0. -1.
         -5    1    5    5    0  502  0.60054117703E+02  0.18319169249E+03 -0.20198042898E+03  0.27925593447E+03  0.47000000000E+01 0.  1.
         13    1    6    6    0    0  0.65327374315E+02  0.36818174652E+02 -0.85631791376E+02  0.11382463492E+03  0.00000000000E+00 0. -1.
        -14    1    6    6    0    0 -0.14482216329E+02 -0.20905973859E+01 -0.74887350334E+02  0.76303475853E+02  0.00000000000E+00 0.  1.
</event>
<event>
12    1  0.8728348E-002  0.1802190E+03  0.7818608E-02  0.1167757E+00
         21   -1    0    0  503  502  0.00000000000E+00  0.00000000000E+00  0.16831410525E+03  0.16831410525E+03  0.00000000000E+00 0.  1.
         21   -1    0    0  501  503 -0.00000000000E+00 -0.00000000000E+00 -0.19783202829E+03  0.19783202829E+03  0.00000000000E+00 0.  1.
          6    2    1    2  501    0  0.43780987076E+01  0.54558145054E+02  0.16015962847E+02  0.18092924145E+03  0.17170649494E+03 0.  0.
         24    2    3    3    0    0 -0.55960967096E+02  0.82007746868E+01 -0.13950364744E+02  0.99015387684E+02  0.80065921452E+02 0.  0.
         -6    2    1    2    0  502 -0.43780987076E+01 -0.54558145054E+02 -0.45533885887E+02  0.18521689209E+03  0.17098597432E+03 0.  0.
        -24    2    5    5    0    0 -0.19135826884E+02 -0.10033737048E+03 -0.42753624768E+02  0.13680875359E+03  0.80342982524E+02 0.  0.
          5    1    3    3  501    0  0.60339065804E+02  0.46357370367E+02  0.29966327591E+02  0.81913853766E+02  0.47000000000E+01 0. -1.
        -13    1    4    4    0    0 -0.11603525047E+02 -0.16467175183E+02  0.27079182777E+02  0.33750433951E+02  0.00000000000E+00 0.  1.
         14    1    4    4    0    0 -0.44357442049E+02  0.24667949870E+02 -0.41029547521E+02  0.65264953733E+02  0.00000000000E+00 0. -1.
         -5    1    5    5    0  502  0.14757728177E+02  0.45779225430E+02 -0.27802611186E+01  0.48408138508E+02  0.47000000000E+01 0.  1.
         13    1    6    6    0    0  0.28109240559E+01 -0.79408078854E+02  0.56838425842E+01  0.79660845764E+02  0.00000000000E+00 0. -1.
        -14    1    6    6    0    0 -0.21946750940E+02 -0.20929291630E+02 -0.48437467352E+02  0.57147907822E+02  0.00000000000E+00 0.  1.
</event>
<event>
12    1  0.8728348E-002  0.1806844E+03  0.7818608E-02  0.1167184E+00
         21   -1    0    0  503  502  0.00000000000E+00  0.00000000000E+00  0.46428149180E+02  0.46428149180E+02  0.00000000000E+00 0.  1.
         21   -1    0    0  501  503 -0.00000000000E+00 -0.00000000000E+00 -0.10328028203E+04  0.10328028203E+04  0.00000000000E+00 0. -1.
          6    2    1    2  501    0 -0.21136779328E+02 -0.50604381287E+02 -0.79851495117E+03  0.81870201039E+03  0.17216064516E+03 0.  0.
         24    2    3    3    0    0 -0.25168248612E+02 -0.88132160659E+01 -0.74842777770E+03  0.75317667803E+03  0.80124006297E+02 0.  0.
         -6    2    1    2    0  502  0.21136779328E+02  0.50604381287E+02 -0.18785971999E+03  0.26052895912E+03  0.17197818845E+03 0.  0.
        -24    2    5    5    0    0  0.81869995030E+02  0.22356925975E+02 -0.12725649889E+03  0.17007851618E+03  0.74363680184E+02 0.  0.
          5    1    3    3  501    0  0.40314692831E+01 -0.41791165221E+02 -0.50087173465E+02  0.65525332360E+02  0.47000000000E+01 0. -1.
        -13    1    4    4    0    0 -0.27665086672E+02 -0.41548091092E+02 -0.37479528247E+03  0.37810462131E+03  0.00000000000E+00 0.  1.
         14    1    4    4    0    0  0.24968380606E+01  0.32734875026E+02 -0.37363249523E+03  0.37507205673E+03  0.00000000000E+00 0. -1.
         -5    1    5    5    0  502 -0.60733215702E+02  0.28247455312E+02 -0.60603221098E+02  0.90450442942E+02  0.47000000000E+01 0.  1.
         13    1    6    6    0    0  0.60825875238E+02 -0.21229164462E+02 -0.71347258505E+02  0.96129578270E+02  0.00000000000E+00 0. -1.
        -14    1    6    6    0    0  0.21044119792E+02  0.43586090437E+02 -0.55909240389E+02  0.73948937912E+02  0.00000000000E+00 0.  1.
</event>
<event>
12    1  0.8728348E-002  0.2331988E+03  0.7818608E-02  0.1124452E+00
         21   -1    0    0  501  502  0.00000000000E+00  0.00000000000E+00  0.30470493923E+03  0.30470493923E+03  0.00000000000E+00 0.  1.
         21   -1    0    0  502  503 -0.00000000000E+00 -0.00000000000E+00 -0.23165860743E+03  0.23165860743E+03  0.00000000000E+00 0. -1.
         -6    2    1    2    0  503 -0.15176845158E+03 -0.40629628109E+02 -0.92193054792E+02  0.25076128202E+03  0.17232884736E+03 0.  0.
        -24    2    3    3    0    0 -0.35252070537E+02 -0.32472053670E+02  0.10538711612E+02  0.95138279538E+02  0.81505122810E+02 0.  0.
          6    2    1    2  501    0  0.15176845158E+03  0.40629628109E+02  0.16523938659E+03  0.28560226464E+03  0.17198886333E+03 0.  0.
         24    2    5    5    0    0  0.59976863182E+02  0.28109008066E+00  0.15456169431E+03  0.18465770890E+03  0.81313276761E+02 0.  0.
          5    1    5    5  501    0  0.91791588397E+02  0.40348538028E+02  0.10677692283E+02  0.10094455574E+03  0.47000000000E+01 0. -1.
        -13    1    6    6    0    0 -0.29589446425E+01  0.26309627688E+02  0.77071621100E+02  0.81492248965E+02  0.00000000000E+00 0.  1.
         14    1    6    6    0    0  0.62935807825E+02 -0.26028537607E+02  0.77490073212E+02  0.10316545993E+03  0.00000000000E+00 0. -1.
         -5    1    3    3    0  503 -0.11651638104E+03 -0.81575744387E+01 -0.10273176640E+03  0.15562300248E+03  0.47000000000E+01 0.  1.
         11    1    4    4    0    0 -0.21605944576E+02 -0.56292683706E+00 -0.33007734415E+02  0.39454331307E+02  0.00000000000E+00 0. -1.
        -12    1    4    4    0    0 -0.13646125961E+02 -0.31909126833E+02  0.43546446028E+02  0.55683948231E+02  0.00000000000E+00 0.  1.
</event>
<event>
12    1  0.8728348E-002  0.1825807E+03  0.7818608E-02  0.1165522E+00
         21   -1    0    0  503  502  0.00000000000E+00  0.00000000000E+00  0.26896855280E+03  0.26896855280E+03  0.00000000000E+00 0.  1.
         21   -1    0    0  501  503 -0.00000000000E+00 -0.00000000000E+00 -0.13783721220E+03  0.13783721220E+03  0.00000000000E+00 0.  1.
          6    2    1    2  501    0 -0.11222226221E+02  0.57732638301E+02  0.13154993798E+03  0.22503580219E+03  0.17284886519E+03 0.  0.
         24    2    3    3    0    0 -0.43397614365E+02 -0.20950734870E+02  0.92669292457E+02  0.13144027125E+03  0.79791358665E+02 0.  0.
         -6    2    1    2    0  502  0.11222226221E+02 -0.57732638301E+02 -0.41859737284E+00  0.18176996281E+03  0.17199170988E+03 0.  0.
        -24    2    5    5    0    0  0.73896937951E+02 -0.33490353365E+02  0.10713640795E+02  0.11349240723E+03  0.78634491107E+02 0.  0.
          5    1    3    3  501    0  0.32175388144E+02  0.78683373171E+02  0.38880645521E+02  0.93595530940E+02  0.47000000000E+01 0. -1.
        -11    1    4    4    0    0 -0.49414050274E+02  0.14730174153E+02  0.75402763433E+02  0.91347157199E+02  0.00000000000E+00 0.  1.
         12    1    4    4    0    0  0.60164359088E+01 -0.35680909023E+02  0.17266529025E+02  0.40093114051E+02  0.00000000000E+00 0. -1.
         -5    1    5    5    0  502 -0.62674711731E+02 -0.24242284937E+02 -0.11132238168E+02  0.68277555581E+02  0.47000000000E+01 0.  1.
         13    1    6    6    0    0  0.46678906562E+02 -0.54921034406E+02  0.24614554420E+02  0.76165061723E+02  0.00000000000E+00 0. -1.
        -14    1    6    6    0    0  0.27218031389E+02  0.21430681041E+02 -0.13900913625E+02  0.37327345502E+02  0.00000000000E+00 0.  1.
</event>
<event>
12    1  0.8728348E-002  0.1951596E+03  0.7818608E-02  0.1157093E+00
         21   -1    0    0  501  502  0.00000000000E+00  0.00000000000E+00  0.26054395832E+03  0.26054395832E+03  0.00000000000E+00 0. -1.
         21   -1    0    0  502  503 -0.00000000000E+00 -0.00000000000E+00 -0.17541319332E+03  0.17541319332E+03  0.00000000000E+00 0. -1.
         -6    2    1    2    0  503 -0.32373930278E+02  0.76669499591E+02 -0.59743242516E+02  0.20409930964E+03  0.17652475645E+03 0.  0.
        -24    2    3    3    0    0 -0.51044176771E+01  0.11025892760E+03 -0.74724328364E+02  0.15807324176E+03  0.84972573905E+02 0.  0.
          6    2    1    2  501    0  0.32373930278E+02 -0.76669499591E+02  0.14487400752E+03  0.23185784200E+03  0.16075850619E+03 0.  0.
         24    2    5    5    0    0  0.42518611460E+00  0.17057884780E+02  0.57860455260E+02  0.99952599074E+02  0.79696534193E+02 0.  0.
          5    1    5    5  501    0  0.31948744163E+02 -0.93727384372E+02  0.87013552257E+02  0.13190524293E+03  0.47000000000E+01 0. -1.
        -11    1    6    6    0    0 -0.74164848489E+01  0.28648295372E+02  0.73339977668E+02  0.79085279285E+02  0.00000000000E+00 0.  1.
         12    1    6    6    0    0  0.78416709635E+01 -0.11590410592E+02 -0.15479522408E+02  0.20867319789E+02  0.00000000000E+00 0. -1.
         -5    1    3    3    0  503 -0.27269512601E+02 -0.33589428009E+02  0.14981085848E+02  0.46026067881E+02  0.47000000000E+01 0.  1.
         13    1    4    4    0    0 -0.17811029760E+02  0.79754006006E+02 -0.61472664404E+01  0.81949515800E+02  0.00000000000E+00 0. -1.
        -14    1    4    4    0    0  0.12706612083E+02  0.30504921594E+02 -0.68577061924E+02  0.76123725961E+02  0.00000000000E+00 0.  1.
</event>
<event>
12    1  0.8728348E-002  0.2425213E+03  0.7818608E-02  0.1118181E+00
         21   -1    0    0  503  502  0.00000000000E+00  0.00000000000E+00  0.78351853373E+02  0.78351853373E+02  0.00000000000E+00 0. -1.
         21   -1    0    0  501  503 -0.00000000000E+00 -0.00000000000E+00 -0.81538289643E+03  0.81538289643E+03  0.00000000000E+00 0.  1.
          6    2    1    2  501    0  0.17027266512E+03 -0.21322098885E+02 -0.49567183131E+03  0.55182164479E+03  0.17137430062E+03 0.  0.
         24    2    3    3    0    0  0.18466031581E+03 -0.30809937720E+02 -0.36489682410E+03  0.41983219033E+03  0.89781352749E+02 0.  0.
         -6    2    1    2    0  502 -0.17027266512E+03  0.21322098885E+02 -0.24135921175E+03  0.34191310502E+03  0.17088853062E+03 0.  0.
        -24    2    5    5    0    0 -0.68412617155E+02 -0.21401895215E+02 -0.44653024981E+02  0.11626687093E+03  0.79910983796E+02 0.  0.
          5    1    3    3  501    0 -0.14387650683E+02  0.94878388348E+01 -0.13077500720E+03  0.13198945445E+03  0.47000000000E+01 0. -1.
        -13    1    4    4    0    0  0.36611664674E+02 -0.45873484801E+02 -0.96805256957E+02  0.11320798723E+03  0.00000000000E+00 0.  1.
         14    1    4    4    0    0  0.14804865113E+03  0.15063547081E+02 -0.26809156715E+03  0.30662420310E+03  0.00000000000E+00 0. -1.
         -5    1    5    5    0  502 -0.10186004797E+03  0.42723994100E+02 -0.19670618677E+03  0.22564623409E+03  0.47000000000E+01 0.  1.
         13    1    6    6    0    0  0.48961198240E+01  0.21697601184E+02 -0.76020657653E+01  0.23506367018E+02  0.00000000000E+00 0. -1.
        -14    1    6    6    0    0 -0.73308736979E+02 -0.43099496400E+02 -0.37050959215E+02  0.92760503913E+02  0.00000000000E+00 0.  1.
</event>
<event>
12    1  0.8728348E-002  0.1794620E+03  0.7818608E-02  0.1168617E+00
         21   -1    0    0  503  502  0.00000000000E+00  0.00000000000E+00  0.50276568283E+03  0.50276568283E+03  0.00000000000E+00 0. -1.
         21   -1    0    0  501  503 -0.00000000000E+00 -0.00000000000E+00 -0.12466485881E+03  0.12466485881E+03  0.00000000000E+00 0. -1.
          6    2    1    2  501    0 -0.27818350691E+02  0.39415572249E+02 -0.30130992532E+02  0.18197383162E+03  0.17285586687E+03 0.  0.
         24    2    3    3    0    0  0.14697954857E+02  0.84474987376E+02 -0.12532845362E+02  0.11740006053E+03  0.79206367356E+02 0.  0.
         -6    2    1    2    0  502  0.27818350691E+02 -0.39415572249E+02  0.40823181655E+03  0.44545671002E+03  0.17161298461E+03 0.  0.
        -24    2    5    5    0    0  0.11235146924E+02  0.86062456373E+01  0.81133597867E+02  0.11440319123E+03  0.79404870567E+02 0.  0.
          5    1    3    3  501    0 -0.42516305547E+02 -0.45059415127E+02 -0.17598147171E+02  0.64573771090E+02  0.47000000000E+01 0. -1.
        -11    1    4    4    0    0 -0.96068412286E+01  0.94177765235E+01  0.26244035655E+02  0.29491275328E+02  0.00000000000E+00 0.  1.
         12    1    4    4    0    0  0.24304796085E+02  0.75057210853E+02 -0.38776881017E+02  0.87908785199E+02  0.00000000000E+00 0. -1.
         -5    1    5    5    0  502  0.16583203766E+02 -0.48021817886E+02  0.32709821868E+03  0.33105351880E+03  0.47000000000E+01 0.  1.
         11    1    6    6    0    0  0.20578290100E+02 -0.28396177725E+02  0.63106781012E+02  0.72196085368E+02  0.00000000000E+00 0. -1.
        -12    1    6    6    0    0 -0.93431431759E+01  0.37002423362E+02  0.18026816855E+02  0.42207105859E+02  0.00000000000E+00 0.  1.
</event>
<event>
12    1  0.8728348E-002  0.2537426E+03  0.7818608E-02  0.1111405E+00
         21   -1    0    0  501  502  0.00000000000E+00  0.00000000000E+00  0.97203171639E+02  0.97203171639E+02  0.00000000000E+00 0.  1.
         21   -1    0    0  502  503 -0.00000000000E+00 -0.00000000000E+00 -0.17576796351E+04  0.17576796351E+04  0.00000000000E+00 0. -1.
         -6    2    1    2    0  503 -0.10870232621E+03  0.15069253709E+03 -0.15630806497E+04  0.15830901202E+04  0.16860834695E+03 0.  0.
        -24    2    3    3    0    0 -0.65775096719E+02  0.12641473584E+03 -0.14561652848E+04  0.14652548796E+04  0.79040981790E+02 0.  0.
          6    2    1    2  501    0  0.10870232621E+03 -0.15069253709E+03 -0.97395813695E+02  0.27179268650E+03  0.17280301922E+03 0.  0.
         24    2    5    5    0    0  0.10947604918E+03 -0.15933319922E+03 -0.38495088233E+02  0.21207129043E+03  0.78232261182E+02 0.  0.
          5    1    5    5  501    0 -0.77372296985E+00  0.86406621217E+01 -0.58900725462E+02  0.59721396075E+02  0.47000000000E+01 0. -1.
        -11    1    6    6    0    0  0.45360678175E+02 -0.10779141653E+03  0.86313028164E+01  0.11726499900E+03  0.00000000000E+00 0.  1.
         12    1    6    6    0    0  0.64115371001E+02 -0.51541782688E+02 -0.47126391049E+02  0.94806291429E+02  0.00000000000E+00 0. -1.
         -5    1    3    3    0  503 -0.42927229487E+02  0.24277801250E+02 -0.10691536492E+03  0.11783524058E+03  0.47000000000E+01 0.  1.
         11    1    4    4    0    0 -0.33996370367E+02  0.12665392027E+03 -0.11845686286E+04  0.11918052712E+04  0.00000000000E+00 0. -1.
        -12    1    4    4    0    0 -0.31778726352E+02 -0.23918442090E+00 -0.27159665622E+03  0.27344960839E+03  0.00000000000E+00 0.  1.
</event>
<event>
12    1  0.8728348E-002  0.2474748E+03  0.7818608E-02  0.1115032E+00
         21   -1    0    0  503  502  0.00000000000E+00  0.00000000000E+00  0.46926926773E+03  0.46926926773E+03  0.00000000000E+00 0.  1.
         21   -1    0    0  501  503 -0.00000000000E+00 -0.00000000000E+00 -0.15592343539E+03  0.15592343539E+03  0.00000000000E+00 0. -1.
          6    2    1    2  501    0  0.15821260863E+03 -0.76868325469E+02  0.29687870500E+02  0.24924913494E+03  0.17407984555E+03 0.  0.
         24    2    3    3    0    0  0.17277482826E+03 -0.34554644857E+02  0.41949217181E+02  0.20261292123E+03  0.90813513671E+02 0.  0.
         -6    2    1    2    0  502 -0.15821260863E+03  0.76868325469E+02  0.28365796185E+03  0.37594356818E+03  0.17300797134E+03 0.  0.
        -24    2    5    5    0    0 -0.51870877026E+02  0.34466938929E+01  0.46839405289E+02  0.10612062884E+03  0.79782143334E+02 0.  0.
          5    1    3    3  501    0 -0.14562219631E+02 -0.42313680613E+02 -0.12261346681E+02  0.46636213719E+02  0.47000000000E+01 0. -1.
        -13    1    4    4    0    0  0.85097947711E+02 -0.49565286210E+02  0.54857708165E+02  0.11272864076E+03  0.00000000000E+00 0.  1.
         14    1    4    4    0    0  0.87676880545E+02  0.15010641353E+02 -0.12908490983E+02  0.89884280469E+02  0.00000000000E+00 0. -1.
         -5    1    5    5    0  502 -0.10634173160E+03  0.73421631576E+02  0.23681855656E+03  0.26982293934E+03  0.47000000000E+01 0.  1.
         13    1    6    6    0    0  0.13567453121E+02  0.21640630944E+02  0.40920025060E+01  0.25867685948E+02  0.00000000000E+00 0. -1.
        -14    1    6    6    0    0 -0.65438330147E+02 -0.18193937051E+02  0.42747402783E+02  0.80252942890E+02  0.00000000000E+00 0.  1.
</event>
<event>
12    1  0.8728348E-002  0.1871648E+03  0.7818608E-02  0.1161352E+00
         21   -1    0    0  503  502  0.00000000000E+00  0.00000000000E+00  0.20183221261E+03  0.20183221261E+03  0.00000000000E+00 0. -1.
         21   -1    0    0  501  503 -0.00000000000E+00 -0.00000000000E+00 -0.17328181236E+03  0.17328181236E+03  0.00000000000E+00 0.  1.
          6    2    1    2  501    0  0.63229455173E+02  0.36850735166E+02  0.29394694409E+00  0.18582829386E+03  0.17081020962E+03 0.  0.
         24    2    3    3    0    0  0.19337818800E+02 -0.43466177607E+02  0.97470457115E+00  0.94177676559E+02  0.81272534606E+02 0.  0.
         -6    2    1    2    0  502 -0.63229455173E+02 -0.36850735166E+02  0.28256453300E+02  0.18928573111E+03  0.17226351954E+03 0.  0.
        -24    2    5    5    0    0 -0.10618212777E+03 -0.18205214672E+02 -0.14494555672E+01  0.13363396977E+03  0.79056074125E+02 0.  0.
          5    1    3    3  501    0  0.43891636373E+02  0.80316912774E+02 -0.68075762706E+00  0.91650617303E+02  0.47000000000E+01 0. -1.
        -13    1    4    4    0    0  0.13642165589E+02 -0.59658637379E+02  0.23761147070E+02  0.65649476814E+02  0.00000000000E+00 0.  1.
         14    1    4    4    0    0  0.56956532104E+01  0.16192459771E+02 -0.22786442499E+02  0.28528199745E+02  0.00000000000E+00 0. -1.
         -5    1    5    5    0  502  0.42952672599E+02 -0.18645520494E+02  0.29705908867E+02  0.55651761333E+02  0.47000000000E+01 0.  1.
         13    1    6    6    0    0 -0.82760659651E+02  0.53028167598E+00  0.31975973322E+02  0.88724691346E+02  0.00000000000E+00 0. -1.
        -14    1    6    6    0    0 -0.23421468121E+02 -0.18735496348E+02 -0.33425428889E+02  0.44909278426E+02  0.00000000000E+00 0.  1.
</event>
<event>
12    1  0.8728348E-002  0.2000587E+03  0.7818608E-02  0.1150914E+00
         21   -1    0    0  501  502  0.00000000000E+00  0.00000000000E+00  0.60647352098E+02  0.60647352098E+02  0.00000000000E+00 0. -1.
         21   -1    0    0  502  503 -0.00000000000E+00 -0.00000000000E+00 -0.23999546134E+04  0.23999546134E+04  0.00000000000E+00 0. -1.
         -6    2    1    2    0  503  0.91722606365E+02 -0.43958179336E+02 -0.22182945180E+04  0.22267910269E+04  0.16559695274E+03 0.  0.
        -24    2    3    3    0    0  0.79477298664E+01  0.27630355794E+02 -0.85556631224E+03  0.85960654735E+03  0.78122331224E+02 0.  0.
          6    2    1    2  501    0 -0.91722606365E+02  0.43958179336E+02 -0.12101274329E+03  0.23381093860E+03  0.17227336684E+03 0.  0.
         24    2    5    5    0    0 -0.89741768563E+02  0.27718692732E+02 -0.15338343503E+03  0.19723777456E+03  0.80958944034E+02 0.  0.
          5    1    5    5  501    0 -0.19808378015E+01  0.16239486604E+02  0.32370691749E+02  0.36573164040E+02  0.47000000000E+01 0. -1.
        -13    1    6    6    0    0 -0.86836972906E+02  0.46112573405E+02 -0.98052272881E+02  0.13885703982E+03  0.00000000000E+00 0.  1.
         14    1    6    6    0    0 -0.29047956574E+01 -0.18393880673E+02 -0.55331162153E+02  0.58380734744E+02  0.00000000000E+00 0. -1.
         -5    1    3    3    0  503  0.83774876498E+02 -0.71588535130E+02 -0.13627282058E+04  0.13671844796E+04  0.47000000000E+01 0.  1.
         13    1    4    4    0    0 -0.29863802740E+02 -0.78658183239E+01 -0.36614969623E+03  0.36744974875E+03  0.00000000000E+00 0. -1.
        -14    1    4    4    0    0  0.37811532606E+02  0.35496174118E+02 -0.48941661601E+03  0.49215679860E+03  0.00000000000E+00 0.  1.
</event>
<event>
12    1  0.8728348E-002  0.2130790E+03  0.7818608E-02  0.1139162E+00
         21   -1    0    0  501  502  0.00000000000E+00  0.00000000000E+00  0.47182227312E+03  0.47182227312E+03  0.00000000000E+00 0. -1.
         21   -1    0    0  502  503 -0.00000000000E+00 -0.00000000000E+00 -0.28976495483E+03  0.28976495483E+03  0.00000000000E+00 0. -1.
         -6    2    1    2    0  503 -0.12412862614E+03  0.25257615187E+02 -0.22020343804E+03  0.30637697839E+03  0.17126422805E+03 0.  0.
        -24    2    3    3    0    0 -0.10127321053E+03  0.71010304820E+02 -0.14456296068E+03  0.21494804180E+03  0.10002741878E+03 0.  0.
          6    2    1    2  501    0  0.12412862614E+03 -0.25257615187E+02  0.40226075634E+03  0.45521024957E+03  0.17133823936E+03 0.  0.
         24    2    5    5    0    0  0.11671353285E+03  0.35671118540E+02  0.23180610450E+03  0.27398063682E+03  0.80229930958E+02 0.  0.
          5    1    5    5  501    0  0.74150932901E+01 -0.60928733727E+02  0.17045465184E+03  0.18122961275E+03  0.47000000000E+01 0. -1.
        -13    1    6    6    0    0  0.31230299551E+02 -0.24797692557E+02  0.47623076556E+02  0.62114527985E+02  0.00000000000E+00 0.  1.
         14    1    6    6    0    0  0.85483233300E+02  0.60468811098E+02  0.18418302794E+03  0.21186610883E+03  0.00000000000E+00 0. -1.
         -5    1    3    3    0  503 -0.22855415611E+02 -0.45752689633E+02 -0.75640477360E+02  0.91428936594E+02  0.47000000000E+01 0.  1.
         11    1    4    4    0    0 -0.11651416398E+03  0.67904277937E+02 -0.14667757572E+03  0.19925072795E+03  0.00000000000E+00 0. -1.
        -12    1    4    4    0    0  0.15240953450E+02  0.31060268828E+01  0.21146150415E+01  0.15697313841E+02  0.00000000000E+00 0.  1.
</event>
<event>
12    1  0.8728348E-002  0.2908178E+03  0.7818608E-02  0.1089980E+00
         21   -1    0    0  503  502  0.00000000000E+00  0.00000000000E+00  0.16357500385E+03  0.16357500385E+03  0.00000000000E+00 0. -1.
         21   -1    0    0  501  503 -0.00000000000E+00 -0.00000000000E+00 -0.15116244425E+04  0.15116244425E+04  0.00000000000E+00 0.  1.
          6    2    1    2  501    0  0.22160945800E+03  0.77747123775E+02 -0.13535315399E+04  0.13843299767E+04  0.17078198941E+03 0.  0.
         24    2    3    3    0    0  0.18876672802E+03  0.11490356748E+03 -0.12036985053E+04  0.12264335725E+04  0.80084384532E+02 0.  0.
         -6    2    1    2    0  502 -0.22160945800E+03 -0.77747123775E+02  0.54821012348E+01  0.29086946961E+03  0.17152150823E+03 0.  0.
        -24    2    5    5    0    0 -0.23849304333E+03 -0.47138842120E+02  0.16507254740E+01  0.25539142288E+03  0.78237151217E+02 0.  0.
          5    1    3    3  501    0  0.32842729983E+02 -0.37156443706E+02 -0.14983303458E+03  0.15789640424E+03  0.47000000000E+01 0. -1.
        -13    1    4    4    0    0  0.18313708563E+03  0.11397858511E+03 -0.10159063182E+04  0.10385547445E+04  0.00000000000E+00 0.  1.
         14    1    4    4    0    0  0.56296423843E+01  0.92498236970E+00 -0.18779218707E+03  0.18787882794E+03  0.00000000000E+00 0. -1.
         -5    1    5    5    0  502  0.16883585334E+02 -0.30608281655E+02  0.38313757607E+01  0.35478046731E+02  0.47000000000E+01 0.  1.
         13    1    6    6    0    0 -0.79805497530E+02 -0.52998074328E+02 -0.91038599490E+01  0.96231977972E+02  0.00000000000E+00 0. -1.
        -14    1    6    6    0    0 -0.15868754580E+03  0.58592322085E+01  0.10754585423E+02  0.15915944491E+03  0.00000000000E+00 0.  1.
</event>
<event>
12    1  0.8728348E-002  0.2383392E+03  0.7818608E-02  0.1121648E+00
         21   -1    0    0  501  502  0.00000000000E+00  0.00000000000E+00  0.11884235438E+03  0.11884235438E+03  0.00000000000E+00 0.  1.
         21   -1    0    0  502  503 -0.00000000000E+00 -0.00000000000E+00 -0.50809049541E+03  0.50809049541E+03  0.00000000000E+00 0. -1.
         -6    2    1    2    0  503  0.15552266952E+03  0.27161006074E+02 -0.10628046498E+03  0.25696488784E+03  0.17265687175E+03 0.  0.
        -24    2    3    3    0    0  0.16297143462E+03  0.64079519936E+02 -0.10388398569E+03  0.21893471718E+03  0.80465238010E+02 0.  0.
          6    2    1    2  501    0 -0.15552266952E+03 -0.27161006074E+02 -0.28296767605E+03  0.36996796196E+03  0.17855129850E+03 0.  0.
         24    2    5    5    0    0 -0.63506245337E+02  0.54294393874E+02 -0.14385425762E+03  0.18428910562E+03  0.79293774116E+02 0.  0.
          5    1    5    5  501    0 -0.92016424184E+02 -0.81455399948E+02 -0.13911341843E+03  0.18567885633E+03  0.47000000000E+01 0. -1.
        -11    1    6    6    0    0  0.42995827252E+01 -0.12350078653E+02 -0.15803706247E+01  0.13172259702E+02  0.00000000000E+00 0.  1.
         12    1    6    6    0    0 -0.67805828062E+02  0.66644472527E+02 -0.14227388700E+03  0.17111684592E+03  0.00000000000E+00 0. -1.
         -5    1    3    3    0  503 -0.74487650967E+01 -0.36918513862E+02 -0.23964792834E+01  0.38030170657E+02  0.47000000000E+01 0.  1.
         11    1    4    4    0    0 -0.88669149845E+01  0.39322484332E+01 -0.10595237227E+02  0.14364672324E+02  0.00000000000E+00 0. -1.
        -12    1    4    4    0    0  0.17183834960E+03  0.60147271503E+02 -0.93288748467E+02  0.20457004486E+03  0.00000000000E+00 0.  1.
</event>
<event>
12    1  0.8728348E-002  0.2691949E+03  0.7818608E-02  0.1101756E+00
         21   -1    0    0  501  502  0.00000000000E+00  0.00000000000E+00  0.51229855807E+03  0.51229855807E+03  0.00000000000E+00 0.  1.
         21   -1    0    0  502  503 -0.00000000000E+00 -0.00000000000E+00 -0.38550046243E+03  0.38550046243E+03  0.00000000000E+00 0. -1.
         -6    2    1    2    0  503 -0.10376158040E+03 -0.17907423177E+03 -0.29380613992E+03  0.39848204342E+03  0.17213902818E+03 0.  0.
        -24    2    3    3    0    0 -0.93306234645E+02 -0.20504557011E+03 -0.27574102437E+03  0.36483292649E+03  0.79499764083E+02 0.  0.
          6    2    1    2  501    0  0.10376158040E+03  0.17907423177E+03  0.42060423556E+03  0.49931697707E+03  0.17197521498E+03 0.  0.
         24    2    5    5    0    0  0.10464727058E+03  0.20311614605E+03  0.39863304708E+03  0.46639857473E+03  0.80075615853E+02 0.  0.
          5    1    5    5  501    0 -0.88569018153E+00 -0.24041914285E+02  0.21971188482E+02  0.32918402344E+02  0.47000000000E+01 0. -1.
        -11    1    6    6    0    0  0.52898772842E+02  0.14714533065E+03  0.32379935181E+03  0.35957759766E+03  0.00000000000E+00 0.  1.
         12    1    6    6    0    0  0.51748497738E+02  0.55970815404E+02  0.74833695266E+02  0.10682097707E+03  0.00000000000E+00 0. -1.
         -5    1    3    3    0  503 -0.10455345754E+02  0.25971338340E+02 -0.18065115558E+02  0.33649116930E+02  0.47000000000E+01 0.  1.
         13    1    4    4    0    0 -0.68156759060E+02 -0.12120540234E+03 -0.10963736241E+03  0.17707751014E+03  0.00000000000E+00 0. -1.
        -14    1    4    4    0    0 -0.25149475585E+02 -0.83840167768E+02 -0.16610366195E+03  0.18775541635E+03  0.00000000000E+00 0.  1.
</event>
<event>
12    1  0.8728348E-002  0.1842885E+03  0.7818608E-02  0.1163879E+00
         21   -1    0    0  501  502  0.00000000000E+00  0.00000000000E+00  0.33183660323E+03  0.33183660323E+03  0.00000000000E+00 0. -1.
         21   -1    0    0  502  503 -0.00000000000E+00 -0.00000000000E+00 -0.22485103756E+03  0.22485103756E+03  0.00000000000E+00 0. -1.
         -6    2    1    2    0  503  0.40031952470E+02  0.50273627746E+02 -0.15232754060E+03  0.23855944691E+03  0.17197946162E+03 0.  0.
        -24    2    3    3    0    0  0.27129952223E+02  0.27751603917E+02 -0.18008234559E+03  0.20026946954E+03  0.78562226337E+02 0.  0.
          6    2    1    2  501    0 -0.40031952470E+02 -0.50273627746E+02  0.25931310627E+03  0.31812819388E+03  0.17272019508E+03 0.  0.
         24    2    5    5    0    0 -0.88039941574E+02 -0.49048045159E+02  0.13876691043E+03  0.18828311541E+03  0.77701570582E+02 0.  0.
          5    1    5    5  501    0  0.48007989104E+02 -0.12255825872E+01  0.12054619584E+03  0.12984507847E+03  0.47000000000E+01 0. -1.
        -11    1    6    6    0    0 -0.30402840436E+02 -0.60908080770E+02  0.81237502652E+02  0.10598895625E+03  0.00000000000E+00 0.  1.
         12    1    6    6    0    0 -0.57637101138E+02  0.11860035611E+02  0.57529407781E+02  0.82294159161E+02  0.00000000000E+00 0. -1.
         -5    1    3    3    0  503  0.12902000247E+02  0.22522023829E+02  0.27754804987E+02  0.38289977377E+02  0.47000000000E+01 0.  1.
         11    1    4    4    0    0 -0.52559670651E-01 -0.20997222082E+02 -0.10289762110E+03  0.10501812475E+03  0.00000000000E+00 0. -1.
        -12    1    4    4    0    0  0.27182511894E+02  0.48748825999E+02 -0.77184724495E+02  0.95251344791E+02  0.00000000000E+00 0.  1.
</event>
<event>
12    1  0.8728348E-002  0.3751569E+03  0.7818608E-02  0.1052847E+00
         21   -1    0    0  503  502  0.00000000000E+00  0.00000000000E+00  0.22552115815E+03  0.22552115815E+03  0.00000000000E+00 0. -1.
         21   -1    0    0  501  503 -0.00000000000E+00 -0.00000000000E+00 -0.64607620092E+03  0.64607620092E+03  0.00000000000E+00 0. -1.
          6    2    1    2  501    0  0.76634633602E+02  0.32380383741E+03 -0.29443643755E+03  0.47690202152E+03  0.17326549044E+03 0.  0.
         24    2    3    3    0    0  0.55562075081E+02  0.32185692728E+03 -0.22713335286E+03  0.40619390041E+03  0.82005481025E+02 0.  0.
         -6    2    1    2    0  502 -0.76634633602E+02 -0.32380383741E+03 -0.12611860522E+03  0.39469533755E+03  0.17075337394E+03 0.  0.
        -24    2    5    5    0    0 -0.11103001598E+03 -0.19683259874E+03 -0.78138562596E+02  0.25459211750E+03  0.87411526430E+02 0.  0.
          5    1    3    3  501    0  0.21072558520E+02  0.19469101280E+01 -0.67303084693E+02  0.70708121109E+02  0.47000000000E+01 0. -1.
        -13    1    4    4    0    0  0.54306364350E+02  0.16323738797E+03 -0.79566411874E+02  0.18954271270E+03  0.00000000000E+00 0.  1.
         14    1    4    4    0    0  0.12557107308E+01  0.15861953932E+03 -0.14756694099E+03  0.21665118771E+03  0.00000000000E+00 0. -1.
         -5    1    5    5    0  502  0.34395382380E+02 -0.12697123867E+03 -0.47980042623E+02  0.14010322005E+03  0.47000000000E+01 0.  1.
         13    1    6    6    0    0 -0.30234758423E+02 -0.10950102692E+03 -0.25304816697E+01  0.11362666435E+03  0.00000000000E+00 0. -1.
        -14    1    6    6    0    0 -0.80795257559E+02 -0.87331571817E+02 -0.75608080927E+02  0.14096545315E+03  0.00000000000E+00 0.  1.
</event>
<event>
12    1  0.8728348E-002  0.2564912E+03  0.7818608E-02  0.1109295E+00
         21   -1    0    0  503  502  0.00000000000E+00  0.00000000000E+00  0.90375069640E+03  0.90375069640E+03  0.00000000000E+00 0. -1.
         21   -1    0    0  501  503 -0.00000000000E+00 -0.00000000000E+00 -0.10347723281E+03  0.10347723281E+03  0.00000000000E+00 0.  1.
          6    2    1    2  501    0 -0.39702005668E+02  0.18671074083E+03  0.67467587925E+03  0.72178615800E+03  0.17132006842E+03 0.  0.
         24    2    3    3    0    0 -0.46726417804E+02  0.23065067411E+02  0.30561967289E+03  0.31798692293E+03  0.70689060240E+02 0.  0.
         -6    2    1    2    0  502  0.39702005668E+02 -0.18671074083E+03  0.12559758435E+03  0.28544177121E+03  0.17107045788E+03 0.  0.
        -24    2    5    5    0    0  0.75642419126E+02 -0.15494314980E+03  0.13898753233E+03  0.23541903771E+03  0.79846314454E+02 0.  0.
          5    1    3    3  501    0  0.70244121361E+01  0.16364567342E+03  0.36905620636E+03  0.40379923507E+03  0.47000000000E+01 0. -1.
        -13    1    4    4    0    0 -0.36819541351E+02  0.42955174786E+02  0.27105045595E+03  0.27689199219E+03  0.00000000000E+00 0.  1.
         14    1    4    4    0    0 -0.99068764529E+01 -0.19890107376E+02  0.34569216941E+02  0.41094930739E+02  0.00000000000E+00 0. -1.
         -5    1    5    5    0  502 -0.35940413459E+02 -0.31767591038E+02 -0.13389947983E+02  0.50022733501E+02  0.47000000000E+01 0.  1.
         11    1    6    6    0    0  0.72908199932E+02 -0.13983004861E+03  0.14910617426E+03  0.21702695527E+03  0.00000000000E+00 0. -1.
        -12    1    6    6    0    0  0.27342191940E+01 -0.15113101186E+02 -0.10118641925E+02  0.18392082440E+02  0.00000000000E+00 0.  1.
</event>
<event>
12    1  0.8728348E-002  0.2119683E+03  0.7818608E-02  0.1140456E+00
         21   -1    0    0  503  502  0.00000000000E+00  0.00000000000E+00  0.17134306855E+04  0.17134306855E+04  0.00000000000E+00 0. -1.
         21   -1    0    0  501  503 -0.00000000000E+00 -0.00000000000E+00 -0.30966407120E+02  0.30966407120E+02  0.00000000000E+00 0. -1.
          6    2    1    2  501    0 -0.10772553933E+03 -0.53941485080E+02  0.48634178964E+03  0.52963803855E+03  0.17167888598E+03 0.  0.
         24    2    3    3    0    0 -0.13634566490E+03 -0.20168444863E+02  0.31979526479E+03  0.35724440534E+03  0.79734855966E+02 0.  0.
         -6    2    1    2    0  502  0.10772553933E+03  0.53941485080E+02  0.11961224887E+04  0.12147590541E+04  0.17440205200E+03 0.  0.
        -24    2    5    5    0    0  0.11832947969E+03  0.78220382109E+02  0.72787087063E+03  0.74573498619E+03  0.78767832081E+02 0.  0.
          5    1    3    3  501    0  0.28620125568E+02 -0.33773040217E+02  0.16654652485E+03  0.17239363321E+03  0.47000000000E+01 0. -1.
        -13    1    4    4    0    0 -0.28570789363E+02  0.23668722635E+02  0.41840531656E+02  0.55920734305E+02  0.00000000000E+00 0.  1.
         14    1    4    4    0    0 -0.10777487553E+03 -0.43837167498E+02  0.27795473314E+03  0.30132367103E+03  0.00000000000E+00 0. -1.
         -5    1    5    5    0  502 -0.10603940364E+02 -0.24278897029E+02  0.46825161809E+03  0.46902406787E+03  0.47000000000E+01 0.  1.
         13    1    6    6    0    0  0.94089954598E+01  0.28901639689E+02  0.29798552426E+03  0.29953164548E+03  0.00000000000E+00 0. -1.
        -14    1    6    6    0    0  0.10892048423E+03  0.49318742421E+02  0.42988534637E+03  0.44620334071E+03  0.00000000000E+00 0.  1.
</event>
<event>
12    1  0.8728348E-002  0.1906130E+03  0.7818608E-02  0.1161342E+00
         21   -1    0    0  503  502  0.00000000000E+00  0.00000000000E+00  0.33025450573E+03  0.33025450573E+03  0.00000000000E+00 0. -1.
         21   -1    0    0  501  503 -0.00000000000E+00 -0.00000000000E+00 -0.17050736868E+03  0.17050736868E+03  0.00000000000E+00 0. -1.
          6    2    1    2  501    0  0.13108688994E+02  0.80724095858E+02 -0.77172489123E+02  0.20564270844E+03  0.17217756265E+03 0.  0.
         24    2    3    3    0    0  0.62639178335E+02  0.64648861334E+02 -0.79133308880E+01  0.11886365833E+03  0.77219210895E+02 0.  0.
         -6    2    1    2    0  502 -0.13108688994E+02 -0.80724095858E+02  0.23691962617E+03  0.29511916597E+03  0.15580820094E+03 0.  0.
        -24    2    5    5    0    0  0.16547373360E+02 -0.97535990930E+02  0.22569461583E+03  0.25892230551E+03  0.79470847377E+02 0.  0.
          5    1    3    3  501    0 -0.49530489341E+02  0.16075234524E+02 -0.69259158235E+02  0.86779050114E+02  0.47000000000E+01 0. -1.
        -11    1    4    4    0    0  0.27422224474E+02  0.22681955822E+01  0.27544394235E+02  0.38933491496E+02  0.00000000000E+00 0.  1.
         12    1    4    4    0    0  0.35216953861E+02  0.62380665752E+02 -0.35457725123E+02  0.79930166832E+02  0.00000000000E+00 0. -1.
         -5    1    5    5    0  502 -0.29656062354E+02  0.16811895072E+02  0.11225010341E+02  0.36196860464E+02  0.47000000000E+01 0.  1.
         13    1    6    6    0    0 -0.48999476914E+01 -0.38210661458E+02  0.19271144355E+02  0.43074831877E+02  0.00000000000E+00 0. -1.
        -14    1    6    6    0    0  0.21447321051E+02 -0.59325329472E+02  0.20642347147E+03  0.21584747363E+03  0.00000000000E+00 0.  1.
</event>
<event>
12    1  0.8728348E-002  0.2535081E+03  0.7818608E-02  0.1111340E+00
         21   -1    0    0  501  502  0.00000000000E+00  0.00000000000E+00  0.13425239154E+04  0.13425239154E+04  0.00000000000E+00 0. -1.
         21   -1    0    0  502  503 -0.00000000000E+00 -0.00000000000E+00 -0.48755021949E+02  0.48755021949E+02  0.00000000000E+00 0. -1.
         -6    2    1    2    0  503  0.11408799958E+03 -0.14407158588E+03  0.54116474300E+03  0.59759989245E+03  0.17462433647E+03 0.  0.
        -24    2    3    3    0    0  0.62290440485E+02 -0.37872112578E+02  0.39618830402E+03  0.41051281882E+03  0.79001305638E+02 0.  0.
          6    2    1    2  501    0 -0.11408799958E+03  0.14407158588E+03  0.75260415048E+03  0.79367904492E+03  0.17245499565E+03 0.  0.
         24    2    5    5    0    0 -0.77307395246E+02  0.39333172343E+02  0.22271050912E+03  0.25226209905E+03  0.80701077677E+02 0.  0.
          5    1    5    5  501    0 -0.36780604338E+02  0.10473841354E+03  0.52989364136E+03  0.54141694587E+03  0.47000000000E+01 0. -1.
        -13    1    6    6    0    0  0.10060599055E+01 -0.15398946926E+02  0.82887599315E+01  0.17516942204E+02  0.00000000000E+00 0.  1.
         14    1    6    6    0    0 -0.78313455151E+02  0.54732119269E+02  0.21442174919E+03  0.23474515684E+03  0.00000000000E+00 0. -1.
         -5    1    3    3    0  503  0.51797559099E+02 -0.10619947331E+03  0.14497643898E+03  0.18708707363E+03  0.47000000000E+01 0.  1.
         11    1    4    4    0    0  0.13310535878E+02  0.24320093094E+02  0.84682941484E+02  0.89105767893E+02  0.00000000000E+00 0. -1.
        -12    1    4    4    0    0  0.48979904607E+02 -0.62192205671E+02  0.31150536253E+03  0.32140705093E+03  0.00000000000E+00 0.  1.
</event>
<event>
12    1  0.8728348E-002  0.3124492E+03  0.7818608E-02  0.1079181E+00
         21   -1    0    0  503  502  0.00000000000E+00  0.00000000000E+00  0.34087806510E+03  0.34087806510E+03  0.00000000000E+00 0. -1.
         21   -1    0    0  501  503 -0.00000000000E+00 -0.00000000000E+00 -0.77843144881E+03  0.77843144881E+03  0.00000000000E+00 0.  1.
          6    2    1    2  501    0  0.56106249527E+02 -0.25498775248E+03 -0.66373388917E+03  0.73358662635E+03  0.17158087768E+03 0.  0.
         24    2    3    3    0    0  0.91309656662E+02 -0.12867016582E+03 -0.42173683297E+03  0.45830481115E+03  0.85369073253E+02 0.  0.
         -6    2    1    2    0  502 -0.56106249527E+02  0.25498775248E+03  0.22618050546E+03  0.38572288755E+03  0.17163292160E+03 0.  0.
        -24    2    5    5    0    0 -0.37386626132E+02  0.13850460792E+03  0.20848604916E+03  0.26633305946E+03  0.82979392840E+02 0.  0.
          5    1    3    3  501    0 -0.35203407135E+02 -0.12631758666E+03 -0.24199705620E+03  0.27528181521E+03  0.47000000000E+01 0. -1.
        -13    1    4    4    0    0  0.63706342425E+02 -0.10185099912E+03 -0.39103454101E+03  0.40907228743E+03  0.00000000000E+00 0.  1.
         14    1    4    4    0    0  0.27603314237E+02 -0.26819166705E+02 -0.30702291960E+02  0.49232523713E+02  0.00000000000E+00 0. -1.
         -5    1    5    5    0  502 -0.18719623395E+02  0.11648314457E+03  0.17694456293E+02  0.11938982809E+03  0.47000000000E+01 0.  1.
         13    1    6    6    0    0 -0.34363986994E+02  0.14534540453E+03  0.16643428229E+03  0.22362142237E+03  0.00000000000E+00 0. -1.
        -14    1    6    6    0    0 -0.30226391380E+01 -0.68407966151E+01  0.42051766868E+02  0.42711637084E+02  0.00000000000E+00 0.  1.
</event>
<event>
12    1  0.8728348E-002  0.1821112E+03  0.7818608E-02  0.1166227E+00
         21   -1    0    0  501  502  0.00000000000E+00  0.00000000000E+00  0.61428198231E+03  0.61428198231E+03  0.00000000000E+00 0. -1.
         21   -1    0    0  502  503 -0.00000000000E+00 -0.00000000000E+00 -0.87369155977E+02  0.87369155977E+02  0.00000000000E+00 0. -1.
         -6    2    1    2    0  503  0.27755651304E+02  0.45230675704E+02  0.45644351077E+02  0.18774418359E+03  0.17420758158E+03 0.  0.
        -24    2    3    3    0    0  0.50778673594E+02  0.71728852984E+02  0.76153611244E+02  0.14099893880E+03  0.79735978038E+02 0.  0.
          6    2    1    2  501    0 -0.27755651304E+02 -0.45230675704E+02  0.48126847526E+03  0.51390695470E+03  0.17223478920E+03 0.  0.
         24    2    5    5    0    0 -0.75561629680E+02 -0.25908781269E+02  0.22335839188E+03  0.25085097533E+03  0.81586860318E+02 0.  0.
          5    1    5    5  501    0  0.47805978375E+02 -0.19321894435E+02  0.25791008338E+03  0.26305597937E+03  0.47000000000E+01 0. -1.
        -11    1    6    6    0    0 -0.16236084406E+02 -0.48034683159E+02  0.10593673718E+03  0.11744587480E+03  0.00000000000E+00 0.  1.
         12    1    6    6    0    0 -0.59325545274E+02  0.22125901890E+02  0.11742165470E+03  0.13340510054E+03  0.00000000000E+00 0. -1.
         -5    1    3    3    0  503 -0.23023022290E+02 -0.26498177281E+02 -0.30509260167E+02  0.46745244790E+02  0.47000000000E+01 0.  1.
         11    1    4    4    0    0  0.43690855100E+02  0.15875084052E+02  0.24065691364E+00  0.46486202564E+02  0.00000000000E+00 0. -1.
        -12    1    4    4    0    0  0.70878184942E+01  0.55853768932E+02  0.75912954330E+02  0.94512736232E+02  0.00000000000E+00 0.  1.
</event>
<event>
12    1  0.8728348E-002  0.1913030E+03  0.7818608E-02  0.1157633E+00
         21   -1    0    0  503  502  0.00000000000E+00  0.00000000000E+00  0.10558451314E+03  0.10558451314E+03  0.00000000000E+00 0.  1.
         21   -1    0    0  501  503 -0.00000000000E+00 -0.00000000000E+00 -0.54097977297E+03  0.54097977297E+03  0.00000000000E+00 0.  1.
          6    2    1    2  501    0 -0.64801008429E+02  0.50686105850E+02 -0.41228826733E+03  0.45387086794E+03  0.17102309015E+03 0.  0.
         24    2    3    3    0    0 -0.66090154270E+02  0.31051721220E+02 -0.12218869102E+03  0.16306676699E+03  0.79552350057E+02 0.  0.
         -6    2    1    2    0  502  0.64801008429E+02 -0.50686105850E+02 -0.23106992492E+02  0.19269341816E+03  0.17270949100E+03 0.  0.
        -24    2    5    5    0    0  0.18606280972E+02 -0.34711909469E+02 -0.78055482180E+02  0.11900112336E+03  0.80731026944E+02 0.  0.
          5    1    3    3  501    0  0.12891458411E+01  0.19634384630E+02 -0.29009957631E+03  0.29080410095E+03  0.47000000000E+01 0. -1.
        -11    1    4    4    0    0 -0.30158333799E+01  0.43290234381E+02 -0.55664478334E+02  0.70580973299E+02  0.00000000000E+00 0.  1.
         12    1    4    4    0    0 -0.63074320890E+02 -0.12238513161E+02 -0.66524212691E+02  0.92485793689E+02  0.00000000000E+00 0. -1.
         -5    1    5    5    0  502  0.46194727457E+02 -0.15974196381E+02  0.54948489688E+02  0.73692294806E+02  0.47000000000E+01 0.  1.
         11    1    6    6    0    0 -0.22582457229E+02 -0.83050181554E+01 -0.63575815749E+02  0.67976650765E+02  0.00000000000E+00 0. -1.
        -12    1    6    6    0    0  0.41188738200E+02 -0.26406891314E+02 -0.14479666430E+02  0.51024472593E+02  0.00000000000E+00 0.  1.
</event>
<event>
12    1  0.8728348E-002  0.1866130E+03  0.7818608E-02  0.1161995E+00
         21   -1    0    0  503  502  0.00000000000E+00  0.00000000000E+00  0.16406143664E+03  0.16406143664E+03  0.00000000000E+00 0.  1.
         21   -1    0    0  501  503 -0.00000000000E+00 -0.00000000000E+00 -0.41541222895E+03  0.41541222895E+03  0.00000000000E+00 0.  1.
          6    2    1    2  501    0 -0.65494631042E+02 -0.27740740509E+02  0.77688064962E+02  0.20213823172E+03  0.17252632815E+03 0.  0.
         24    2    3    3    0    0 -0.57055462755E+01  0.25089726724E+02  0.82117362316E+02  0.12209136045E+03  0.86608264365E+02 0.  0.
         -6    2    1    2    0  502  0.65494631042E+02  0.27740740509E+02 -0.32903885727E+03  0.37733543388E+03  0.17045927574E+03 0.  0.
        -24    2    5    5    0    0  0.92782852450E+02  0.29683964643E+02 -0.32593602813E+03  0.34940443503E+03  0.79745653936E+02 0.  0.
          5    1    3    3  501    0 -0.59789084766E+02 -0.52830467232E+02 -0.44292973544E+01  0.80046871271E+02  0.47000000000E+01 0. -1.
        -11    1    4    4    0    0  0.19585180047E+02 -0.55901198375E+01  0.79696096307E+02  0.82257501079E+02  0.00000000000E+00 0.  1.
         12    1    4    4    0    0 -0.25290726323E+02  0.30679846561E+02  0.24212660095E+01  0.39833859366E+02  0.00000000000E+00 0. -1.
         -5    1    5    5    0  502 -0.27288221409E+02 -0.19432241345E+01 -0.31028291415E+01  0.27930998843E+02  0.47000000000E+01 0.  1.
         11    1    6    6    0    0  0.67693547383E+01 -0.48991255127E+01  0.20204107368E+01  0.85969560838E+01  0.00000000000E+00 0. -1.
        -12    1    6    6    0    0  0.86013497712E+02  0.34583090156E+02 -0.32795643887E+03  0.34080747895E+03  0.00000000000E+00 0.  1.
</event>
<event>
12    1  0.8728348E-002  0.2155617E+03  0.7818608E-02  0.1137317E+00
         21   -1    0    0  501  502  0.00000000000E+00  0.00000000000E+00  0.14586690839E+03  0.14586690839E+03  0.00000000000E+00 0. -1.
         21   -1    0    0  502  503 -0.00000000000E+00 -0.00000000000E+00 -0.13714152301E+04  0.13714152301E+04  0.00000000000E+00 0.  1.
         -6    2    1    2    0  503  0.11454875066E+03 -0.59836990227E+02 -0.12775487916E+04  0.12955369865E+04  0.17199792673E+03 0.  0.
        -24    2    3    3    0    0  0.94045007052E+02 -0.93152456692E+02 -0.71162475104E+03  0.72824302964E+03  0.80039242796E+02 0.  0.
          6    2    1    2  501    0 -0.11454875066E+03  0.59836990227E+02  0.52000469889E+02  0.22174515198E+03  0.17252530794E+03 0.  0.
         24    2    5    5    0    0 -0.13214397396E+03  0.68637620214E+01  0.16595524942E+02  0.15547785299E+03  0.79930033397E+02 0.  0.
          5    1    5    5  501    0  0.17595223294E+02  0.52973228205E+02  0.35404944947E+02  0.66267298994E+02  0.47000000000E+01 0. -1.
        -11    1    6    6    0    0 -0.80427511242E+01 -0.37280355539E+01 -0.23108294639E+02  0.24750300520E+02  0.00000000000E+00 0.  1.
         12    1    6    6    0    0 -0.12410122283E+03  0.10591797575E+02  0.39703819581E+02  0.13072755247E+03  0.00000000000E+00 0. -1.
         -5    1    3    3    0  503  0.20503743610E+02  0.33315466466E+02 -0.56592404059E+03  0.56729395689E+03  0.47000000000E+01 0.  1.
         11    1    4    4    0    0  0.10053090139E+03 -0.65888237101E+02 -0.64261672150E+03  0.65376140347E+03  0.00000000000E+00 0. -1.
        -12    1    4    4    0    0 -0.64858943346E+01 -0.27264219592E+02 -0.69008029544E+02  0.74481626169E+02  0.00000000000E+00 0.  1.
</event>
<event>
12    1  0.8728348E-002  0.1721005E+03  0.7818608E-02  0.1175764E+00
         21   -1    0    0  503  502  0.00000000000E+00  0.00000000000E+00  0.81490858244E+02  0.81490858244E+02  0.00000000000E+00 0.  1.
         21   -1    0    0  501  503 -0.00000000000E+00 -0.00000000000E+00 -0.53047533270E+03  0.53047533270E+03  0.00000000000E+00 0.  1.
          6    2    1    2  501    0  0.33782207103E+01  0.63244419266E+01 -0.39640317499E+03  0.43201233584E+03  0.17160352630E+03 0.  0.
         24    2    3    3    0    0  0.15295055268E+02 -0.26027719757E+02 -0.38629110217E+03  0.39577675487E+03  0.80666245549E+02 0.  0.
         -6    2    1    2    0  502 -0.33782207103E+01 -0.63244419266E+01 -0.52581299465E+02  0.17995385510E+03  0.17195111506E+03 0.  0.
        -24    2    5    5    0    0  0.62393951016E+02 -0.20965591826E+00 -0.53265586256E+02  0.11372752023E+03  0.78763424891E+02 0.  0.
          5    1    3    3  501    0 -0.11916834558E+02  0.32352161684E+02 -0.10112072820E+02  0.36235580970E+02  0.47000000000E+01 0. -1.
        -11    1    4    4    0    0  0.62009401257E+01  0.15997808586E+02 -0.28777424163E+03  0.28828526789E+03  0.00000000000E+00 0.  1.
         12    1    4    4    0    0  0.90941151421E+01 -0.42025528343E+02 -0.98516860538E+02  0.10749148698E+03  0.00000000000E+00 0. -1.
         -5    1    5    5    0  502 -0.65772171726E+02 -0.61147860083E+01  0.68428679054E+00  0.66226334867E+02  0.47000000000E+01 0.  1.
         11    1    6    6    0    0  0.71566960701E+02 -0.83527426481E+01 -0.15071484622E+02  0.73612144531E+02  0.00000000000E+00 0. -1.
        -12    1    6    6    0    0 -0.91730096857E+01  0.81430867298E+01 -0.38194101634E+02  0.40115375703E+02  0.00000000000E+00 0.  1.
</event>
<event>
12    1  0.8728348E-002  0.2125604E+03  0.7818608E-02  0.1139650E+00
         21   -1    0    0  501  502  0.00000000000E+00  0.00000000000E+00  0.20316866708E+03  0.20316866708E+03  0.00000000000E+00 0.  1.
         21   -1    0    0  502  503 -0.00000000000E+00 -0.00000000000E+00 -0.23852991395E+03  0.23852991395E+03  0.00000000000E+00 0. -1.
         -6    2    1    2    0  503 -0.62066455349E+02 -0.10777741779E+03  0.40664630333E+02  0.21641520804E+03  0.17237666155E+03 0.  0.
        -24    2    3    3    0    0 -0.57977906281E+02 -0.56995906448E+02 -0.40138393460E+02  0.12077684345E+03  0.79787118730E+02 0.  0.
          6    2    1    2  501    0  0.62066455349E+02  0.10777741779E+03 -0.76025877208E+02  0.22528337299E+03  0.17176858699E+03 0.  0.
         24    2    5    5    0    0 -0.28375668221E+02  0.33128131172E+02 -0.51711116270E+02  0.10542682829E+03  0.80858672728E+02 0.  0.
          5    1    5    5  501    0  0.90442123569E+02  0.74649286616E+02 -0.24314760938E+02  0.11985654470E+03  0.47000000000E+01 0. -1.
        -13    1    6    6    0    0 -0.33140986216E+01 -0.78863831080E+01  0.18475369896E+02  0.20359704836E+02  0.00000000000E+00 0.  1.
         14    1    6    6    0    0 -0.25061569599E+02  0.41014514280E+02 -0.70186486166E+02  0.85067123453E+02  0.00000000000E+00 0. -1.
         -5    1    3    3    0  503 -0.40885490677E+01 -0.50781511339E+02  0.80803023794E+02  0.95638364591E+02  0.47000000000E+01 0.  1.
         11    1    4    4    0    0 -0.29135638514E+02  0.17268846248E+02 -0.75477479365E+01  0.34699668316E+02  0.00000000000E+00 0. -1.
        -12    1    4    4    0    0 -0.28842267767E+02 -0.74264752697E+02 -0.32590645524E+02  0.86077175132E+02  0.00000000000E+00 0.  1.
</event>
<event>
12    1  0.8728348E-002  0.1911716E+03  0.7818608E-02  0.1157442E+00
         21   -1    0    0  503  502  0.00000000000E+00  0.00000000000E+00  0.21773155646E+03  0.21773155646E+03  0.00000000000E+00 0.  1.
         21   -1    0    0  501  503 -0.00000000000E+00 -0.00000000000E+00 -0.17344065273E+03  0.17344065273E+03  0.00000000000E+00 0. -1.
          6    2    1    2  501    0  0.42859660185E+02 -0.72669068760E+02 -0.13363873746E+02  0.19163811901E+03  0.17154833578E+03 0.  0.
         24    2    3    3    0    0  0.46405021268E+02 -0.88028526619E+02  0.44000276856E+02  0.13196217490E+03  0.74669563705E+02 0.  0.
         -6    2    1    2    0  502 -0.42859660185E+02  0.72669068760E+02  0.57654777477E+02  0.19953409019E+03  0.17138271720E+03 0.  0.
        -24    2    5    5    0    0  0.42733805267E+02  0.42245081419E+02  0.29281691912E+02  0.10425039631E+03  0.79999391459E+02 0.  0.
          5    1    3    3  501    0 -0.35453610834E+01  0.15359457858E+02 -0.57364150602E+02  0.59675944108E+02  0.47000000000E+01 0. -1.
        -13    1    4    4    0    0  0.48603251002E+02 -0.72070792869E+02  0.19694819334E+01  0.86950296445E+02  0.00000000000E+00 0.  1.
         14    1    4    4    0    0 -0.21982297344E+01 -0.15957733749E+02  0.42030794922E+02  0.45011878456E+02  0.00000000000E+00 0. -1.
         -5    1    5    5    0  502 -0.85593465451E+02  0.30423987341E+02  0.28373085565E+02  0.95283693874E+02  0.47000000000E+01 0.  1.
         13    1    6    6    0    0  0.25397905151E+02 -0.45815417669E+01 -0.21086061872E+02  0.33326657743E+02  0.00000000000E+00 0. -1.
        -14    1    6    6    0    0  0.17335900115E+02  0.46826623186E+02  0.50367753783E+02  0.70923738572E+02  0.00000000000E+00 0.  1.
</event>
<event>
12    1  0.8728348E-002  0.2664389E+03  0.7818608E-02  0.1103374E+00
         21   -1    0    0  501  502  0.00000000000E+00  0.00000000000E+00  0.95609639153E+03  0.95609639153E+03  0.00000000000E+00 0.  1.
         21   -1    0    0  502  503 -0.00000000000E+00 -0.00000000000E+00 -0.74559981589E+02  0.74559981589E+02  0.00000000000E+00 0.  1.
         -6    2    1    2    0  503 -0.15483602177E+02 -0.20354507951E+03  0.40356270256E+03  0.48343746445E+03  0.17081740486E+03 0.  0.
        -24    2    3    3    0    0 -0.58237972822E+01 -0.18429551942E+02  0.10824783464E+03  0.13473410686E+03  0.77859622705E+02 0.  0.
          6    2    1    2  501    0  0.15483602177E+02  0.20354507951E+03  0.47797370738E+03  0.54721890867E+03  0.17122887529E+03 0.  0.
         24    2    5    5    0    0  0.49448015085E+02  0.20052308156E+03  0.34455327322E+03  0.40942988129E+03  0.79128106076E+02 0.  0.
          5    1    5    5  501    0 -0.33964412908E+02  0.30219979440E+01  0.13342043415E+03  0.13778902738E+03  0.47000000000E+01 0. -1.
        -11    1    6    6    0    0 -0.82773346165E+01  0.12738369185E+03  0.18785043651E+03  0.22711870402E+03  0.00000000000E+00 0.  1.
         12    1    6    6    0    0  0.57725349702E+02  0.73139389718E+02  0.15670283671E+03  0.18231117728E+03  0.00000000000E+00 0. -1.
         -5    1    3    3    0  503 -0.96598048946E+01 -0.18511552757E+03  0.29531486792E+03  0.34870335758E+03  0.47000000000E+01 0.  1.
         11    1    4    4    0    0  0.15084750630E+02 -0.34249340076E+02  0.10073182894E+03  0.10745914739E+03  0.00000000000E+00 0. -1.
        -12    1    4    4    0    0 -0.20908547912E+02  0.15819788134E+02  0.75160057062E+01  0.27274959471E+02  0.00000000000E+00 0.  1.
</event>
<event>
12    1  0.8728348E-002  0.2128031E+03  0.7818608E-02  0.1139690E+00
         21   -1    0    0  501  502  0.00000000000E+00  0.00000000000E+00  0.29118798253E+02  0.29118798253E+02  0.00000000000E+00 0.  1.
         21   -1    0    0  502  503 -0.00000000000E+00 -0.00000000000E+00 -0.15637495382E+04  0.15637495382E+04  0.00000000000E+00 0. -1.
         -6    2    1    2    0  503 -0.12460969198E+03 -0.16404542090E+01 -0.86186458315E+03  0.88774755095E+03  0.17249605243E+03 0.  0.
        -24    2    3    3    0    0 -0.10604182782E+03  0.59031359505E+02 -0.67923888981E+03  0.69435657798E+03  0.77691809740E+02 0.  0.
          6    2    1    2  501    0  0.12460969198E+03  0.16404542090E+01 -0.67276615681E+03  0.70512078551E+03  0.17044281736E+03 0.  0.
         24    2    5    5    0    0  0.59431455295E+02  0.64198012016E+02 -0.32028817517E+03  0.34121905686E+03  0.78692102436E+02 0.  0.
          5    1    5    5  501    0  0.65178236689E+02 -0.62557557807E+02 -0.35247798164E+03  0.36390172866E+03  0.47000000000E+01 0. -1.
        -13    1    6    6    0    0 -0.14699083145E+01 -0.16470734349E+02 -0.41474433280E+02  0.44649460650E+02  0.00000000000E+00 0.  1.
         14    1    6    6    0    0  0.60901363610E+02  0.80668746366E+02 -0.27881374189E+03  0.29656959621E+03  0.00000000000E+00 0. -1.
         -5    1    3    3    0  503 -0.18567864164E+02 -0.60671813714E+02 -0.18262569334E+03  0.19339097297E+03  0.47000000000E+01 0.  1.
         11    1    4    4    0    0 -0.57388375397E+02  0.58804975613E+02 -0.55291448650E+03  0.55898647584E+03  0.00000000000E+00 0. -1.
        -12    1    4    4    0    0 -0.48653452423E+02  0.22638389142E+00 -0.12632440331E+03  0.13537010214E+03  0.00000000000E+00 0.  1.
</event>
<event>
12    1  0.8728348E-002  0.1887260E+03  0.7818608E-02  0.1159806E+00
         21   -1    0    0  503  502  0.00000000000E+00  0.00000000000E+00  0.12220150484E+04  0.12220150484E+04  0.00000000000E+00 0.  1.
         21   -1    0    0  501  503 -0.00000000000E+00 -0.00000000000E+00 -0.45818272691E+02  0.45818272691E+02  0.00000000000E+00 0.  1.
          6    2    1    2  501    0 -0.60472696488E+02  0.50372713673E+02  0.20340588436E+03  0.27690466305E+03  0.17061032010E+03 0.  0.
         24    2    3    3    0    0 -0.75943379463E+02  0.49895808257E+02  0.60399530615E+02  0.13298636442E+03  0.76028160946E+02 0.  0.
         -6    2    1    2    0  502  0.60472696488E+02 -0.50372713673E+02  0.97279089136E+03  0.99092865805E+03  0.17153171638E+03 0.  0.
        -24    2    5    5    0    0  0.84021122781E+01  0.34755754157E+02  0.45842268931E+03  0.46694875475E+03  0.81309406314E+02 0.  0.
          5    1    3    3  501    0  0.15470682975E+02  0.47690541577E+00  0.14300635375E+03  0.14391829864E+03  0.47000000000E+01 0. -1.
        -11    1    4    4    0    0  0.47374325694E+01  0.98740560776E+00 -0.12728015650E+02  0.13616924013E+02  0.00000000000E+00 0.  1.
         12    1    4    4    0    0 -0.80680812032E+02  0.48908402649E+02  0.73127546266E+02  0.11936944041E+03  0.00000000000E+00 0. -1.
         -5    1    5    5    0  502  0.52070584210E+02 -0.85128467830E+02  0.51436820205E+03  0.52397990329E+03  0.47000000000E+01 0.  1.
         11    1    6    6    0    0 -0.20449682453E+02  0.46303752322E+02  0.36499001374E+03  0.36848329287E+03  0.00000000000E+00 0. -1.
        -12    1    6    6    0    0  0.28851794731E+02 -0.11547998164E+02  0.93432675568E+02  0.98465461887E+02  0.00000000000E+00 0.  1.
</event>
<event>
12    1  0.8728348E-002  0.2113608E+03  0.7818608E-02  0.1140604E+00
         21   -1    0    0  501  502  0.00000000000E+00  0.00000000000E+00  0.25891601673E+03  0.25891601673E+03  0.00000000000E+00 0. -1.
         21   -1    0    0  502  503 -0.00000000000E+00 -0.00000000000E+00 -0.66921143861E+03  0.66921143861E+03  0.00000000000E+00 0. -1.
         -6    2    1    2    0  503 -0.12213777639E+03 -0.16810188582E+02 -0.60519144802E+03  0.64103827901E+03  0.17167751029E+03 0.  0.
        -24    2    3    3    0    0 -0.14607212319E+03 -0.28328957907E+02 -0.57955546507E+03  0.60382499341E+03  0.81120222784E+02 0.  0.
          6    2    1    2  501    0  0.12213777639E+03  0.16810188582E+02  0.19489602614E+03  0.28708917633E+03  0.17098396211E+03 0.  0.
         24    2    5    5    0    0  0.15620464267E+03  0.18222158797E+02  0.16685680414E+03  0.24269511132E+03  0.79547385322E+02 0.  0.
          5    1    5    5  501    0 -0.34066866272E+02 -0.14119702144E+01  0.28039222001E+02  0.44394065008E+02  0.47000000000E+01 0. -1.
        -11    1    6    6    0    0  0.31865787562E+02  0.11904142959E+02 -0.60763751087E+00  0.34022143670E+02  0.00000000000E+00 0.  1.
         12    1    6    6    0    0  0.12433885510E+03  0.63180158375E+01  0.16746444165E+03  0.20867296765E+03  0.00000000000E+00 0. -1.
         -5    1    3    3    0  503  0.23934346799E+02  0.11518769324E+02 -0.25635982946E+02  0.37213285599E+02  0.47000000000E+01 0.  1.
         13    1    4    4    0    0 -0.78891865223E+02 -0.20397045718E+02 -0.45352551121E+03  0.46078775504E+03  0.00000000000E+00 0. -1.
        -14    1    4    4    0    0 -0.67180257970E+02 -0.79319121886E+01 -0.12602995386E+03  0.14303723837E+03  0.00000000000E+00 0.  1.
</event>
<event>
12    1  0.8728348E-002  0.2712757E+03  0.7818608E-02  0.1100591E+00
         21   -1    0    0  503  502  0.00000000000E+00  0.00000000000E+00  0.22447265926E+03  0.22447265926E+03  0.00000000000E+00 0.  1.
         21   -1    0    0  501  503 -0.00000000000E+00 -0.00000000000E+00 -0.12186372748E+04  0.12186372748E+04  0.00000000000E+00 0. -1.
          6    2    1    2  501    0  0.17368425745E+03 -0.11692139754E+03 -0.11141747690E+04  0.11467239909E+04  0.17249249507E+03 0.  0.
         24    2    3    3    0    0  0.17176000485E+03 -0.10085613914E+03 -0.72269054716E+03  0.75487736114E+03  0.88796077272E+02 0.  0.
         -6    2    1    2    0  502 -0.17368425745E+03  0.11692139754E+03  0.12001015343E+03  0.29638594323E+03  0.17206206998E+03 0.  0.
        -24    2    5    5    0    0 -0.10069364045E+03  0.13540861537E+03  0.11899948835E+03  0.22093716035E+03  0.78598016848E+02 0.  0.
          5    1    3    3  501    0  0.19242526041E+01 -0.16065258404E+02 -0.39148422185E+03  0.39184662973E+03  0.47000000000E+01 0. -1.
        -11    1    4    4    0    0  0.72890168403E+01 -0.24640296167E+02 -0.33349390045E+02  0.42100543680E+02  0.00000000000E+00 0.  1.
         12    1    4    4    0    0  0.16447098801E+03 -0.76215842972E+02 -0.68934115711E+03  0.71277681746E+03  0.00000000000E+00 0. -1.
         -5    1    5    5    0  502 -0.72990617003E+02 -0.18487217830E+02  0.10106650774E+01  0.75448782876E+02  0.47000000000E+01 0.  1.
         13    1    6    6    0    0 -0.39813870266E+02  0.94510546791E+01  0.65364734904E+01  0.41439017674E+02  0.00000000000E+00 0. -1.
        -14    1    6    6    0    0 -0.60879770185E+02  0.12595756069E+03  0.11246301486E+03  0.17949814268E+03  0.00000000000E+00 0.  1.
</event>
<event>
12    1  0.8728348E-002  0.1724560E+03  0.7818608E-02  0.1175451E+00
         21   -1    0    0  501  502  0.00000000000E+00  0.00000000000E+00  0.11585441181E+03  0.11585441181E+03  0.00000000000E+00 0. -1.
         21   -1    0    0  502  503 -0.00000000000E+00 -0.00000000000E+00 -0.54523119683E+03  0.54523119683E+03  0.00000000000E+00 0. -1.
         -6    2    1    2    0  503  0.90868735444E+01  0.39857207289E+01 -0.45531809560E+03  0.48668944932E+03  0.17162049605E+03 0.  0.
        -24    2    3    3    0    0  0.39240754302E+02  0.61433350138E+02 -0.28965800801E+03  0.30871517796E+03  0.78034647364E+02 0.  0.
          6    2    1    2  501    0 -0.90868735444E+01 -0.39857207289E+01  0.25941310578E+02  0.17439615932E+03  0.17217029811E+03 0.  0.
         24    2    5    5    0    0 -0.18207667264E+02  0.12650770274E+02 -0.49411545952E+02  0.96549485027E+02  0.79929600586E+02 0.  0.
          5    1    5    5  501    0  0.91207937197E+01 -0.16636491002E+02  0.75352856530E+02  0.77846674291E+02  0.47000000000E+01 0. -1.
        -11    1    6    6    0    0 -0.10160270741E+02  0.46748806395E+02 -0.30511929645E+02  0.56742046593E+02  0.00000000000E+00 0.  1.
         12    1    6    6    0    0 -0.80473965231E+01 -0.34098036121E+02 -0.18899616307E+02  0.39807438434E+02  0.00000000000E+00 0. -1.
         -5    1    3    3    0  503 -0.30153880758E+02 -0.57447629409E+02 -0.16566008758E+03  0.17797427136E+03  0.47000000000E+01 0.  1.
         11    1    4    4    0    0  0.41508702927E+02  0.46038359675E+02 -0.28611873798E+03  0.29275661428E+03  0.00000000000E+00 0. -1.
        -12    1    4    4    0    0 -0.22679486253E+01  0.15394990463E+02 -0.35392700293E+01  0.15958563678E+02  0.00000000000E+00 0.  1.
</event>
<event>
12    1  0.8728348E-002  0.2901007E+03  0.7818608E-02  0.1090368E+00
         21   -1    0    0  501  502  0.00000000000E+00  0.00000000000E+00  0.20313950202E+03  0.20313950202E+03  0.00000000000E+00 0. -1.
         21   -1    0    0  502  503 -0.00000000000E+00 -0.00000000000E+00 -0.46548294545E+03  0.46548294545E+03  0.00000000000E+00 0.  1.
         -6    2    1    2    0  503 -0.22206807910E+03 -0.71702959724E+02 -0.24298751975E+03  0.37841951536E+03  0.17234514401E+03 0.  0.
        -24    2    3    3    0    0 -0.58065338726E+02 -0.47213232057E+02 -0.42443527213E+02  0.11815690077E+03  0.80987204880E+02 0.  0.
          6    2    1    2  501    0  0.22206807910E+03  0.71702959724E+02 -0.19355923690E+02  0.29020293211E+03  0.17142795523E+03 0.  0.
         24    2    5    5    0    0  0.84451100598E+02 -0.15855117257E+02  0.26466828455E+02  0.12071350993E+03  0.80547410483E+02 0.  0.
          5    1    5    5  501    0  0.13761697850E+03  0.87558076981E+02 -0.45822752146E+02  0.16948942218E+03  0.47000000000E+01 0. -1.
        -11    1    6    6    0    0  0.52498788998E+02 -0.19548055987E+02 -0.23937992363E+02  0.60920249650E+02  0.00000000000E+00 0.  1.
         12    1    6    6    0    0  0.31952311600E+02  0.36929387296E+01  0.50404820818E+02  0.59793260279E+02  0.00000000000E+00 0. -1.
         -5    1    3    3    0  503 -0.16400274038E+03 -0.24489727667E+02 -0.20054399253E+03  0.26026261459E+03  0.47000000000E+01 0.  1.
         13    1    4    4    0    0  0.65975497829E+01  0.15784122854E+02  0.25370304773E+01  0.17294586467E+02  0.00000000000E+00 0. -1.
        -14    1    4    4    0    0 -0.64662888509E+02 -0.62997354912E+02 -0.44980557690E+02  0.10086231430E+03  0.00000000000E+00 0.  1.
</event>
<event>
12    1  0.8728348E-002  0.1928679E+03  0.7818608E-02  0.1156489E+00
         21   -1    0    0  501  502  0.00000000000E+00  0.00000000000E+00  0.36030329001E+03  0.36030329001E+03  0.00000000000E+00 0. -1.
         21   -1    0    0  502  503 -0.00000000000E+00 -0.00000000000E+00 -0.10221402384E+03  0.10221402384E+03  0.00000000000E+00 0.  1.
         -6    2    1    2    0  503  0.49044453612E+02  0.52338519822E+02  0.14410339201E+03  0.24075673531E+03  0.17903446294E+03 0.  0.
        -24    2    3    3    0    0  0.54246904131E+02  0.23769852479E+02  0.55297886352E+01  0.99095280434E+02  0.79256315504E+02 0.  0.
          6    2    1    2  501    0 -0.49044453612E+02 -0.52338519822E+02  0.11398587417E+03  0.22176057855E+03  0.17618256327E+03 0.  0.
         24    2    5    5    0    0  0.14112043291E+02 -0.39770640310E+02  0.62338842232E+01  0.96144990206E+02  0.86163473890E+02 0.  0.
          5    1    5    5  501    0 -0.63156496903E+02 -0.12567879512E+02  0.10775198995E+03  0.12561558834E+03  0.47000000000E+01 0. -1.
        -13    1    6    6    0    0  0.38224495261E+02 -0.53831606414E+02  0.13306926410E+02  0.67350042150E+02  0.00000000000E+00 0.  1.
         14    1    6    6    0    0 -0.24112451970E+02  0.14060966104E+02 -0.70730421868E+01  0.28794948056E+02  0.00000000000E+00 0. -1.
         -5    1    3    3    0  503 -0.52024505187E+01  0.28568667343E+02  0.13857360337E+03  0.14166145487E+03  0.47000000000E+01 0.  1.
         13    1    4    4    0    0  0.60284539175E+02  0.52513880851E+01  0.30226408828E+02  0.67641987929E+02  0.00000000000E+00 0. -1.
        -14    1    4    4    0    0 -0.60376350449E+01  0.18518464394E+02 -0.24696620192E+02  0.31453292504E+02  0.00000000000E+00 0.  1.
</event>
<event>
12    1  0.8728348E-002  0.2140860E+03  0.7818608E-02  0.1138554E+00
         21   -1    0    0  503  502  0.00000000000E+00  0.00000000000E+00  0.53901874365E+03  0.53901874365E+03  0.00000000000E+00 0.  1.
         21   -1    0    0  501  503 -0.00000000000E+00 -0.00000000000E+00 -0.85701512760E+02  0.85701512760E+02  0.00000000000E+00 0.  1.
          6    2    1    2  501    0  0.32480905055E+02 -0.12136788985E+03  0.19263496680E+03  0.28799483975E+03  0.17334250319E+03 0.  0.
         24    2    3    3    0    0  0.47255754411E+02 -0.15266670817E+03  0.16762114500E+03  0.24503330484E+03  0.80026508886E+02 0.  0.
         -6    2    1    2    0  502 -0.32480905055E+02  0.12136788985E+03  0.26068226409E+03  0.33672541665E+03  0.17217313823E+03 0.  0.
        -24    2    5    5    0    0 -0.26990279481E+02  0.26158399614E+01  0.15728943826E+03  0.17910447022E+03  0.81259621317E+02 0.  0.
          5    1    3    3  501    0 -0.14774849356E+02  0.31298818312E+02  0.25013821800E+02  0.42961534915E+02  0.47000000000E+01 0. -1.
        -13    1    4    4    0    0  0.23888305935E+02 -0.63548827431E+02  0.12770095173E+03  0.14462585420E+03  0.00000000000E+00 0.  1.
         14    1    4    4    0    0  0.23367448476E+02 -0.89117880734E+02  0.39920193262E+02  0.10040745064E+03  0.00000000000E+00 0. -1.
         -5    1    5    5    0  502 -0.54906255738E+01  0.11875204989E+03  0.10339282583E+03  0.15762094644E+03  0.47000000000E+01 0.  1.
         13    1    6    6    0    0  0.17940810010E+02 -0.26557877214E+02  0.61653292691E+02  0.69486128152E+02  0.00000000000E+00 0. -1.
        -14    1    6    6    0    0 -0.44931089491E+02  0.29173717175E+02  0.95636145573E+02  0.10961834206E+03  0.00000000000E+00 0.  1.
</event>
<event>
12    1  0.8728348E-002  0.1867163E+03  0.7818608E-02  0.1161589E+00
         21   -1    0    0  503  502  0.00000000000E+00  0.00000000000E+00  0.19555495181E+03  0.19555495181E+03  0.00000000000E+00 0. -1.
         21   -1    0    0  501  503 -0.00000000000E+00 -0.00000000000E+00 -0.32500335595E+03  0.32500335595E+03  0.00000000000E+00 0. -1.
          6    2    1    2  501    0  0.67461718496E+02  0.22185280215E+02 -0.23987865080E+03  0.30363019094E+03  0.17206468440E+03 0.  0.
         24    2    3    3    0    0  0.72413493890E+02 -0.62610088658E+01 -0.64663718254E+02  0.12598989700E+03  0.80057125594E+02 0.  0.
         -6    2    1    2    0  502 -0.67461718496E+02 -0.22185280215E+02  0.11043024666E+03  0.21692811683E+03  0.17268381039E+03 0.  0.
        -24    2    5    5    0    0 -0.71631305689E+02  0.44368509290E+02  0.42012308676E+02  0.12127302500E+03  0.76436273720E+02 0.  0.
          5    1    3    3  501    0 -0.49517753949E+01  0.28446289081E+02 -0.17521493255E+03  0.17764029394E+03  0.47000000000E+01 0. -1.
        -11    1    4    4    0    0  0.77151886087E+02  0.13088389186E+02 -0.25938324867E+02  0.82440985894E+02  0.00000000000E+00 0.  1.
         12    1    4    4    0    0 -0.47383921968E+01 -0.19349398052E+02 -0.38725393387E+02  0.43548911107E+02  0.00000000000E+00 0. -1.
         -5    1    5    5    0  502  0.41695871938E+01 -0.66553789505E+02  0.68417937983E+02  0.95655091828E+02  0.47000000000E+01 0.  1.
         11    1    6    6    0    0 -0.21111573746E+02  0.57671456728E+02  0.20072369667E+02  0.64611109658E+02  0.00000000000E+00 0. -1.
        -12    1    6    6    0    0 -0.50519731944E+02 -0.13302947438E+02  0.21939939009E+02  0.56661915340E+02  0.00000000000E+00 0.  1.
</event>
<event>
12    1  0.8728348E-002  0.2111077E+03  0.7818608E-02  0.1140844E+00
         21   -1    0    0  501  502  0.00000000000E+00  0.00000000000E+00  0.41848665687E+03  0.41848665687E+03  0.00000000000E+00 0.  1.
         21   -1    0    0  502  503 -0.00000000000E+00 -0.00000000000E+00 -0.26381035496E+03  0.26381035496E+03  0.00000000000E+00 0. -1.
         -6    2    1    2    0  503 -0.65862735491E+02  0.10130189741E+03 -0.18637152780E+03  0.28160402047E+03  0.17310835805E+03 0.  0.
        -24    2    3    3    0    0 -0.88433031636E+02  0.23948421321E+02 -0.14158872168E+03  0.18929709628E+03  0.85977302727E+02 0.  0.
          6    2    1    2  501    0  0.65862735491E+02 -0.10130189741E+03  0.34104782971E+03  0.40069299136E+03  0.17216642190E+03 0.  0.
         24    2    5    5    0    0  0.12779391364E+01 -0.45483202323E+02  0.66504967788E+02  0.11314682867E+03  0.79428831520E+02 0.  0.
          5    1    5    5  501    0  0.64584796355E+02 -0.55818695084E+02  0.27454286193E+03  0.28754616269E+03  0.47000000000E+01 0. -1.
        -13    1    6    6    0    0  0.13708033012E+02 -0.56490249471E+02  0.16453427423E+02  0.60413357201E+02  0.00000000000E+00 0.  1.
         14    1    6    6    0    0 -0.12430093876E+02  0.11007047148E+02  0.50051540365E+02  0.52733471473E+02  0.00000000000E+00 0. -1.
         -5    1    3    3    0  503  0.22570296145E+02  0.77353476086E+02 -0.44782806123E+02  0.92306924198E+02  0.47000000000E+01 0.  1.
         13    1    4    4    0    0 -0.77033975439E+02  0.12696573114E+02 -0.42439565092E+02  0.88862551313E+02  0.00000000000E+00 0. -1.
        -14    1    4    4    0    0 -0.11399056198E+02  0.11251848207E+02 -0.99149156586E+02  0.10043454496E+03  0.00000000000E+00 0.  1.
</event>
<event>
12    1  0.8728348E-002  0.2356302E+03  0.7818608E-02  0.1122788E+00
         21   -1    0    0  503  502  0.00000000000E+00  0.00000000000E+00  0.14878905823E+03  0.14878905823E+03  0.00000000000E+00 0.  1.
         21   -1    0    0  501  503 -0.00000000000E+00 -0.00000000000E+00 -0.37648674390E+03  0.37648674390E+03  0.00000000000E+00 0. -1.
          6    2    1    2  501    0 -0.16124851052E+03  0.11406504360E+01 -0.87571680650E+02  0.25137702040E+03  0.17181159422E+03 0.  0.
         24    2    3    3    0    0 -0.70046113403E+02  0.39143040196E+02  0.77567694610E+01  0.11400285155E+03  0.80609224601E+02 0.  0.
         -6    2    1    2    0  502  0.16124851052E+03 -0.11406504360E+01 -0.14012600502E+03  0.27389878173E+03  0.17141429964E+03 0.  0.
        -24    2    5    5    0    0  0.93097261058E+02 -0.53501993959E+02 -0.11158252344E+03  0.18321734240E+03  0.97920231026E+02 0.  0.
          5    1    3    3  501    0 -0.91202397115E+02 -0.38002389760E+02 -0.95328450111E+02  0.13737416885E+03  0.47000000000E+01 0. -1.
        -13    1    4    4    0    0 -0.73276024038E+01 -0.23316763254E+02  0.72251758196E+01  0.25486631226E+02  0.00000000000E+00 0.  1.
         14    1    4    4    0    0 -0.62718510999E+02  0.62459803450E+02  0.53159364139E+00  0.88516220325E+02  0.00000000000E+00 0. -1.
         -5    1    5    5    0  502  0.68151249460E+02  0.52361343523E+02 -0.28543481588E+02  0.90681439334E+02  0.47000000000E+01 0.  1.
         11    1    6    6    0    0  0.71352351625E+02 -0.53535258482E+01 -0.10891868007E+03  0.13031921266E+03  0.00000000000E+00 0. -1.
        -12    1    6    6    0    0  0.21744909433E+02 -0.48148468111E+02 -0.26638433681E+01  0.52898129732E+02  0.00000000000E+00 0.  1.
</event>
<event>
12    1  0.8728348E-002  0.1985045E+03  0.7818608E-02  0.1151379E+00
         21   -1    0    0  501  502  0.00000000000E+00  0.00000000000E+00  0.50722937961E+03  0.50722937961E+03  0.00000000000E+00 0.  1.
         21   -1    0    0  502  503 -0.00000000000E+00 -0.00000000000E+00 -0.20057820128E+03  0.20057820128E+03  0.00000000000E+00 0.  1.
         -6    2    1    2    0  503 -0.98206630793E+01  0.95733526546E+02 -0.12471310507E+03  0.23296108495E+03  0.17162795517E+03 0.  0.
        -24    2    3    3    0    0 -0.58097836724E+02  0.10590669525E+03 -0.85884266053E+02  0.17000119616E+03  0.83262913774E+02 0.  0.
          6    2    1    2  501    0  0.98206630793E+01 -0.95733526546E+02  0.43136428340E+03  0.47484649594E+03  0.17361652049E+03 0.  0.
         24    2    5    5    0    0  0.46082458149E+01 -0.12592062420E+03  0.24692128572E+03  0.28781778277E+03  0.77406170340E+02 0.  0.
          5    1    5    5  501    0  0.52124172644E+01  0.30187097657E+02  0.18444299768E+03  0.18702871318E+03  0.47000000000E+01 0. -1.
        -11    1    6    6    0    0  0.29266648407E+02 -0.11808351036E+03  0.21078983134E+03  0.24337749511E+03  0.00000000000E+00 0.  1.
         12    1    6    6    0    0 -0.24658402592E+02 -0.78371138421E+01  0.36131454376E+02  0.44440287658E+02  0.00000000000E+00 0. -1.
         -5    1    3    3    0  503  0.48277173644E+02 -0.10173168706E+02 -0.38828839020E+02  0.62959888788E+02  0.47000000000E+01 0.  1.
         13    1    4    4    0    0  0.20515896563E+02  0.15784060505E+02 -0.24212481944E+02  0.35444080743E+02  0.00000000000E+00 0. -1.
        -14    1    4    4    0    0 -0.78613733287E+02  0.90122634747E+02 -0.61671784108E+02  0.13455711542E+03  0.00000000000E+00 0.  1.
</event>
<event>
12    1  0.8728348E-002  0.2397605E+03  0.7818608E-02  0.1120296E+00
         21   -1    0    0  501  502  0.00000000000E+00  0.00000000000E+00  0.15162208498E+04  0.15162208498E+04  0.00000000000E+00 0. -1.
         21   -1    0    0  502  503 -0.00000000000E+00 -0.00000000000E+00 -0.55253692464E+02  0.55253692464E+02  0.00000000000E+00 0. -1.
         -6    2    1    2    0  503 -0.15821106584E+03 -0.44441717447E+02  0.28408814008E+03  0.37042111601E+03  0.17175541984E+03 0.  0.
        -24    2    3    3    0    0 -0.69416728537E+02 -0.85430990643E+02  0.13740390979E+03  0.19406094967E+03  0.81625249756E+02 0.  0.
          6    2    1    2  501    0  0.15821106584E+03  0.44441717447E+02  0.11768790173E+04  0.12010534263E+04  0.17458322907E+03 0.  0.
         24    2    5    5    0    0  0.12660847008E+03  0.85443117009E+02  0.70818133282E+03  0.72948217160E+03  0.85400278635E+02 0.  0.
          5    1    5    5  501    0  0.31602595759E+02 -0.41001399562E+02  0.46869768445E+03  0.47157125467E+03  0.47000000000E+01 0. -1.
        -13    1    6    6    0    0 -0.42929276442E+01  0.22326019974E+02  0.18843423571E+03  0.18980079448E+03  0.00000000000E+00 0.  1.
         14    1    6    6    0    0  0.13090139772E+03  0.63117097035E+02  0.51974709710E+03  0.53968137712E+03  0.00000000000E+00 0. -1.
         -5    1    3    3    0  503 -0.88794337300E+02  0.40989273197E+02  0.14668423030E+03  0.17636016634E+03  0.47000000000E+01 0.  1.
         13    1    4    4    0    0 -0.42204691498E+02 -0.50783458123E+02  0.20515144448E+02  0.69145258370E+02  0.00000000000E+00 0. -1.
        -14    1    4    4    0    0 -0.27212037039E+02 -0.34647532520E+02  0.11688876534E+03  0.12491569130E+03  0.00000000000E+00 0.  1.
</event>
<event>
12    1  0.8728348E-002  0.2204587E+03  0.7818608E-02  0.1133876E+00
         21   -1    0    0  503  502  0.00000000000E+00  0.00000000000E+00  0.82957517528E+03  0.82957517528E+03  0.00000000000E+00 0.  1.
         21   -1    0    0  501  503 -0.00000000000E+00 -0.00000000000E+00 -0.10048322951E+03  0.10048322951E+03  0.00000000000E+00 0.  1.
          6    2    1    2  501    0  0.53180524996E+02  0.12105097876E+03  0.61712469083E+02  0.22720891202E+03  0.17416645246E+03 0.  0.
         24    2    3    3    0    0  0.19709057144E+01  0.14200075925E+03  0.52797877232E+02  0.17096943872E+03  0.79213843720E+02 0.  0.
         -6    2    1    2    0  502 -0.53180524996E+02 -0.12105097876E+03  0.66737947668E+03  0.70284949278E+03  0.17641013547E+03 0.  0.
        -24    2    5    5    0    0 -0.20642794029E+02 -0.94211606655E+02  0.64017012804E+03  0.65243625557E+03  0.80952597101E+02 0.  0.
          5    1    3    3  501    0  0.51209619282E+02 -0.20949780490E+02  0.89145918513E+01  0.56239473304E+02  0.47000000000E+01 0. -1.
        -13    1    4    4    0    0 -0.20034496666E+02  0.27276986643E+02 -0.13747550383E+02  0.36529579774E+02  0.00000000000E+00 0.  1.
         14    1    4    4    0    0  0.22005402380E+02  0.11472377261E+03  0.66545427615E+02  0.13443985894E+03  0.00000000000E+00 0. -1.
         -5    1    5    5    0  502 -0.32537730967E+02 -0.26839372108E+02  0.27209348644E+02  0.50413237203E+02  0.47000000000E+01 0.  1.
         11    1    6    6    0    0  0.72526556636E+01 -0.91160079333E+02  0.56178683697E+03  0.56918117614E+03  0.00000000000E+00 0. -1.
        -12    1    6    6    0    0 -0.27895449693E+02 -0.30515273216E+01  0.78383291065E+02  0.83255079429E+02  0.00000000000E+00 0.  1.
</event>
<event>
12    1  0.8728348E-002  0.2740810E+03  0.7818608E-02  0.1099070E+00
         21   -1    0    0  503  502  0.00000000000E+00  0.00000000000E+00  0.27632259071E+03  0.27632259071E+03  0.00000000000E+00 0.  1.
         21   -1    0    0  501  503 -0.00000000000E+00 -0.00000000000E+00 -0.27329530114E+03  0.27329530114E+03  0.00000000000E+00 0.  1.
          6    2    1    2  501    0  0.39818380468E+02  0.20866027093E+03 -0.22957978070E+02  0.27430785190E+03  0.17202650020E+03 0.  0.
         24    2    3    3    0    0  0.14491918986E+02  0.17697356589E+03  0.40271524289E+02  0.19903809107E+03  0.80403403455E+02 0.  0.
         -6    2    1    2    0  502 -0.39818380468E+02 -0.20866027093E+03  0.25985267637E+02  0.27531003995E+03  0.17319287478E+03 0.  0.
        -24    2    5    5    0    0 -0.22381245322E+02 -0.22564904942E+03  0.44654557406E+02  0.24427289032E+03  0.79099948190E+02 0.  0.
          5    1    3    3  501    0  0.25326461482E+02  0.31686705041E+02 -0.63229502359E+02  0.75269760835E+02  0.47000000000E+01 0. -1.
        -13    1    4    4    0    0  0.33375122792E+02  0.15468655234E+03  0.12510760958E+02  0.15873987349E+03  0.00000000000E+00 0.  1.
         14    1    4    4    0    0 -0.18883203806E+02  0.22287013547E+02  0.27760763332E+02  0.40298217573E+02  0.00000000000E+00 0. -1.
         -5    1    5    5    0  502 -0.17437135147E+02  0.16988778487E+02 -0.18669289769E+02  0.31037149629E+02  0.47000000000E+01 0.  1.
         11    1    6    6    0    0  0.11494450733E+02 -0.46362562654E+01  0.13818785680E+02  0.18562761311E+02  0.00000000000E+00 0. -1.
        -12    1    6    6    0    0 -0.33875696054E+02 -0.22101279315E+03  0.30835771726E+02  0.22571012901E+03  0.00000000000E+00 0.  1.
</event>
<event>
12    1  0.8728348E-002  0.2138145E+03  0.7818608E-02  0.1138666E+00
         21   -1    0    0  501  502  0.00000000000E+00  0.00000000000E+00  0.54456743307E+03  0.54456743307E+03  0.00000000000E+00 0. -1.
         21   -1    0    0  502  503 -0.00000000000E+00 -0.00000000000E+00 -0.86689371527E+02  0.86689371527E+02  0.00000000000E+00 0. -1.
         -6    2    1    2    0  503  0.10282330419E+03 -0.73171591081E+02  0.28702239113E+03  0.35790848727E+03  0.17259756264E+03 0.  0.
        -24    2    3    3    0    0  0.21139435368E+02 -0.44730590559E+02  0.24325456826E+03  0.26085768999E+03  0.80163882060E+02 0.  0.
          6    2    1    2  501    0 -0.10282330419E+03  0.73171591081E+02  0.17085567042E+03  0.27334831732E+03  0.17204920472E+03 0.  0.
         24    2    5    5    0    0 -0.22156313501E+02  0.57980800305E+02  0.16016833770E+03  0.19043732534E+03  0.82218021450E+02 0.  0.
          5    1    5    5  501    0 -0.80666990685E+02  0.15190790776E+02  0.10687332720E+02  0.82910991980E+02  0.47000000000E+01 0. -1.
        -13    1    6    6    0    0  0.22434681986E+02  0.51934663648E+02  0.73165601580E+02  0.92486374664E+02  0.00000000000E+00 0.  1.
         14    1    6    6    0    0 -0.44590995486E+02  0.60461366575E+01  0.87002736118E+02  0.97950950680E+02  0.00000000000E+00 0. -1.
         -5    1    3    3    0  503  0.81683868817E+02 -0.28441000521E+02  0.43767822867E+02  0.97050797287E+02  0.47000000000E+01 0.  1.
         13    1    4    4    0    0 -0.13434070467E+02 -0.50064926067E+02  0.19148223082E+03  0.19837443331E+03  0.00000000000E+00 0. -1.
        -14    1    4    4    0    0  0.34573505835E+02  0.53343355075E+01  0.51772337442E+02  0.62483256679E+02  0.00000000000E+00 0.  1.
</event>
<event>
12    1  0.8728348E-002  0.1744784E+03  0.7818608E-02  0.1173393E+00
         21   -1    0    0  503  502  0.00000000000E+00  0.00000000000E+00  0.38918139886E+02  0.38918139886E+02  0.00000000000E+00 0. -1.
         21   -1    0    0  501  503 -0.00000000000E+00 -0.00000000000E+00 -0.15185386234E+04  0.15185386234E+04  0.00000000000E+00 0. -1.
          6    2    1    2  501    0 -0.17823421717E+02  0.23793706495E+02 -0.12835469911E+04  0.12953515370E+04  0.17192705166E+03 0.  0.
         24    2    3    3    0    0  0.25366094772E+02  0.13689909473E+01 -0.32276693284E+03  0.33332834983E+03  0.79271577305E+02 0.  0.
         -6    2    1    2    0  502  0.17823421717E+02 -0.23793706495E+02 -0.19607349240E+03  0.26210522632E+03  0.17137829621E+03 0.  0.
        -24    2    5    5    0    0  0.43633123125E+02 -0.72690040027E+02 -0.11021968734E+03  0.15988019043E+03  0.78902499717E+02 0.  0.
          5    1    3    3  501    0 -0.43189516489E+02  0.22424715548E+02 -0.96078005826E+03  0.96202318712E+03  0.47000000000E+01 0. -1.
        -11    1    4    4    0    0  0.21622044214E+02 -0.18407717278E+02 -0.30547668192E+03  0.30679367667E+03  0.00000000000E+00 0.  1.
         12    1    4    4    0    0  0.37440505574E+01  0.19776708225E+02 -0.17290250920E+02  0.26534673159E+02  0.00000000000E+00 0. -1.
         -5    1    5    5    0  502 -0.25809701408E+02  0.48896333532E+02 -0.85853805061E+02  0.10222503589E+03  0.47000000000E+01 0.  1.
         11    1    6    6    0    0 -0.43262440758E+01 -0.67408818285E+02 -0.62863154965E+02  0.92273730945E+02  0.00000000000E+00 0. -1.
        -12    1    6    6    0    0  0.47959367201E+02 -0.52812217423E+01 -0.47356532376E+02  0.67606459485E+02  0.00000000000E+00 0.  1.
</event>
<event>
12    1  0.8728348E-002  0.1775652E+03  0.7818608E-02  0.1170349E+00
         21   -1    0    0  501  502  0.00000000000E+00  0.00000000000E+00  0.99900516091E+02  0.99900516091E+02  0.00000000000E+00 0.  1.
         21   -1    0    0  502  503 -0.00000000000E+00 -0.00000000000E+00 -0.34498004209E+03  0.34498004209E+03  0.00000000000E+00 0.  1.
         -6    2    1    2    0  503  0.56761810790E+01 -0.42995250735E+02 -0.18898474681E+03  0.25931573220E+03  0.17218769939E+03 0.  0.
        -24    2    3    3    0    0 -0.14355903442E+02 -0.93718994388E+02 -0.11968814476E+03  0.17100779577E+03  0.77000469775E+02 0.  0.
          6    2    1    2  501    0 -0.56761810790E+01  0.42995250735E+02 -0.56094779184E+02  0.18556482598E+03  0.17148431348E+03 0.  0.
         24    2    5    5    0    0  0.66255750509E+00  0.57585779955E+02 -0.99007653795E+02  0.13955756615E+03  0.79732287835E+02 0.  0.
          5    1    5    5  501    0 -0.63387385841E+01 -0.14590529220E+02  0.42912874611E+02  0.46007259831E+02  0.47000000000E+01 0. -1.
        -11    1    6    6    0    0 -0.19495321982E+02 -0.13989291867E+02 -0.24402097508E+02  0.34223241064E+02  0.00000000000E+00 0.  1.
         12    1    6    6    0    0  0.20157879487E+02  0.71575071822E+02 -0.74605556287E+02  0.10533432508E+03  0.00000000000E+00 0. -1.
         -5    1    3    3    0  503  0.20032084521E+02  0.50723743653E+02 -0.69296602052E+02  0.88307936430E+02  0.47000000000E+01 0.  1.
         11    1    4    4    0    0 -0.13882668552E+02 -0.34747892659E+02 -0.10319846900E+03  0.10977280416E+03  0.00000000000E+00 0. -1.
        -12    1    4    4    0    0 -0.47323488998E+00 -0.58971101729E+02 -0.16489675762E+02  0.61234991607E+02  0.00000000000E+00 0.  1.
</event>
<event>
12    1  0.8728348E-002  0.1824568E+03  0.7818608E-02  0.1165649E+00
         21   -1    0    0  503  502  0.00000000000E+00  0.00000000000E+00  0.33425163088E+03  0.33425163088E+03  0.00000000000E+00 0. -1.
         21   -1    0    0  501  503 -0.00000000000E+00 -0.00000000000E+00 -0.22181640448E+03  0.22181640448E+03  0.00000000000E+00 0. -1.
          6    2    1    2  501    0 -0.34319580732E+02  0.50338759063E+02 -0.15061411358E+03  0.23593457477E+03  0.17108094013E+03 0.  0.
         24    2    3    3    0    0 -0.81267396499E+02  0.38477490888E+01 -0.77486830280E+02  0.13726745270E+03  0.78860318275E+02 0.  0.
         -6    2    1    2    0  502  0.34319580732E+02 -0.50338759063E+02  0.26304933998E+03  0.32013346060E+03  0.17198445584E+03 0.  0.
        -24    2    5    5    0    0 -0.37187830533E+02 -0.92985684020E+01  0.19203941275E+03  0.21122016077E+03  0.79154419667E+02 0.  0.
          5    1    3    3  501    0  0.46947815767E+02  0.46491009974E+02 -0.73127283296E+02  0.98667122061E+02  0.47000000000E+01 0. -1.
        -13    1    4    4    0    0 -0.25486636928E+02  0.37205940373E+02 -0.16156701491E+02  0.47905006670E+02  0.00000000000E+00 0.  1.
         14    1    4    4    0    0 -0.55780759571E+02 -0.33358191285E+02 -0.61330128789E+02  0.89362446035E+02  0.00000000000E+00 0. -1.
         -5    1    5    5    0  502  0.71507411265E+02 -0.41040190661E+02  0.71009927225E+02  0.10891329983E+03  0.47000000000E+01 0.  1.
         13    1    6    6    0    0 -0.44598957347E+02  0.26171957754E+02  0.11315465431E+03  0.12441066739E+03  0.00000000000E+00 0. -1.
        -14    1    6    6    0    0  0.74111268143E+01 -0.35470526156E+02  0.78884758439E+02  0.86809493377E+02  0.00000000000E+00 0.  1.
</event>
<event>
12    1  0.8728348E-002  0.1804902E+03  0.7818608E-02  0.1167436E+00
         21   -1    0    0  501  502  0.00000000000E+00  0.00000000000E+00  0.45733806757E+03  0.45733806757E+03  0.00000000000E+00 0.  1.
         21   -1    0    0  502  503 -0.00000000000E+00 -0.00000000000E+00 -0.76090211610E+02  0.76090211610E+02  0.00000000000E+00 0. -1.
         -6    2    1    2    0  503 -0.45158044403E+02 -0.25590997713E+02  0.12224816663E+03  0.21799385979E+03  0.17286572976E+03 0.  0.
        -24    2    3    3    0    0 -0.70221756303E+02 -0.70939973712E+02  0.76817197471E+02  0.14892301039E+03  0.79458204538E+02 0.  0.
          6    2    1    2  501    0  0.45158044403E+02  0.25590997713E+02  0.25899968934E+03  0.31543441939E+03  0.17240616498E+03 0.  0.
         24    2    5    5    0    0 -0.15021461383E+02  0.69292118741E+02  0.18034270421E+03  0.20708142126E+03  0.73021791589E+02 0.  0.
          5    1    5    5  501    0  0.60179505786E+02 -0.43701121028E+02  0.78656985128E+02  0.10835299814E+03  0.47000000000E+01 0. -1.
        -13    1    6    6    0    0 -0.75426482052E+01 -0.14610503936E+02  0.19425463935E+02  0.25450088729E+02  0.00000000000E+00 0.  1.
         14    1    6    6    0    0 -0.74788131779E+01  0.83902622677E+02  0.16091724027E+03  0.18163133253E+03  0.00000000000E+00 0. -1.
         -5    1    3    3    0  503  0.25063711900E+02  0.45348975998E+02  0.45430969157E+02  0.69070849400E+02  0.47000000000E+01 0.  1.
         11    1    4    4    0    0 -0.41997443519E+02  0.22239407936E+01  0.45830404114E+01  0.42305264852E+02  0.00000000000E+00 0. -1.
        -12    1    4    4    0    0 -0.28224312784E+02 -0.73163914505E+02  0.72234157060E+02  0.10661774554E+03  0.00000000000E+00 0.  1.
</event>
<event>
12    1  0.8728348E-002  0.2150347E+03  0.7818608E-02  0.1138619E+00
         21   -1    0    0  501  502  0.00000000000E+00  0.00000000000E+00  0.10937742531E+03  0.10937742531E+03  0.00000000000E+00 0.  1.
         21   -1    0    0  502  503 -0.00000000000E+00 -0.00000000000E+00 -0.11032431878E+04  0.11032431878E+04  0.00000000000E+00 0.  1.
         -6    2    1    2    0  503  0.10511626828E+03  0.72796402291E+02 -0.97873486448E+03  0.10020787737E+04  0.17289068149E+03 0.  0.
        -24    2    3    3    0    0  0.96516598070E+02  0.11522747812E+03 -0.83354732822E+03  0.85050086897E+03  0.77186490496E+02 0.  0.
          6    2    1    2  501    0 -0.10511626828E+03 -0.72796402291E+02 -0.15130898001E+02  0.21054183937E+03  0.16658384078E+03 0.  0.
         24    2    5    5    0    0 -0.11524684672E+03 -0.12392818706E+02  0.16453717908E+02  0.14147014118E+03  0.79420767918E+02 0.  0.
          5    1    5    5  501    0  0.10130578447E+02 -0.60403583585E+02 -0.31584615909E+02  0.69071698196E+02  0.47000000000E+01 0. -1.
        -13    1    6    6    0    0 -0.77058499769E+02  0.19690806860E+02 -0.17106800348E+02  0.81353444178E+02  0.00000000000E+00 0.  1.
         14    1    6    6    0    0 -0.38188346955E+02 -0.32083625566E+02  0.33560518256E+02  0.60116697001E+02  0.00000000000E+00 0. -1.
         -5    1    3    3    0  503  0.85996702074E+01 -0.42431075828E+02 -0.14518753626E+03  0.15157790475E+03  0.47000000000E+01 0.  1.
         11    1    4    4    0    0  0.89094325195E+02  0.51675691192E+02 -0.44856144137E+03  0.46023422572E+03  0.00000000000E+00 0. -1.
        -12    1    4    4    0    0  0.74222728743E+01  0.63551786928E+02 -0.38498588685E+03  0.39026664325E+03  0.00000000000E+00 0.  1.
</event>
<event>
12    1  0.8728348E-002  0.2093002E+03  0.7818608E-02  0.1142569E+00
         21   -1    0    0  501  502  0.00000000000E+00  0.00000000000E+00  0.14315812277E+03  0.14315812277E+03  0.00000000000E+00 0.  1.
         21   -1    0    0  502  503 -0.00000000000E+00 -0.00000000000E+00 -0.35752503166E+03  0.35752503166E+03  0.00000000000E+00 0.  1.
         -6    2    1    2    0  503  0.19864705347E+02 -0.11624889726E+03 -0.20469315550E+03  0.29115955439E+03  0.17019455213E+03 0.  0.
        -24    2    3    3    0    0 -0.22949005014E+02 -0.13437413147E+03 -0.13362557177E+03  0.20610528133E+03  0.77720843543E+02 0.  0.
          6    2    1    2  501    0 -0.19864705347E+02  0.11624889726E+03 -0.96737533862E+01  0.20952360004E+03  0.17291080023E+03 0.  0.
         24    2    5    5    0    0 -0.21926955491E+02  0.15011591348E+03 -0.20965967695E+02  0.17345655459E+03  0.81437249914E+02 0.  0.
          5    1    5    5  501    0  0.20622501442E+01 -0.33867016218E+02  0.11292214308E+02  0.36067045446E+02  0.47000000000E+01 0. -1.
        -13    1    6    6    0    0  0.25697271919E+02  0.26174752386E+02  0.80346752975E+01  0.37550279009E+02  0.00000000000E+00 0.  1.
         14    1    6    6    0    0 -0.47624227410E+02  0.12394116109E+03 -0.29000642992E+02  0.13590627558E+03  0.00000000000E+00 0. -1.
         -5    1    3    3    0  503  0.42813710360E+02  0.18125234208E+02 -0.71067583729E+02  0.85054273067E+02  0.47000000000E+01 0.  1.
         11    1    4    4    0    0 -0.39348769041E+02 -0.55606454380E+02 -0.28789684278E+02  0.73954373195E+02  0.00000000000E+00 0. -1.
        -12    1    4    4    0    0  0.16399764028E+02 -0.78767677086E+02 -0.10483588749E+03  0.13215090813E+03  0.00000000000E+00 0.  1.
</event>
<event>
12    1  0.8728348E-002  0.1850292E+03  0.7818608E-02  0.1163107E+00
         21   -1    0    0  503  502  0.00000000000E+00  0.00000000000E+00  0.70075021883E+03  0.70075021883E+03  0.00000000000E+00 0. -1.
         21   -1    0    0  501  503 -0.00000000000E+00 -0.00000000000E+00 -0.90843541691E+02  0.90843541691E+02  0.00000000000E+00 0.  1.
          6    2    1    2  501    0 -0.63971805812E+02 -0.22285385832E+02  0.35725783691E+02  0.18844659555E+03  0.17218233764E+03 0.  0.
         24    2    3    3    0    0 -0.99187339372E+02 -0.25945833051E+02 -0.16536942348E+02  0.12514560653E+03  0.69832927964E+02 0.  0.
         -6    2    1    2    0  502  0.63971805812E+02  0.22285385832E+02  0.57418089345E+03  0.60314716497E+03  0.17179573292E+03 0.  0.
        -24    2    5    5    0    0  0.10458271771E+03  0.19650902640E+02  0.50861847224E+03  0.52583799513E+03  0.80555223287E+02 0.  0.
          5    1    3    3  501    0  0.35215533560E+02  0.36604472197E+01  0.52262726038E+02  0.63300989019E+02  0.47000000000E+01 0. -1.
        -11    1    4    4    0    0 -0.76949661095E+02 -0.34991859552E+02  0.14646301424E+02  0.85791577226E+02  0.00000000000E+00 0.  1.
         12    1    4    4    0    0 -0.22237678277E+02  0.90460265004E+01 -0.31183243772E+02  0.39354029307E+02  0.00000000000E+00 0. -1.
         -5    1    5    5    0  502 -0.40610911896E+02  0.26344831916E+01  0.65562421207E+02  0.77309169840E+02  0.47000000000E+01 0.  1.
         11    1    6    6    0    0 -0.63094450269E+00 -0.19201884597E+02  0.46690379533E+02  0.50488632424E+02  0.00000000000E+00 0. -1.
        -12    1    6    6    0    0  0.10521366221E+03  0.38852787237E+02  0.46192809270E+03  0.47534936270E+03  0.00000000000E+00 0.  1.
</event>
<event>
12    1  0.8728348E-002  0.1967797E+03  0.7818608E-02  0.1152666E+00
         21   -1    0    0  503  502  0.00000000000E+00  0.00000000000E+00  0.17756447738E+03  0.17756447738E+03  0.00000000000E+00 0. -1.
         21   -1    0    0  501  503 -0.00000000000E+00 -0.00000000000E+00 -0.24947735547E+03  0.24947735547E+03  0.00000000000E+00 0. -1.
          6    2    1    2  501    0 -0.93813053378E+02 -0.12210648684E+02 -0.11288807935E+03  0.22686113574E+03  0.17254642136E+03 0.  0.
         24    2    3    3    0    0  0.15314657848E+02  0.18714364797E+01 -0.76230054731E+02  0.11078761055E+03  0.78897606988E+02 0.  0.
         -6    2    1    2    0  502  0.93813053378E+02  0.12210648684E+02  0.40975201254E+02  0.20018069711E+03  0.17159066248E+03 0.  0.
        -24    2    5    5    0    0  0.37600643677E+02 -0.33835433036E+02  0.74097813584E+02  0.12018523415E+03  0.79970992221E+02 0.  0.
          5    1    3    3  501    0 -0.10912771123E+03 -0.14082085163E+02 -0.36658024614E+02  0.11607352518E+03  0.47000000000E+01 0. -1.
        -11    1    4    4    0    0 -0.29835400476E+02  0.14794813401E+02 -0.34710566752E+02  0.48102609798E+02  0.00000000000E+00 0.  1.
         12    1    4    4    0    0  0.45150058324E+02 -0.12923376921E+02 -0.41519487979E+02  0.62685000756E+02  0.00000000000E+00 0. -1.
         -5    1    5    5    0  502  0.56212409701E+02  0.46046081720E+02 -0.33122612329E+02  0.79995462957E+02  0.47000000000E+01 0.  1.
         13    1    6    6    0    0  0.24911645393E+02  0.15616331115E+02 -0.95129957176E+00  0.29417084230E+02  0.00000000000E+00 0. -1.
        -14    1    6    6    0    0  0.12688998284E+02 -0.49451764151E+02  0.75049113155E+02  0.90768149924E+02  0.00000000000E+00 0.  1.
</event>
<event>
12    1  0.8728348E-002  0.2494691E+03  0.7818608E-02  0.1113769E+00
         21   -1    0    0  501  502  0.00000000000E+00  0.00000000000E+00  0.21560287750E+03  0.21560287750E+03  0.00000000000E+00 0.  1.
         21   -1    0    0  502  503 -0.00000000000E+00 -0.00000000000E+00 -0.35990351983E+03  0.35990351983E+03  0.00000000000E+00 0. -1.
         -6    2    1    2    0  503  0.17484864562E+03  0.43818239912E+02 -0.20092550827E+03  0.31969159440E+03  0.17128796989E+03 0.  0.
        -24    2    3    3    0    0  0.13688166676E+03  0.89997835706E+02 -0.17675103396E+03  0.25503448528E+03  0.83459328713E+02 0.  0.
          6    2    1    2  501    0 -0.17484864562E+03 -0.43818239912E+02  0.56624865937E+02  0.25581480293E+03  0.17246086782E+03 0.  0.
         24    2    5    5    0    0 -0.18312743332E+03 -0.53389971667E+02  0.85391703274E+02  0.22403780960E+03  0.80715867310E+02 0.  0.
          5    1    5    5  501    0  0.82787876944E+01  0.95717317550E+01 -0.28766837337E+02  0.31776993326E+02  0.47000000000E+01 0. -1.
        -13    1    6    6    0    0 -0.10426870916E+03 -0.95996792380E+01  0.77035040380E+01  0.10499267368E+03  0.00000000000E+00 0.  1.
         14    1    6    6    0    0 -0.78858724152E+02 -0.43790292429E+02  0.77688199236E+02  0.11904513592E+03  0.00000000000E+00 0. -1.
         -5    1    3    3    0  503  0.37966978860E+02 -0.46179595793E+02 -0.24174474319E+02  0.64657109122E+02  0.47000000000E+01 0.  1.
         11    1    4    4    0    0  0.77946604344E+02  0.81413467885E+02 -0.15496185662E+03  0.19161681264E+03  0.00000000000E+00 0. -1.
        -12    1    4    4    0    0  0.58935062419E+02  0.85843678204E+01 -0.21789177339E+02  0.63417672634E+02  0.00000000000E+00 0.  1.
</event>
<event>
12    1  0.8728348E-002  0.1819227E+03  0.7818608E-02  0.1167963E+00
         21   -1    0    0  501  502  0.00000000000E+00  0.00000000000E+00  0.90822116151E+03  0.90822116151E+03  0.00000000000E+00 0. -1.
         21   -1    0    0  502  503 -0.00000000000E+00 -0.00000000000E+00 -0.46466300598E+02  0.46466300598E+02  0.00000000000E+00 0. -1.
         -6    2    1    2    0  503 -0.57637540931E+02 -0.16996611307E+02  0.18444423633E+03  0.25337045203E+03  0.16299060932E+03 0.  0.
        -24    2    3    3    0    0  0.80409433211E+01 -0.20627395953E+02  0.16673047432E+03  0.18508638906E+03  0.77251369669E+02 0.  0.
          6    2    1    2  501    0  0.57637540931E+02  0.16996611307E+02  0.67731062459E+03  0.70131701008E+03  0.17171166392E+03 0.  0.
         24    2    5    5    0    0 -0.86471114764E+01  0.26322542605E+02  0.17094696759E+03  0.19052657235E+03  0.79434628848E+02 0.  0.
          5    1    5    5  501    0  0.66284652408E+02 -0.93259312983E+01  0.50636365700E+03  0.51079043772E+03  0.47000000000E+01 0. -1.
        -11    1    6    6    0    0  0.26161544353E+02  0.39102304399E+02  0.95909564749E+02  0.10682724944E+03  0.00000000000E+00 0.  1.
         12    1    6    6    0    0 -0.34808655829E+02 -0.12779761794E+02  0.75037402836E+02  0.83699322916E+02  0.00000000000E+00 0. -1.
         -5    1    3    3    0  503 -0.65678484252E+02  0.36307846462E+01  0.17713762004E+02  0.68284062966E+02  0.47000000000E+01 0.  1.
         13    1    4    4    0    0 -0.47757341522E+00  0.23333453304E+02  0.17190597924E+02  0.28986113511E+02  0.00000000000E+00 0. -1.
        -14    1    4    4    0    0  0.85185167363E+01 -0.43960849257E+02  0.14953987640E+03  0.15610027555E+03  0.00000000000E+00 0.  1.
</event>
<event>
12    1  0.8728348E-002  0.1914396E+03  0.7818608E-02  0.1157237E+00
         21   -1    0    0  501  502  0.00000000000E+00  0.00000000000E+00  0.90524761281E+03  0.90524761281E+03  0.00000000000E+00 0. -1.
         21   -1    0    0  502  503 -0.00000000000E+00 -0.00000000000E+00 -0.15490920746E+03  0.15490920746E+03  0.00000000000E+00 0. -1.
         -6    2    1    2    0  503 -0.25347744657E+02 -0.80475724237E+02 -0.80455816224E+02  0.20765903442E+03  0.17184378330E+03 0.  0.
        -24    2    3    3    0    0  0.10604742872E+02 -0.67710509353E+02  0.15672685408E+02  0.10412975886E+03  0.76812759129E+02 0.  0.
          6    2    1    2  501    0  0.25347744657E+02  0.80475724237E+02  0.83079422157E+03  0.85249778585E+03  0.17150681021E+03 0.  0.
         24    2    5    5    0    0 -0.16615461551E+02 -0.14817160431E+02  0.28481781016E+03  0.29666150029E+03  0.79945224757E+02 0.  0.
          5    1    5    5  501    0  0.41963206207E+02  0.95292884668E+02  0.54597641140E+03  0.55583628557E+03  0.47000000000E+01 0. -1.
        -13    1    6    6    0    0  0.10878468296E+02 -0.30451719583E+02  0.23784360192E+03  0.24003172138E+03  0.00000000000E+00 0.  1.
         14    1    6    6    0    0 -0.27493929847E+02  0.15634559152E+02  0.46974208245E+02  0.56629778902E+02  0.00000000000E+00 0. -1.
         -5    1    3    3    0  503 -0.35952487529E+02 -0.12765214884E+02 -0.96128501632E+02  0.10352927555E+03  0.47000000000E+01 0.  1.
         11    1    4    4    0    0 -0.19204896832E+02 -0.62092291583E+02 -0.82248010441E+01  0.65512808584E+02  0.00000000000E+00 0. -1.
        -12    1    4    4    0    0  0.29809639705E+02 -0.56182177700E+01  0.23897486452E+02  0.38616950280E+02  0.00000000000E+00 0.  1.
</event>
<event>
12    1  0.8728348E-002  0.2488684E+03  0.7818608E-02  0.1114048E+00
         21   -1    0    0  501  502  0.00000000000E+00  0.00000000000E+00  0.20701585137E+03  0.20701585137E+03  0.00000000000E+00 0. -1.
         21   -1    0    0  502  503 -0.00000000000E+00 -0.00000000000E+00 -0.30986640100E+03  0.30986640100E+03  0.00000000000E+00 0.  1.
         -6    2    1    2    0  503 -0.95985239825E+02  0.15152118506E+03 -0.99841229967E+02  0.26799570512E+03  0.17228346112E+03 0.  0.
        -24    2    3    3    0    0 -0.61572019053E+02  0.25591942002E+02 -0.42516482063E+00  0.10383697696E+03  0.79598216024E+02 0.  0.
          6    2    1    2  501    0  0.95985239825E+02 -0.15152118506E+03 -0.30093196644E+01  0.24888654725E+03  0.17252136566E+03 0.  0.
         24    2    5    5    0    0  0.61896046242E+02 -0.18049541822E+03 -0.14946956280E+00  0.20381052204E+03  0.71616967360E+02 0.  0.
          5    1    5    5  501    0  0.34089193584E+02  0.28974233155E+02 -0.28598501016E+01  0.45076025210E+02  0.47000000000E+01 0. -1.
        -11    1    6    6    0    0  0.61777852999E+01  0.57089083670E+01 -0.42093990282E+01  0.94061525680E+01  0.00000000000E+00 0.  1.
         12    1    6    6    0    0  0.55718260942E+02 -0.18620432658E+03  0.40599294654E+01  0.19440436947E+03  0.00000000000E+00 0. -1.
         -5    1    3    3    0  503 -0.34413220772E+02  0.12592924306E+03 -0.99416065146E+02  0.16415872816E+03  0.47000000000E+01 0.  1.
         13    1    4    4    0    0 -0.38871836121E+02 -0.14502136320E+02 -0.28082122878E+02  0.50099273714E+02  0.00000000000E+00 0. -1.
        -14    1    4    4    0    0 -0.22700182932E+02  0.40094078322E+02  0.27656958058E+02  0.53737703250E+02  0.00000000000E+00 0.  1.
</event>
<event>
12    1  0.8728348E-002  0.1908022E+03  0.7818608E-02  0.1158757E+00
         21   -1    0    0  501  502  0.00000000000E+00  0.00000000000E+00  0.22387930979E+03  0.22387930979E+03  0.00000000000E+00 0. -1.
         21   -1    0    0  502  503 -0.00000000000E+00 -0.00000000000E+00 -0.20296174165E+03  0.20296174165E+03  0.00000000000E+00 0. -1.
         -6    2    1    2    0  503 -0.62104041253E+02 -0.52819552741E+02 -0.88973140681E+02  0.21052723388E+03  0.17250704146E+03 0.  0.
        -24    2    3    3    0    0  0.34899260955E+00  0.14772599036E+02 -0.86332682837E+02  0.11834186391E+03  0.79580859186E+02 0.  0.
          6    2    1    2  501    0  0.62104041253E+02  0.52819552741E+02  0.10989070881E+03  0.21631381756E+03  0.16753770528E+03 0.  0.
         24    2    5    5    0    0  0.82497239651E+02  0.66274232839E+02  0.37980933523E+02  0.14022165804E+03  0.83794352936E+02 0.  0.
          5    1    5    5  501    0 -0.20393198398E+02 -0.13454680097E+02  0.71909775291E+02  0.76092159516E+02  0.47000000000E+01 0. -1.
        -13    1    6    6    0    0  0.84346159745E+02  0.60403764829E+02  0.58291442814E+02  0.11899908308E+03  0.00000000000E+00 0.  1.
         14    1    6    6    0    0 -0.18489200943E+01  0.58704680101E+01 -0.20310509291E+02  0.21222574958E+02  0.00000000000E+00 0. -1.
         -5    1    3    3    0  503 -0.62453033862E+02 -0.67592151778E+02 -0.26404578446E+01  0.92185369979E+02  0.47000000000E+01 0.  1.
         13    1    4    4    0    0 -0.23836542603E+02  0.10811529744E+02 -0.89848468523E+02  0.93583210217E+02  0.00000000000E+00 0. -1.
        -14    1    4    4    0    0  0.24185535213E+02  0.39610692921E+01  0.35157856860E+01  0.24758653688E+02  0.00000000000E+00 0.  1.
</event>
<event>
12    1  0.8728348E-002  0.2048258E+03  0.7818608E-02  0.1147299E+00
         21   -1    0    0  501  502  0.00000000000E+00  0.00000000000E+00  0.59008913626E+03  0.59008913626E+03  0.00000000000E+00 0. -1.
         21   -1    0    0  502  503 -0.00000000000E+00 -0.00000000000E+00 -0.18837859468E+03  0.18837859468E+03  0.00000000000E+00 0. -1.
         -6    2    1    2    0  503 -0.96282801827E+02 -0.20724449732E+00 -0.10824795346E+03  0.23167051676E+03  0.18078492202E+03 0.  0.
        -24    2    3    3    0    0 -0.11606486337E+03  0.83762222543E+01 -0.13671536153E+03  0.19564983961E+03  0.77759604241E+02 0.  0.
          6    2    1    2  501    0  0.96282801827E+02  0.20724449732E+00  0.50995849503E+03  0.54679721418E+03  0.17221819272E+03 0.  0.
         24    2    5    5    0    0  0.45161019235E+02 -0.65781495021E+02  0.27749277852E+03  0.29975399984E+03  0.80520156135E+02 0.  0.
          5    1    5    5  501    0  0.51121782591E+02  0.65988739518E+02  0.23246571652E+03  0.24704321435E+03  0.47000000000E+01 0. -1.
        -13    1    6    6    0    0 -0.22489488843E+02 -0.11863368395E+02  0.44977935934E+02  0.51667507574E+02  0.00000000000E+00 0.  1.
         14    1    6    6    0    0  0.67650508078E+02 -0.53918126626E+02  0.23251484258E+03  0.24808649226E+03  0.00000000000E+00 0. -1.
         -5    1    3    3    0  503  0.19782061545E+02 -0.85834667516E+01  0.28467408069E+02  0.36020677154E+02  0.47000000000E+01 0.  1.
         13    1    4    4    0    0 -0.62567778387E+02  0.38294329369E+02 -0.10060492426E+03  0.12450916970E+03  0.00000000000E+00 0. -1.
        -14    1    4    4    0    0 -0.53497084984E+02 -0.29918107115E+02 -0.36110437272E+02  0.71140669909E+02  0.00000000000E+00 0.  1.
</event>
<event>
12    1  0.8728348E-002  0.1797913E+03  0.7818608E-02  0.1168834E+00
         21   -1    0    0  503  502  0.00000000000E+00  0.00000000000E+00  0.75665417320E+02  0.75665417320E+02  0.00000000000E+00 0. -1.
         21   -1    0    0  501  503 -0.00000000000E+00 -0.00000000000E+00 -0.41920394932E+03  0.41920394932E+03  0.00000000000E+00 0. -1.
          6    2    1    2  501    0  0.45776256448E+02 -0.24999631198E+02 -0.17377555586E+03  0.25004570630E+03  0.17205947870E+03 0.  0.
         24    2    3    3    0    0  0.70059416203E+02  0.36028392342E+02 -0.15440738307E+03  0.18140674053E+03  0.53482695424E+02 0.  0.
         -6    2    1    2    0  502 -0.45776256448E+02  0.24999631198E+02 -0.16976297614E+03  0.24482366034E+03  0.16851916621E+03 0.  0.
        -24    2    5    5    0    0 -0.11459252859E+02 -0.27111420861E+02 -0.30646743470E+02  0.92283060252E+02  0.81918231835E+02 0.  0.
          5    1    3    3  501    0 -0.24283159755E+02 -0.61028023540E+02 -0.19368172789E+02  0.68638965771E+02  0.47000000000E+01 0. -1.
        -13    1    4    4    0    0  0.22181214686E+02  0.23042869377E+01 -0.96518833327E+02  0.99061603107E+02  0.00000000000E+00 0.  1.
         14    1    4    4    0    0  0.47878201517E+02  0.33724105405E+02 -0.57888549739E+02  0.82345137421E+02  0.00000000000E+00 0. -1.
         -5    1    5    5    0  502 -0.34317003590E+02  0.52111052059E+02 -0.13911623267E+03  0.15254060009E+03  0.47000000000E+01 0.  1.
         13    1    6    6    0    0  0.20105828497E+02  0.64582724485E+01 -0.40029622440E+02  0.45258416844E+02  0.00000000000E+00 0. -1.
        -14    1    6    6    0    0 -0.31565081355E+02 -0.33569693310E+02  0.93828789703E+01  0.47024643408E+02  0.00000000000E+00 0.  1.
</event>
<event>
12    1  0.8728348E-002  0.2154416E+03  0.7818608E-02  0.1137496E+00
         21   -1    0    0  501  502  0.00000000000E+00  0.00000000000E+00  0.95711063029E+02  0.95711063029E+02  0.00000000000E+00 0. -1.
         21   -1    0    0  502  503 -0.00000000000E+00 -0.00000000000E+00 -0.86098228326E+03  0.86098228326E+03  0.00000000000E+00 0. -1.
         -6    2    1    2    0  503  0.10045594304E+02  0.13202949175E+03 -0.69915047741E+03  0.73133359251E+03  0.16883344694E+03 0.  0.
        -24    2    3    3    0    0 -0.26434245047E+02  0.24234228779E+02 -0.43285029978E+03  0.44169852556E+03  0.80325203425E+02 0.  0.
          6    2    1    2  501    0 -0.10045594304E+02 -0.13202949175E+03 -0.66120742824E+02  0.22535975379E+03  0.16994812543E+03 0.  0.
         24    2    5    5    0    0 -0.92926171067E+01 -0.92950443417E+01 -0.41672458975E+02  0.10012349650E+03  0.90085349154E+02 0.  0.
          5    1    5    5  501    0 -0.75297719737E+00 -0.12273444741E+03 -0.24448283849E+02  0.12523625729E+03  0.47000000000E+01 0. -1.
        -13    1    6    6    0    0  0.33260294456E+02 -0.27392847031E+02 -0.10479100463E+02  0.44344411173E+02  0.00000000000E+00 0.  1.
         14    1    6    6    0    0 -0.42552911563E+02  0.18097802689E+02 -0.31193358512E+02  0.55779085327E+02  0.00000000000E+00 0. -1.
         -5    1    3    3    0  503  0.36479839351E+02  0.10779526297E+03 -0.26630017763E+03  0.28963506694E+03  0.47000000000E+01 0.  1.
         13    1    4    4    0    0  0.99473807324E+01 -0.21440492030E+02 -0.20995702912E+03  0.21128322025E+03  0.00000000000E+00 0. -1.
        -14    1    4    4    0    0 -0.36381625780E+02  0.45674720809E+02 -0.22289327066E+03  0.23041530531E+03  0.00000000000E+00 0.  1.
</event>
<event>
12    1  0.8728348E-002  0.3914020E+03  0.7818608E-02  0.1046891E+00
         21   -1    0    0  503  502  0.00000000000E+00  0.00000000000E+00  0.70774529510E+03  0.70774529510E+03  0.00000000000E+00 0.  1.
         21   -1    0    0  501  503 -0.00000000000E+00 -0.00000000000E+00 -0.27505062452E+03  0.27505062452E+03  0.00000000000E+00 0.  1.
          6    2    1    2  501    0  0.34897945242E+03  0.26920717174E+02 -0.11802115491E+02  0.39053506926E+03  0.17282062134E+03 0.  0.
         24    2    3    3    0    0  0.22475044459E+03 -0.30601444510E+02  0.40682437725E+02  0.24384367960E+03  0.79721192876E+02 0.  0.
         -6    2    1    2    0  502 -0.34897945242E+03 -0.26920717174E+02  0.44449678606E+03  0.59226085036E+03  0.17516888656E+03 0.  0.
        -24    2    5    5    0    0 -0.33979990751E+03  0.13500774485E+02  0.40849060105E+03  0.53715462211E+03  0.77616163592E+02 0.  0.
          5    1    3    3  501    0  0.12422900784E+03  0.57522161684E+02 -0.52484553216E+02  0.14669138966E+03  0.47000000000E+01 0. -1.
        -13    1    4    4    0    0  0.18476636967E+03 -0.11274303911E+01  0.91275812900E+01  0.18499512210E+03  0.00000000000E+00 0.  1.
         14    1    4    4    0    0  0.39984074916E+02 -0.29474014119E+02  0.31554856435E+02  0.58848557500E+02  0.00000000000E+00 0. -1.
         -5    1    5    5    0  502 -0.91795449144E+01 -0.40421491659E+02  0.36006185017E+02  0.55106228253E+02  0.47000000000E+01 0.  1.
         13    1    6    6    0    0 -0.61696795984E+02  0.32486628668E+02  0.91397879471E+02  0.11495846228E+03  0.00000000000E+00 0. -1.
        -14    1    6    6    0    0 -0.27810311153E+03 -0.18985854183E+02  0.31709272158E+03  0.42219615983E+03  0.00000000000E+00 0.  1.
</event>
<event>
12    1  0.8728348E-002  0.1922577E+03  0.7818608E-02  0.1159561E+00
         21   -1    0    0  503  502  0.00000000000E+00  0.00000000000E+00  0.12556882225E+04  0.12556882225E+04  0.00000000000E+00 0. -1.
         21   -1    0    0  501  503 -0.00000000000E+00 -0.00000000000E+00 -0.57803460419E+02  0.57803460419E+02  0.00000000000E+00 0. -1.
          6    2    1    2  501    0  0.86328506788E+00  0.30265085654E+02  0.13316260811E+03  0.23387029307E+03  0.18985866614E+03 0.  0.
         24    2    3    3    0    0  0.20041567623E+02 -0.52100139058E+02  0.10769731823E+03  0.14542591647E+03  0.80211569633E+02 0.  0.
         -6    2    1    2    0  502 -0.86328506788E+00 -0.30265085654E+02  0.10647221540E+04  0.10796213899E+04  0.17616003975E+03 0.  0.
        -24    2    5    5    0    0  0.63885952436E+02 -0.13714766241E+02  0.44885398410E+03  0.46011992134E+03  0.77271814013E+02 0.  0.
          5    1    3    3  501    0 -0.19178282555E+02  0.82365224713E+02  0.25465289880E+02  0.88444376601E+02  0.47000000000E+01 0. -1.
        -11    1    4    4    0    0  0.13561760321E+02 -0.29723242563E+02  0.11613942234E+03  0.12064724577E+03  0.00000000000E+00 0.  1.
         12    1    4    4    0    0  0.64798073020E+01 -0.22376896495E+02 -0.84421041089E+01  0.24778670691E+02  0.00000000000E+00 0. -1.
         -5    1    5    5    0  502 -0.64749237504E+02 -0.16550319413E+02  0.61586816992E+03  0.61950146856E+03  0.47000000000E+01 0.  1.
         11    1    6    6    0    0  0.81097335288E+02 -0.17336993251E+02  0.34808497915E+03  0.35782747496E+03  0.00000000000E+00 0. -1.
        -12    1    6    6    0    0 -0.17211382852E+02  0.36222270101E+01  0.10076900495E+03  0.10229244638E+03  0.00000000000E+00 0.  1.
</event>
<event>
12    1  0.8728348E-002  0.2414740E+03  0.7818608E-02  0.1118946E+00
         21   -1    0    0  503  502  0.00000000000E+00  0.00000000000E+00  0.57581792768E+02  0.57581792768E+02  0.00000000000E+00 0.  1.
         21   -1    0    0  501  503 -0.00000000000E+00 -0.00000000000E+00 -0.12715181677E+04  0.12715181677E+04  0.00000000000E+00 0.  1.
          6    2    1    2  501    0  0.60192583332E+01 -0.16966222400E+03 -0.90794908896E+03  0.93930782540E+03  0.17060521973E+03 0.  0.
         24    2    3    3    0    0 -0.57245340346E+02 -0.12020969877E+03 -0.67473591499E+03  0.69261279868E+03  0.81954458376E+02 0.  0.
         -6    2    1    2    0  502 -0.60192583332E+01  0.16966222400E+03 -0.30598728593E+03  0.38979213502E+03  0.17172124986E+03 0.  0.
        -24    2    5    5    0    0 -0.23185875402E+01  0.84014533673E+02 -0.27568518672E+03  0.29874528424E+03  0.78629542520E+02 0.  0.
          5    1    3    3  501    0  0.63264598679E+02 -0.49452525226E+02 -0.23321317397E+03  0.24669502672E+03  0.47000000000E+01 0. -1.
        -13    1    4    4    0    0 -0.75509582212E+02 -0.90684748857E+02 -0.45020828258E+03  0.46541692963E+03  0.00000000000E+00 0.  1.
         14    1    4    4    0    0  0.18264241866E+02 -0.29524949913E+02 -0.22452763241E+03  0.22719586905E+03  0.00000000000E+00 0. -1.
         -5    1    5    5    0  502 -0.37006707930E+01  0.85647690323E+02 -0.30302099204E+02  0.91046850786E+02  0.47000000000E+01 0.  1.
         13    1    6    6    0    0  0.33891720371E+02  0.19431094411E+02 -0.12298832687E+03  0.12904396416E+03  0.00000000000E+00 0. -1.
        -14    1    6    6    0    0 -0.36210307911E+02  0.64583439263E+02 -0.15269685986E+03  0.16970132008E+03  0.00000000000E+00 0.  1.
</event>
<event>
12    1  0.8728348E-002  0.1901925E+03  0.7818608E-02  0.1158331E+00
         21   -1    0    0  501  502  0.00000000000E+00  0.00000000000E+00  0.36330395871E+03  0.36330395871E+03  0.00000000000E+00 0. -1.
         21   -1    0    0  502  503 -0.00000000000E+00 -0.00000000000E+00 -0.15945112734E+03  0.15945112734E+03  0.00000000000E+00 0. -1.
         -6    2    1    2    0  503 -0.38916014585E+02  0.72368354774E+02 -0.58356386530E+02  0.19894382647E+03  0.17152709196E+03 0.  0.
        -24    2    3    3    0    0  0.20149300903E+02  0.94365786258E+02 -0.32264037625E+02  0.13056620471E+03  0.81827072209E+02 0.  0.
          6    2    1    2  501    0  0.38916014585E+02 -0.72368354774E+02  0.26220921791E+03  0.32381125958E+03  0.17131381414E+03 0.  0.
         24    2    5    5    0    0  0.24269633503E+02 -0.53036968388E+02  0.50517000173E+02  0.11068241586E+03  0.79351715469E+02 0.  0.
          5    1    5    5  501    0  0.14646381083E+02 -0.19331386385E+02  0.21169221773E+03  0.21312884372E+03  0.47000000000E+01 0. -1.
        -13    1    6    6    0    0 -0.28974093245E+02 -0.14482502704E+02  0.21140095546E+02  0.38680028485E+02  0.00000000000E+00 0.  1.
         14    1    6    6    0    0  0.53243726747E+02 -0.38554465685E+02  0.29376904627E+02  0.72002387374E+02  0.00000000000E+00 0. -1.
         -5    1    3    3    0  503 -0.59065315488E+02 -0.21997431484E+02 -0.26092348905E+02  0.68377621756E+02  0.47000000000E+01 0.  1.
         13    1    4    4    0    0 -0.23439890157E+02  0.12704333395E+02 -0.26854202088E+02  0.37841468092E+02  0.00000000000E+00 0. -1.
        -14    1    4    4    0    0  0.43589191060E+02  0.81661452863E+02 -0.54098355366E+01  0.92724736621E+02  0.00000000000E+00 0.  1.
</event>
<event>
12    1  0.8728348E-002  0.2018498E+03  0.7818608E-02  0.1148234E+00
         21   -1    0    0  503  502  0.00000000000E+00  0.00000000000E+00  0.25524624631E+03  0.25524624631E+03  0.00000000000E+00 0. -1.
         21   -1    0    0  501  503 -0.00000000000E+00 -0.00000000000E+00 -0.16104737968E+03  0.16104737968E+03  0.00000000000E+00 0. -1.
          6    2    1    2  501    0  0.74810094082E+02  0.74153796798E+02  0.26393754410E+02  0.20356810385E+03  0.17218596597E+03 0.  0.
         24    2    3    3    0    0 -0.13994192476E+02 -0.10261745396E+02  0.12903521788E+02  0.80213892528E+02  0.77243943700E+02 0.  0.
         -6    2    1    2    0  502 -0.74810094082E+02 -0.74153796798E+02  0.67805112220E+02  0.21272552213E+03  0.17192812093E+03 0.  0.
        -24    2    5    5    0    0  0.33152984622E+01 -0.35411996074E+02 -0.19313599208E+02  0.89371300623E+02  0.79681952730E+02 0.  0.
          5    1    3    3  501    0  0.88804286558E+02  0.84415542194E+02  0.13490232622E+02  0.12335421132E+03  0.47000000000E+01 0. -1.
        -11    1    4    4    0    0 -0.13525880149E+02  0.83857108856E+01 -0.29705928238E+02  0.33700322748E+02  0.00000000000E+00 0.  1.
         12    1    4    4    0    0 -0.46831232668E+00 -0.18647456282E+02  0.42609450026E+02  0.46513569780E+02  0.00000000000E+00 0. -1.
         -5    1    5    5    0  502 -0.78125392544E+02 -0.38741800724E+02  0.87118711428E+02  0.12335422151E+03  0.47000000000E+01 0.  1.
         13    1    6    6    0    0  0.26248089859E+02 -0.39240284701E+02  0.13549068905E+02  0.49115572204E+02  0.00000000000E+00 0. -1.
        -14    1    6    6    0    0 -0.22932791397E+02  0.38282886272E+01 -0.32862668113E+02  0.40255728419E+02  0.00000000000E+00 0.  1.
</event>
<event>
12    1  0.8728348E-002  0.1811108E+03  0.7818608E-02  0.1167190E+00
         21   -1    0    0  503  502  0.00000000000E+00  0.00000000000E+00  0.87928702508E+02  0.87928702508E+02  0.00000000000E+00 0.  1.
         21   -1    0    0  501  503 -0.00000000000E+00 -0.00000000000E+00 -0.40112326381E+03  0.40112326381E+03  0.00000000000E+00 0.  1.
          6    2    1    2  501    0  0.45124281648E+02 -0.27648997050E+02 -0.88317716387E+02  0.20149727457E+03  0.17320642251E+03 0.  0.
         24    2    3    3    0    0  0.58559957373E+02  0.42615460383E+02 -0.66020118985E+02  0.12641808830E+03  0.79859444451E+02 0.  0.
         -6    2    1    2    0  502 -0.45124281648E+02  0.27648997050E+02 -0.22487684492E+03  0.28755469175E+03  0.17122335570E+03 0.  0.
        -24    2    5    5    0    0  0.35832276169E+02 -0.11977366576E+02 -0.12974183584E+03  0.15641746249E+03  0.78778609261E+02 0.  0.
          5    1    3    3  501    0 -0.13435675725E+02 -0.70264457433E+02 -0.22297597402E+02  0.75079186267E+02  0.47000000000E+01 0. -1.
        -11    1    4    4    0    0 -0.24016867523E+01  0.17040317726E+02  0.14311167996E+02  0.22381913611E+02  0.00000000000E+00 0.  1.
         12    1    4    4    0    0  0.60961644125E+02  0.25575142657E+02 -0.80331286981E+02  0.10403617469E+03  0.00000000000E+00 0. -1.
         -5    1    5    5    0  502 -0.80956557817E+02  0.39626363625E+02 -0.95135009071E+02  0.13113722926E+03  0.47000000000E+01 0.  1.
         13    1    6    6    0    0  0.30769488839E+02 -0.15455032349E+01 -0.50881469111E+01  0.31225618691E+02  0.00000000000E+00 0. -1.
        -14    1    6    6    0    0  0.50627873303E+01 -0.10431863341E+02 -0.12465368893E+03  0.12519184380E+03  0.00000000000E+00 0.  1.
</event>
<event>
12    1  0.8728348E-002  0.2691790E+03  0.7818608E-02  0.1101788E+00
         21   -1    0    0  503  502  0.00000000000E+00  0.00000000000E+00  0.31959179667E+03  0.31959179667E+03  0.00000000000E+00 0. -1.
         21   -1    0    0  501  503 -0.00000000000E+00 -0.00000000000E+00 -0.23428991584E+03  0.23428991584E+03  0.00000000000E+00 0.  1.
          6    2    1    2  501    0 -0.19555468234E+03  0.67240723229E+02 -0.78316606292E+01  0.26929293510E+03  0.17232063528E+03 0.  0.
         24    2    3    3    0    0 -0.31659823147E+02  0.21865780554E+02 -0.39235626660E+02  0.96293775060E+02  0.79073383354E+02 0.  0.
         -6    2    1    2    0  502  0.19555468234E+03 -0.67240723229E+02  0.93133541458E+02  0.28458877742E+03  0.17191267273E+03 0.  0.
        -24    2    5    5    0    0  0.14312690154E+03 -0.16133266839E+02  0.11996455841E+03  0.20646939590E+03  0.86559366493E+02 0.  0.
          5    1    3    3  501    0 -0.16389485919E+03  0.45374942675E+02  0.31403966031E+02  0.17299916004E+03  0.47000000000E+01 0. -1.
        -11    1    4    4    0    0 -0.46599987758E+02 -0.24615757825E+01  0.13364333918E+01  0.46684090101E+02  0.00000000000E+00 0.  1.
         12    1    4    4    0    0  0.14940164611E+02  0.24327356336E+02 -0.40572060052E+02  0.49609684959E+02  0.00000000000E+00 0. -1.
         -5    1    5    5    0  502  0.52427780802E+02 -0.51107456390E+02 -0.26831016948E+02  0.78119381519E+02  0.47000000000E+01 0.  1.
         13    1    6    6    0    0  0.81501995968E+02 -0.32842206503E+02  0.11164955424E+03  0.14208029010E+03  0.00000000000E+00 0. -1.
        -14    1    6    6    0    0  0.61624905567E+02  0.16708939665E+02  0.83150041698E+01  0.64389105796E+02  0.00000000000E+00 0.  1.
</event>
<event>
12    1  0.8728348E-002  0.3875734E+03  0.7818608E-02  0.1048286E+00
         21   -1    0    0  501  502  0.00000000000E+00  0.00000000000E+00  0.13352737134E+03  0.13352737134E+03  0.00000000000E+00 0. -1.
         21   -1    0    0  502  503 -0.00000000000E+00 -0.00000000000E+00 -0.13815446742E+04  0.13815446742E+04  0.00000000000E+00 0.  1.
         -6    2    1    2    0  503  0.94445532071E+02  0.33372104874E+03 -0.29602411062E+03  0.48769190195E+03  0.17298387285E+03 0.  0.
        -24    2    3    3    0    0  0.38325279067E+02  0.21031237178E+03 -0.99165250059E+02  0.24862144094E+03  0.79238584917E+02 0.  0.
          6    2    1    2  501    0 -0.94445532071E+02 -0.33372104874E+03 -0.95199319220E+03  0.10273801435E+04  0.17008593252E+03 0.  0.
         24    2    5    5    0    0 -0.11219152402E+03 -0.25199944162E+03 -0.56439421048E+03  0.63083455734E+03  0.57626012135E+02 0.  0.
          5    1    5    5  501    0  0.17745991953E+02 -0.81721607115E+02 -0.38759898172E+03  0.39654558620E+03  0.47000000000E+01 0. -1.
        -11    1    6    6    0    0 -0.49934260965E+02 -0.12034795981E+03 -0.33113362350E+03  0.35584622867E+03  0.00000000000E+00 0.  1.
         12    1    6    6    0    0 -0.62257263059E+02 -0.13165148181E+03 -0.23326058699E+03  0.27498832867E+03  0.00000000000E+00 0. -1.
         -5    1    3    3    0  503  0.56120253004E+02  0.12340867696E+03 -0.19685886056E+03  0.23907046101E+03  0.47000000000E+01 0.  1.
         11    1    4    4    0    0 -0.17322922083E+02  0.85835948939E+02 -0.16312137774E+02  0.89072889246E+02  0.00000000000E+00 0. -1.
        -12    1    4    4    0    0  0.55648201150E+02  0.12447642284E+03 -0.82853112285E+02  0.15954855170E+03  0.00000000000E+00 0.  1.
</event>
<event>
12    1  0.8728348E-002  0.2114411E+03  0.7818608E-02  0.1141389E+00
         21   -1    0    0  501  502  0.00000000000E+00  0.00000000000E+00  0.25470671100E+03  0.25470671100E+03  0.00000000000E+00 0. -1.
         21   -1    0    0  502  503 -0.00000000000E+00 -0.00000000000E+00 -0.22113099264E+03  0.22113099264E+03  0.00000000000E+00 0. -1.
         -6    2    1    2    0  503 -0.68101094231E+02  0.10177118325E+03 -0.96025772645E+02  0.22783797116E+03  0.16641532176E+03 0.  0.
        -24    2    3    3    0    0 -0.70259079833E+02  0.38184459293E+02 -0.11424092385E+03  0.16149183262E+03  0.81450795531E+02 0.  0.
          6    2    1    2  501    0  0.68101094231E+02 -0.10177118325E+03  0.12960149100E+03  0.24799973247E+03  0.17237223691E+03 0.  0.
         24    2    5    5    0    0 -0.61981512723E+01 -0.20271416102E+02  0.10823166330E+03  0.13556597658E+03  0.78833328454E+02 0.  0.
          5    1    5    5  501    0  0.74299245503E+02 -0.81499767150E+02  0.21369827708E+02  0.11243375589E+03  0.47000000000E+01 0. -1.
        -11    1    6    6    0    0  0.20983220262E+02  0.18701319134E+02  0.17401270304E+02  0.33058116675E+02  0.00000000000E+00 0.  1.
         12    1    6    6    0    0 -0.27181371534E+02 -0.38972735236E+02  0.90830392992E+02  0.10250785990E+03  0.00000000000E+00 0. -1.
         -5    1    3    3    0  503  0.21579856024E+01  0.63586723960E+02  0.18215151202E+02  0.66346138540E+02  0.47000000000E+01 0.  1.
         13    1    4    4    0    0 -0.38346808171E+02  0.26997964019E+01 -0.83211758819E+00  0.38450734937E+02  0.00000000000E+00 0. -1.
        -14    1    4    4    0    0 -0.31912271662E+02  0.35484662891E+02 -0.11340880626E+03  0.12304109769E+03  0.00000000000E+00 0.  1.
</event>
<event>
12    1  0.8728348E-002  0.2148428E+03  0.7818608E-02  0.1141821E+00
         21   -1    0    0  503  502  0.00000000000E+00  0.00000000000E+00  0.75567235905E+02  0.75567235905E+02  0.00000000000E+00 0. -1.
         21   -1    0    0  501  503 -0.00000000000E+00 -0.00000000000E+00 -0.11999599275E+04  0.11999599275E+04  0.00000000000E+00 0.  1.
          6    2    1    2  501    0  0.87356147291E+02 -0.29608844126E+02 -0.10419859366E+04  0.10639041879E+04  0.19403517427E+03 0.  0.
         24    2    3    3    0    0  0.10012003641E+03  0.42189759243E+02 -0.53715574486E+03  0.55381246203E+03  0.79799444818E+02 0.  0.
         -6    2    1    2    0  502 -0.87356147291E+02  0.29608844126E+02 -0.82406755071E+02  0.21162297557E+03  0.17171380372E+03 0.  0.
        -24    2    5    5    0    0 -0.68846930370E+02  0.61942245374E+02 -0.18674285906E+01  0.12275952382E+03  0.80558499341E+02 0.  0.
          5    1    3    3  501    0 -0.12763889119E+02 -0.71798603369E+02 -0.50483019170E+03  0.51009172584E+03  0.47000000000E+01 0. -1.
        -13    1    4    4    0    0  0.30720141234E+02 -0.93143278374E+01 -0.29414489353E+03  0.29589136887E+03  0.00000000000E+00 0.  1.
         14    1    4    4    0    0  0.69399895175E+02  0.51504087080E+02 -0.24301085132E+03  0.25792109316E+03  0.00000000000E+00 0. -1.
         -5    1    5    5    0  502 -0.18509216921E+02 -0.32333401248E+02 -0.80539326480E+02  0.88863451751E+02  0.47000000000E+01 0.  1.
         13    1    6    6    0    0  0.10193271600E+02 -0.98179285448E+01 -0.71831491167E+01  0.15871110171E+02  0.00000000000E+00 0. -1.
        -14    1    6    6    0    0 -0.79040201969E+02  0.71760173918E+02  0.53157205261E+01  0.10688841365E+03  0.00000000000E+00 0.  1.
</event>
<event>
12    1  0.8728348E-002  0.2798473E+03  0.7818608E-02  0.1096033E+00
         21   -1    0    0  501  502  0.00000000000E+00  0.00000000000E+00  0.24216942880E+04  0.24216942880E+04  0.00000000000E+00 0.  1.
         21   -1    0    0  502  503 -0.00000000000E+00 -0.00000000000E+00 -0.46694181651E+02  0.46694181651E+02  0.00000000000E+00 0.  1.
         -6    2    1    2    0  503 -0.17989395091E+03 -0.12829836539E+03  0.49518914905E+03  0.56786123829E+03  0.16861728405E+03 0.  0.
        -24    2    3    3    0    0 -0.18006021516E+03 -0.63165213051E+02  0.32145181349E+03  0.38225653214E+03  0.79857765716E+02 0.  0.
          6    2    1    2  501    0  0.17989395091E+03  0.12829836539E+03  0.18798109573E+04  0.19005272314E+04  0.17173298409E+03 0.  0.
         24    2    5    5    0    0  0.70060893090E+02  0.77982828961E+02  0.13838868843E+04  0.13900786737E+04  0.78650876010E+02 0.  0.
          5    1    5    5  501    0  0.10983305782E+03  0.50315536426E+02  0.49592407302E+03  0.51044855764E+03  0.47000000000E+01 0. -1.
        -13    1    6    6    0    0  0.72182943128E+02  0.32208947552E+02  0.65485520976E+03  0.65960832267E+03  0.00000000000E+00 0.  1.
         14    1    6    6    0    0 -0.21220500383E+01  0.45773881409E+02  0.72903167452E+03  0.73047035106E+03  0.00000000000E+00 0. -1.
         -5    1    3    3    0  503  0.16626424987E+00 -0.65133152336E+02  0.17373733555E+03  0.18560470614E+03  0.47000000000E+01 0.  1.
         13    1    4    4    0    0 -0.44786851044E+00 -0.78652009603E+01 -0.20390364302E+01  0.81375452018E+01  0.00000000000E+00 0. -1.
        -14    1    4    4    0    0 -0.17961234665E+03 -0.55300012091E+02  0.32349084992E+03  0.37411898694E+03  0.00000000000E+00 0.  1.
</event>
<event>
12    1  0.8728348E-002  0.1982885E+03  0.7818608E-02  0.1151965E+00
         21   -1    0    0  503  502  0.00000000000E+00  0.00000000000E+00  0.20010579110E+04  0.20010579110E+04  0.00000000000E+00 0. -1.
         21   -1    0    0  501  503 -0.00000000000E+00 -0.00000000000E+00 -0.19671302781E+02  0.19671302781E+02  0.00000000000E+00 0.  1.
          6    2    1    2  501    0  0.60682404319E+01  0.96073120048E+02  0.85972712780E+03  0.88229761491E+03  0.17335362433E+03 0.  0.
         24    2    3    3    0    0  0.20287561828E+02 -0.92840652315E+00  0.24160255870E+03  0.25642897200E+03  0.83495953236E+02 0.  0.
         -6    2    1    2    0  502 -0.60682404319E+01 -0.96073120048E+02  0.11216594804E+04  0.11384315989E+04  0.16923252450E+03 0.  0.
        -24    2    5    5    0    0 -0.11786939792E+02 -0.13293871876E+03  0.95089278472E+03  0.96357414192E+03  0.80413954303E+02 0.  0.
          5    1    3    3  501    0 -0.14219321396E+02  0.97001526571E+02  0.61812456910E+03  0.62586864291E+03  0.47000000000E+01 0. -1.
        -13    1    4    4    0    0  0.27134530051E+02  0.66813708058E+01  0.19465717455E+02  0.34056388431E+02  0.00000000000E+00 0.  1.
         14    1    4    4    0    0 -0.68469682223E+01 -0.76097773289E+01  0.22213684125E+03  0.22237258357E+03  0.00000000000E+00 0. -1.
         -5    1    5    5    0  502  0.57186993598E+01  0.36865598711E+02  0.17076669569E+03  0.17485745694E+03  0.47000000000E+01 0.  1.
         13    1    6    6    0    0 -0.15373614991E+00 -0.91004642790E+02  0.36900189496E+03  0.38005824175E+03  0.00000000000E+00 0. -1.
        -14    1    6    6    0    0 -0.11633203642E+02 -0.41934075969E+02  0.58189088976E+03  0.58351590016E+03  0.00000000000E+00 0.  1.
</event>
<event>
12    1  0.8728348E-002  0.1893322E+03  0.7818608E-02  0.1159233E+00
         21   -1    0    0  503  502  0.00000000000E+00  0.00000000000E+00  0.50619383794E+02  0.50619383794E+02  0.00000000000E+00 0. -1.
         21   -1    0    0  501  503 -0.00000000000E+00 -0.00000000000E+00 -0.75079465286E+03  0.75079465286E+03  0.00000000000E+00 0. -1.
          6    2    1    2  501    0  0.57496806252E+02 -0.51348384663E+02 -0.44927484148E+03  0.48753930918E+03  0.17292818010E+03 0.  0.
         24    2    3    3    0    0  0.22012018745E+02  0.36074131541E+02 -0.27046515811E+03  0.28530958992E+03  0.80400798604E+02 0.  0.
         -6    2    1    2    0  502 -0.57496806252E+02  0.51348384663E+02 -0.25090042759E+03  0.31387472748E+03  0.17211560257E+03 0.  0.
        -24    2    5    5    0    0  0.25526952046E+02 -0.45984698412E+01 -0.82050395512E+02  0.11751939064E+03  0.80036045426E+02 0.  0.
          5    1    3    3  501    0  0.35484787507E+02 -0.87422516204E+02 -0.17880968337E+03  0.20222971926E+03  0.47000000000E+01 0. -1.
        -11    1    4    4    0    0  0.38677896879E+02  0.14018355062E+02 -0.58316612482E+02  0.71367508553E+02  0.00000000000E+00 0.  1.
         12    1    4    4    0    0 -0.16665878134E+02  0.22055776478E+02 -0.21214854563E+03  0.21394208137E+03  0.00000000000E+00 0. -1.
         -5    1    5    5    0  502 -0.83023758298E+02  0.55946854504E+02 -0.16885003208E+03  0.19635533684E+03  0.47000000000E+01 0.  1.
         11    1    6    6    0    0  0.35556246294E+01  0.26990861741E+02 -0.73111805269E+02  0.78015928847E+02  0.00000000000E+00 0. -1.
        -12    1    6    6    0    0  0.21971327417E+02 -0.31589331582E+02 -0.89385902426E+01  0.39503461795E+02  0.00000000000E+00 0.  1.
</event>
<event>
12    1  0.8728348E-002  0.1918908E+03  0.7818608E-02  0.1156769E+00
         21   -1    0    0  501  502  0.00000000000E+00  0.00000000000E+00  0.39073123741E+03  0.39073123741E+03  0.00000000000E+00 0.  1.
         21   -1    0    0  502  503 -0.00000000000E+00 -0.00000000000E+00 -0.13971963440E+03  0.13971963440E+03  0.00000000000E+00 0.  1.
         -6    2    1    2    0  503 -0.69408027396E+02  0.60637444091E+02 -0.25824673126E+02  0.19361200748E+03  0.16829831196E+03 0.  0.
        -24    2    3    3    0    0 -0.48826078518E+02  0.92548398707E+02 -0.58760067475E+02  0.14312680327E+03  0.77995796276E+02 0.  0.
          6    2    1    2  501    0  0.69408027396E+02 -0.60637444091E+02  0.27683627613E+03  0.33683886432E+03  0.16830841583E+03 0.  0.
         24    2    5    5    0    0  0.26727311486E+02 -0.80550830022E+02  0.10381375788E+03  0.15745918801E+03  0.82542802030E+02 0.  0.
          5    1    5    5  501    0  0.42680715909E+02  0.19913385931E+02  0.17302251826E+03  0.17937967631E+03  0.47000000000E+01 0. -1.
        -13    1    6    6    0    0  0.52787358399E+02 -0.33995115149E+02  0.40737718089E+02  0.74844737530E+02  0.00000000000E+00 0.  1.
         14    1    6    6    0    0 -0.26060046913E+02 -0.46555714873E+02  0.63076039790E+02  0.82614450479E+02  0.00000000000E+00 0. -1.
         -5    1    3    3    0  503 -0.20581948877E+02 -0.31910954616E+02  0.32935394349E+02  0.50485204219E+02  0.47000000000E+01 0.  1.
         11    1    4    4    0    0 -0.50046584836E+01  0.76381031280E+02 -0.12818071793E+02  0.77610640446E+02  0.00000000000E+00 0. -1.
        -12    1    4    4    0    0 -0.43821420035E+02  0.16167367427E+02 -0.45941995682E+02  0.65516162819E+02  0.00000000000E+00 0.  1.
</event>
<event>
12    1  0.8728348E-002  0.2183588E+03  0.7818608E-02  0.1135421E+00
         21   -1    0    0  501  502  0.00000000000E+00  0.00000000000E+00  0.18374710676E+04  0.18374710676E+04  0.00000000000E+00 0. -1.
         21   -1    0    0  502  503 -0.00000000000E+00 -0.00000000000E+00 -0.67486404188E+02  0.67486404188E+02  0.00000000000E+00 0. -1.
         -6    2    1    2    0  503 -0.36638144677E+02  0.12874133123E+03  0.13473306308E+03  0.25519131336E+03  0.17044918338E+03 0.  0.
        -24    2    3    3    0    0 -0.33972398387E+02  0.14546688980E+03  0.15364761123E+03  0.22937076641E+03  0.81783984777E+02 0.  0.
          6    2    1    2  501    0  0.36638144677E+02 -0.12874133123E+03  0.16352516003E+04  0.16497661584E+04  0.17252216404E+03 0.  0.
         24    2    5    5    0    0  0.33072701046E+02 -0.10351441987E+03  0.63102327958E+03  0.64520370658E+03  0.79299463715E+02 0.  0.
          5    1    5    5  501    0  0.35654436317E+01 -0.25226911367E+02  0.10042283207E+04  0.10045624518E+04  0.47000000000E+01 0. -1.
        -11    1    6    6    0    0  0.36693619070E+02 -0.62879338885E+01  0.17231528165E+03  0.17629099831E+03  0.00000000000E+00 0.  1.
         12    1    6    6    0    0 -0.36209180245E+01 -0.97226485977E+02  0.45870799792E+03  0.46891270828E+03  0.00000000000E+00 0. -1.
         -5    1    3    3    0  503 -0.26657462901E+01 -0.16725558571E+02 -0.18914548154E+02  0.25820546947E+02  0.47000000000E+01 0.  1.
         11    1    4    4    0    0 -0.39047369368E+02  0.34903939365E+02  0.20534664514E+02  0.56255261838E+02  0.00000000000E+00 0. -1.
        -12    1    4    4    0    0  0.50749709806E+01  0.11056295044E+03  0.13311294672E+03  0.17311550457E+03  0.00000000000E+00 0.  1.
</event>
<event>
12    1  0.8728348E-002  0.2345917E+03  0.7818608E-02  0.1123727E+00
         21   -1    0    0  503  502  0.00000000000E+00  0.00000000000E+00  0.12761160537E+04  0.12761160537E+04  0.00000000000E+00 0. -1.
         21   -1    0    0  501  503 -0.00000000000E+00 -0.00000000000E+00 -0.43680321833E+02  0.43680321833E+02  0.00000000000E+00 0.  1.
          6    2    1    2  501    0 -0.15155654686E+03 -0.41705023508E+02  0.52200429590E+03  0.57163456584E+03  0.17195608756E+03 0.  0.
         24    2    3    3    0    0 -0.20581141843E+01 -0.31355509695E+02  0.19068621834E+03  0.20797173804E+03  0.76834927841E+02 0.  0.
         -6    2    1    2    0  502  0.15155654686E+03  0.41705023508E+02  0.71043143594E+03  0.74816180966E+03  0.17413951987E+03 0.  0.
        -24    2    5    5    0    0  0.17441634625E+03  0.39351623631E+02  0.51039369133E+03  0.54675352237E+03  0.80424386574E+02 0.  0.
          5    1    3    3  501    0 -0.14949843268E+03 -0.10349513812E+02  0.33131807756E+03  0.36366282781E+03  0.47000000000E+01 0. -1.
        -11    1    4    4    0    0 -0.45233429974E+01  0.22895122237E+02  0.27943831720E+02  0.36407485292E+02  0.00000000000E+00 0.  1.
         12    1    4    4    0    0  0.24652288131E+01 -0.54250631932E+02  0.16274238662E+03  0.17156425274E+03  0.00000000000E+00 0. -1.
         -5    1    5    5    0  502 -0.22859799393E+02  0.23533998765E+01  0.20003774461E+03  0.20140828729E+03  0.47000000000E+01 0.  1.
         13    1    6    6    0    0  0.10421556261E+03  0.53719467655E+02  0.38353946993E+03  0.40106008239E+03  0.00000000000E+00 0. -1.
        -14    1    6    6    0    0  0.70200783646E+02 -0.14367844023E+02  0.12685422140E+03  0.14569343998E+03  0.00000000000E+00 0.  1.
</event>
<event>
12    1  0.8728348E-002  0.1975634E+03  0.7818608E-02  0.1152089E+00
         21   -1    0    0  503  502  0.00000000000E+00  0.00000000000E+00  0.10002169995E+03  0.10002169995E+03  0.00000000000E+00 0.  1.
         21   -1    0    0  501  503 -0.00000000000E+00 -0.00000000000E+00 -0.11147532757E+04  0.11147532757E+04  0.00000000000E+00 0.  1.
          6    2    1    2  501    0 -0.84007074701E+02 -0.44776318834E+02 -0.99847092898E+03  0.10178288077E+04  0.17311608397E+03 0.  0.
         24    2    3    3    0    0 -0.96431132781E+02 -0.13898401591E+02 -0.95388273346E+03  0.96198975177E+03  0.77716693060E+02 0.  0.
         -6    2    1    2    0  502  0.84007074701E+02  0.44776318834E+02 -0.16260646757E+02  0.19694616789E+03  0.17164287660E+03 0.  0.
        -24    2    5    5    0    0 -0.35934627467E+01  0.21096954871E+02  0.42130060141E+02  0.88936302181E+02  0.75344073415E+02 0.  0.
          5    1    3    3  501    0  0.12424058080E+02 -0.30877917243E+02 -0.44588195516E+02  0.55839055971E+02  0.47000000000E+01 0. -1.
        -11    1    4    4    0    0 -0.31700636085E+02 -0.37562688042E+02 -0.55726012415E+03  0.55942357104E+03  0.00000000000E+00 0.  1.
         12    1    4    4    0    0 -0.64730496696E+02  0.23664286451E+02 -0.39662260931E+03  0.40256618074E+03  0.00000000000E+00 0. -1.
         -5    1    5    5    0  502  0.87600537448E+02  0.23679363962E+02 -0.58390706898E+02  0.10800986571E+03  0.47000000000E+01 0.  1.
         11    1    6    6    0    0  0.17068660657E+02 -0.18815208816E+02  0.35279177571E+02  0.43473803946E+02  0.00000000000E+00 0. -1.
        -12    1    6    6    0    0 -0.20662123404E+02  0.39912163688E+02  0.68508825702E+01  0.45462498235E+02  0.00000000000E+00 0.  1.
</event>
<event>
12    1  0.8728348E-002  0.1918015E+03  0.7818608E-02  0.1156883E+00
         21   -1    0    0  503  502  0.00000000000E+00  0.00000000000E+00  0.96912600771E+02  0.96912600771E+02  0.00000000000E+00 0.  1.
         21   -1    0    0  501  503 -0.00000000000E+00 -0.00000000000E+00 -0.44291855352E+03  0.44291855352E+03  0.00000000000E+00 0. -1.
          6    2    1    2  501    0  0.74801674707E+02 -0.45310811938E+02 -0.27525671997E+03  0.33539717132E+03  0.17051873920E+03 0.  0.
         24    2    3    3    0    0  0.93273028881E+02 -0.64190391555E+02 -0.27426945042E+03  0.30855142393E+03  0.84616697461E+02 0.  0.
         -6    2    1    2    0  502 -0.74801674707E+02  0.45310811938E+02 -0.70749232773E+02  0.20443398297E+03  0.17070278041E+03 0.  0.
        -24    2    5    5    0    0 -0.94683005902E+02  0.43354842793E+02  0.21271778030E-01  0.13074784140E+03  0.79059999865E+02 0.  0.
          5    1    3    3  501    0 -0.18471354174E+02  0.18879579617E+02 -0.98726955119E+00  0.26845747386E+02  0.47000000000E+01 0. -1.
        -11    1    4    4    0    0  0.49135246192E+02  0.53023334090E+01 -0.53014818355E+02  0.72477293845E+02  0.00000000000E+00 0.  1.
         12    1    4    4    0    0  0.44137782689E+02 -0.69492724964E+02 -0.22125463207E+03  0.23607413009E+03  0.00000000000E+00 0. -1.
         -5    1    5    5    0  502  0.19881331195E+02  0.19559691453E+01 -0.70770504551E+02  0.73686141572E+02  0.47000000000E+01 0.  1.
         11    1    6    6    0    0 -0.20264208212E+02  0.50978937843E+02  0.82987649653E+01  0.55482967999E+02  0.00000000000E+00 0. -1.
        -12    1    6    6    0    0 -0.74418797690E+02 -0.76240950498E+01 -0.82774931873E+01  0.75264873403E+02  0.00000000000E+00 0.  1.
</event>
<event>
12    1  0.8728348E-002  0.1987897E+03  0.7818608E-02  0.1150791E+00
         21   -1    0    0  501  502  0.00000000000E+00  0.00000000000E+00  0.12157548995E+04  0.12157548995E+04  0.00000000000E+00 0. -1.
         21   -1    0    0  502  503 -0.00000000000E+00 -0.00000000000E+00 -0.34598497276E+02  0.34598497276E+02  0.00000000000E+00 0.  1.
         -6    2    1    2    0  503 -0.85912137988E+02 -0.48092940820E+02  0.43583217388E+03  0.47897441240E+03  0.17254847880E+03 0.  0.
        -24    2    3    3    0    0 -0.23550986098E+02 -0.86686616039E+02  0.26070024799E+03  0.28904898888E+03  0.86691870017E+02 0.  0.
          6    2    1    2  501    0  0.85912137988E+02  0.48092940820E+02  0.74532422833E+03  0.77137898436E+03  0.17269483422E+03 0.  0.
         24    2    5    5    0    0  0.75073018292E+02  0.10344307754E+02  0.24404660868E+03  0.26854323804E+03  0.82545506908E+02 0.  0.
          5    1    5    5  501    0  0.10839119697E+02  0.37748633065E+02  0.50127761965E+03  0.50283574632E+03  0.47000000000E+01 0. -1.
        -13    1    6    6    0    0  0.54916845801E+02  0.38433830869E+02  0.99867645880E+02  0.12027703855E+03  0.00000000000E+00 0.  1.
         14    1    6    6    0    0  0.20156172491E+02 -0.28089523114E+02  0.14417896280E+03  0.14826619949E+03  0.00000000000E+00 0. -1.
         -5    1    3    3    0  503 -0.62361151890E+02  0.38593675219E+02  0.17513192589E+03  0.18992542352E+03  0.47000000000E+01 0.  1.
         13    1    4    4    0    0 -0.27820586027E+02 -0.53490972893E+02  0.24457629148E+03  0.25189845482E+03  0.00000000000E+00 0. -1.
        -14    1    4    4    0    0  0.42695999289E+01 -0.33195643146E+02  0.16123956505E+02  0.37150534058E+02  0.00000000000E+00 0.  1.
</event>
<event>
12    1  0.8728348E-002  0.1743886E+03  0.7818608E-02  0.1173468E+00
         21   -1    0    0  501  502  0.00000000000E+00  0.00000000000E+00  0.78733869537E+02  0.78733869537E+02  0.00000000000E+00 0. -1.
         21   -1    0    0  502  503 -0.00000000000E+00 -0.00000000000E+00 -0.59807912704E+03  0.59807912704E+03  0.00000000000E+00 0. -1.
         -6    2    1    2    0  503 -0.23085187317E+02 -0.15219943552E+02 -0.46179819770E+03  0.49362834961E+03  0.17218246015E+03 0.  0.
        -24    2    3    3    0    0  0.22756977931E+02 -0.84881950385E+00 -0.41043416494E+03  0.42314156232E+03  0.10036920581E+03 0.  0.
          6    2    1    2  501    0  0.23085187317E+02  0.15219943552E+02 -0.57547059802E+02  0.18318464697E+03  0.17169850971E+03 0.  0.
         24    2    5    5    0    0  0.48134588244E+02  0.50881717632E+02  0.60387860889E+01  0.10595457242E+03  0.79271790090E+02 0.  0.
          5    1    5    5  501    0 -0.25049400928E+02 -0.35661774080E+02 -0.63585845891E+02  0.77230074550E+02  0.47000000000E+01 0. -1.
        -13    1    6    6    0    0  0.23346207238E+02 -0.17274265625E+02 -0.11671476081E+02  0.31299664522E+02  0.00000000000E+00 0.  1.
         14    1    6    6    0    0  0.24788381006E+02  0.68155983257E+02  0.17710262170E+02  0.74654907894E+02  0.00000000000E+00 0. -1.
         -5    1    3    3    0  503 -0.45842165247E+02 -0.14371124048E+02 -0.51364032769E+02  0.70486787295E+02  0.47000000000E+01 0.  1.
         11    1    4    4    0    0 -0.33183152047E+02  0.26508835626E+01 -0.26826739646E+03  0.27032488744E+03  0.00000000000E+00 0. -1.
        -12    1    4    4    0    0  0.55940129978E+02 -0.34997030665E+01 -0.14216676847E+03  0.15281667488E+03  0.00000000000E+00 0.  1.
</event>
<event>
12    1  0.8728348E-002  0.1858629E+03  0.7818608E-02  0.1163359E+00
         21   -1    0    0  501  502  0.00000000000E+00  0.00000000000E+00  0.13680342634E+04  0.13680342634E+04  0.00000000000E+00 0.  1.
         21   -1    0    0  502  503 -0.00000000000E+00 -0.00000000000E+00 -0.25391981430E+02  0.25391981430E+02  0.00000000000E+00 0.  1.
         -6    2    1    2    0  503  0.55540615241E+02 -0.17586586326E+02  0.80168986670E+03  0.82295301499E+03  0.17649638681E+03 0.  0.
        -24    2    3    3    0    0  0.66061081482E+02 -0.64067264076E+02  0.39499361162E+03  0.41344713285E+03  0.80311254677E+02 0.  0.
          6    2    1    2  501    0 -0.55540615241E+02  0.17586586326E+02  0.54095241531E+03  0.57047322988E+03  0.17151134778E+03 0.  0.
         24    2    5    5    0    0 -0.89183719458E+02  0.27802010885E+01  0.25082687124E+03  0.27799073668E+03  0.80020403710E+02 0.  0.
          5    1    5    5  501    0  0.33643104217E+02  0.14806385238E+02  0.29012554407E+03  0.29248249319E+03  0.47000000000E+01 0. -1.
        -13    1    6    6    0    0 -0.47644772714E+02 -0.60343871555E+01  0.22085133997E+03  0.22601272655E+03  0.00000000000E+00 0.  1.
         14    1    6    6    0    0 -0.41538946744E+02  0.88145882440E+01  0.29975531273E+02  0.51978010135E+02  0.00000000000E+00 0. -1.
         -5    1    3    3    0  503 -0.10520466241E+02  0.46480677750E+02  0.40669625507E+03  0.40950588214E+03  0.47000000000E+01 0.  1.
         13    1    4    4    0    0  0.25343314055E+02 -0.67973910387E+02  0.17104097173E+03  0.18578953165E+03  0.00000000000E+00 0. -1.
        -14    1    4    4    0    0  0.40717767427E+02  0.39066463111E+01  0.22395263990E+03  0.22765760120E+03  0.00000000000E+00 0.  1.
</event>
<event>
12    1  0.8728348E-002  0.2181992E+03  0.7818608E-02  0.1135371E+00
         21   -1    0    0  503  502  0.00000000000E+00  0.00000000000E+00  0.84195290396E+03  0.84195290396E+03  0.00000000000E+00 0. -1.
         21   -1    0    0  501  503 -0.00000000000E+00 -0.00000000000E+00 -0.80070687851E+02  0.80070687851E+02  0.00000000000E+00 0. -1.
          6    2    1    2  501    0 -0.10865131224E+03  0.77676400464E+02  0.13051407564E+03  0.25425344400E+03  0.17254610689E+03 0.  0.
         24    2    3    3    0    0 -0.11656009273E+03  0.18274401463E+02  0.44037924060E+02  0.14893791292E+03  0.79517005624E+02 0.  0.
         -6    2    1    2    0  502  0.10865131224E+03 -0.77676400464E+02  0.63136814047E+03  0.66777014781E+03  0.17161733790E+03 0.  0.
        -24    2    5    5    0    0  0.55196771625E+02 -0.22206734269E+02  0.14879412785E+03  0.17906365161E+03  0.79901665806E+02 0.  0.
          5    1    3    3  501    0  0.79087804861E+01  0.59401999001E+02  0.86476151585E+02  0.10531553108E+03  0.47000000000E+01 0. -1.
        -13    1    4    4    0    0 -0.78361939460E+02 -0.87331911933E+01 -0.76569301559E+01  0.79217995201E+02  0.00000000000E+00 0.  1.
         14    1    4    4    0    0 -0.38198153271E+02  0.27007592656E+02  0.51694854215E+02  0.69719917719E+02  0.00000000000E+00 0. -1.
         -5    1    5    5    0  502  0.53454540619E+02 -0.55469666195E+02  0.48257401262E+03  0.48870649620E+03  0.47000000000E+01 0.  1.
         13    1    6    6    0    0  0.33314846769E+02 -0.18735641308E+02  0.15195093422E+03  0.15668436323E+03  0.00000000000E+00 0. -1.
        -14    1    6    6    0    0  0.21881924856E+02 -0.34710929610E+01 -0.31568063686E+01  0.22379288376E+02  0.00000000000E+00 0.  1.
</event>
<event>
12    1  0.8728348E-002  0.1733103E+03  0.7818608E-02  0.1174569E+00
         21   -1    0    0  501  502  0.00000000000E+00  0.00000000000E+00  0.90210776144E+02  0.90210776144E+02  0.00000000000E+00 0.  1.
         21   -1    0    0  502  503 -0.00000000000E+00 -0.00000000000E+00 -0.93813039281E+03  0.93813039281E+03  0.00000000000E+00 0.  1.
         -6    2    1    2    0  503  0.15188011220E+02  0.18524943856E+02 -0.83747976418E+03  0.85522443075E+03  0.17164679521E+03 0.  0.
        -24    2    3    3    0    0  0.33561210709E+02  0.18041494145E+02 -0.22191743061E+03  0.23936983371E+03  0.81232511387E+02 0.  0.
          6    2    1    2  501    0 -0.15188011220E+02 -0.18524943856E+02 -0.10439852485E+02  0.17311673821E+03  0.17113318000E+03 0.  0.
         24    2    5    5    0    0 -0.51059155071E+02  0.23812907140E+02  0.12428711538E+02  0.11291463020E+03  0.97062603402E+02 0.  0.
          5    1    5    5  501    0  0.35871143852E+02 -0.42337850996E+02 -0.22868564023E+02  0.60202108008E+02  0.47000000000E+01 0. -1.
        -13    1    6    6    0    0 -0.36252377848E+02 -0.42790173815E+00  0.52496929557E+02  0.63799260281E+02  0.00000000000E+00 0.  1.
         14    1    6    6    0    0 -0.14806777223E+02  0.24240808878E+02 -0.40068218019E+02  0.49115369916E+02  0.00000000000E+00 0. -1.
         -5    1    3    3    0  503 -0.18373199490E+02  0.48344971109E+00 -0.61556233357E+03  0.61585459704E+03  0.47000000000E+01 0.  1.
         13    1    4    4    0    0 -0.12639545291E+02 -0.14853767004E+02 -0.14405009981E+02  0.24246583510E+02  0.00000000000E+00 0. -1.
        -14    1    4    4    0    0  0.46200756000E+02  0.32895261149E+02 -0.20751242063E+03  0.21512325020E+03  0.00000000000E+00 0.  1.
</event>
<event>
12    1  0.8728348E-002  0.2230227E+03  0.7818608E-02  0.1131926E+00
         21   -1    0    0  503  502  0.00000000000E+00  0.00000000000E+00  0.43792911690E+03  0.43792911690E+03  0.00000000000E+00 0. -1.
         21   -1    0    0  501  503 -0.00000000000E+00 -0.00000000000E+00 -0.13089438863E+03  0.13089438863E+03  0.00000000000E+00 0. -1.
          6    2    1    2  501    0  0.14012646395E+03 -0.13675014405E+02  0.48258161264E+02  0.22818404667E+03  0.17296438104E+03 0.  0.
         24    2    3    3    0    0  0.12182148338E+02 -0.42759271418E+02  0.20370567398E+02  0.93962402380E+02  0.80232244232E+02 0.  0.
         -6    2    1    2    0  502 -0.14012646395E+03  0.13675014405E+02  0.25877656700E+03  0.34063945886E+03  0.17101899715E+03 0.  0.
        -24    2    5    5    0    0 -0.10978136916E+03 -0.40371637638E+02  0.10389239768E+03  0.17374709451E+03  0.75581773030E+02 0.  0.
          5    1    3    3  501    0  0.12794431561E+03  0.29084257014E+02  0.27887593865E+02  0.13422164429E+03  0.47000000000E+01 0. -1.
        -13    1    4    4    0    0  0.15693579594E+01  0.21966979704E+01  0.42610263764E+02  0.42695701709E+02  0.00000000000E+00 0.  1.
         14    1    4    4    0    0  0.10612790378E+02 -0.44955969389E+02 -0.22239696366E+02  0.51266700671E+02  0.00000000000E+00 0. -1.
         -5    1    5    5    0  502 -0.30345094795E+02  0.54046652042E+02  0.15488416932E+03  0.16689236435E+03  0.47000000000E+01 0.  1.
         11    1    6    6    0    0 -0.62505823982E+02 -0.31051768489E+02  0.13174814189E+02  0.71026516787E+02  0.00000000000E+00 0. -1.
        -12    1    6    6    0    0 -0.47275545173E+02 -0.93198691492E+01  0.90717583493E+02  0.10272057772E+03  0.00000000000E+00 0.  1.
</event>
<event>
12    1  0.8728348E-002  0.2333040E+03  0.7818608E-02  0.1124430E+00
         21   -1    0    0  501  502  0.00000000000E+00  0.00000000000E+00  0.31443322998E+02  0.31443322998E+02  0.00000000000E+00 0. -1.
         21   -1    0    0  502  503 -0.00000000000E+00 -0.00000000000E+00 -0.18817091703E+04  0.18817091703E+04  0.00000000000E+00 0. -1.
         -6    2    1    2    0  503  0.12137395929E+03 -0.10237314800E+03 -0.11984021137E+04  0.12207963223E+04  0.17018852766E+03 0.  0.
        -24    2    3    3    0    0  0.11586007901E+03 -0.20324261049E+02 -0.92571003272E+03  0.93593585862E+03  0.72112643023E+02 0.  0.
          6    2    1    2  501    0 -0.12137395929E+03  0.10237314800E+03 -0.65186373366E+03  0.69235617107E+03  0.17093519515E+03 0.  0.
         24    2    5    5    0    0 -0.38250879873E+02  0.51165144775E+02 -0.50923639857E+03  0.51945055335E+03  0.80163370036E+02 0.  0.
          5    1    5    5  501    0 -0.83123079418E+02  0.51208003224E+02 -0.14262733508E+03  0.17290561772E+03  0.47000000000E+01 0. -1.
        -11    1    6    6    0    0 -0.27221907516E+02  0.27982669720E+02 -0.75873359878E+02  0.85327772693E+02  0.00000000000E+00 0.  1.
         12    1    6    6    0    0 -0.11028972357E+02  0.23182475054E+02 -0.43336303869E+03  0.43412278066E+03  0.00000000000E+00 0. -1.
         -5    1    3    3    0  503  0.55138802829E+01 -0.82048886949E+02 -0.27269208097E+03  0.28486046365E+03  0.47000000000E+01 0.  1.
         11    1    4    4    0    0  0.15759592348E+02 -0.54925008892E+01 -0.28421894480E+02  0.32959617759E+02  0.00000000000E+00 0. -1.
        -12    1    4    4    0    0  0.10010048666E+03 -0.14831760160E+02 -0.89728813824E+03  0.90297624086E+03  0.00000000000E+00 0.  1.
</event>
<event>
12    1  0.8728348E-002  0.1750678E+03  0.7818608E-02  0.1172970E+00
         21   -1    0    0  501  502  0.00000000000E+00  0.00000000000E+00  0.66888038358E+02  0.66888038358E+02  0.00000000000E+00 0.  1.
         21   -1    0    0  502  503 -0.00000000000E+00 -0.00000000000E+00 -0.45642462693E+03  0.45642462693E+03  0.00000000000E+00 0.  1.
         -6    2    1    2    0  503  0.23148155315E+02  0.38399205966E+01 -0.18099814791E+03  0.25181155857E+03  0.17348818231E+03 0.  0.
        -24    2    3    3    0    0  0.23221350376E+02 -0.97058225176E+00 -0.20784169663E+03  0.22413824285E+03  0.80620145784E+02 0.  0.
          6    2    1    2  501    0 -0.23148155315E+02 -0.38399205966E+01 -0.20853844067E+03  0.27150110672E+03  0.17226139332E+03 0.  0.
         24    2    5    5    0    0 -0.76545735981E+02  0.80579045156E+00 -0.89091160411E+02  0.14049489689E+03  0.77082307917E+02 0.  0.
          5    1    5    5  501    0  0.53397580666E+02 -0.46457110482E+01 -0.11944728026E+03  0.13100620983E+03  0.47000000000E+01 0. -1.
        -13    1    6    6    0    0 -0.28614435168E+01  0.81169077681E+01 -0.60518228318E+02  0.61127146257E+02  0.00000000000E+00 0.  1.
         14    1    6    6    0    0 -0.73684292464E+02 -0.73111173165E+01 -0.28572932093E+02  0.79367750634E+02  0.00000000000E+00 0. -1.
         -5    1    3    3    0  503 -0.73195061561E-01  0.48105028484E+01  0.26843548723E+02  0.27673315725E+02  0.47000000000E+01 0.  1.
         11    1    4    4    0    0  0.48805445639E+02 -0.18783654761E+02 -0.14095744403E+03  0.15034559600E+03  0.00000000000E+00 0. -1.
        -12    1    4    4    0    0 -0.25584095262E+02  0.17813072509E+02 -0.66884252599E+02  0.73792646845E+02  0.00000000000E+00 0.  1.
</event>
<event>
12    1  0.8728348E-002  0.1985423E+03  0.7818608E-02  0.1153934E+00
         21   -1    0    0  503  502  0.00000000000E+00  0.00000000000E+00  0.10642203585E+03  0.10642203585E+03  0.00000000000E+00 0. -1.
         21   -1    0    0  501  503 -0.00000000000E+00 -0.00000000000E+00 -0.50799636446E+03  0.50799636446E+03  0.00000000000E+00 0.  1.
          6    2    1    2  501    0  0.72068958587E+02  0.71468300978E+02 -0.36950905513E+03  0.41330339411E+03  0.15485832532E+03 0.  0.
         24    2    3    3    0    0  0.64812014923E+02  0.99315235886E+02 -0.34972138061E+03  0.37806482038E+03  0.81017596857E+02 0.  0.
         -6    2    1    2    0  502 -0.72068958587E+02 -0.71468300978E+02 -0.32065273486E+02  0.20111500620E+03  0.17063824636E+03 0.  0.
        -24    2    5    5    0    0 -0.87840587162E+01 -0.86780799425E+02  0.21056481792E+02  0.11695170040E+03  0.75008385958E+02 0.  0.
          5    1    3    3  501    0  0.72569436642E+01 -0.27846934908E+02 -0.19787674520E+02  0.35238573723E+02  0.47000000000E+01 0. -1.
        -11    1    4    4    0    0  0.41878303709E+02  0.55333888587E+02 -0.29966571618E+03  0.30759579484E+03  0.00000000000E+00 0.  1.
         12    1    4    4    0    0  0.22933711214E+02  0.43981347298E+02 -0.50055664427E+02  0.70469025546E+02  0.00000000000E+00 0. -1.
         -5    1    5    5    0  502 -0.63284899871E+02  0.15312498447E+02 -0.53121755278E+02  0.84163305806E+02  0.47000000000E+01 0.  1.
         13    1    6    6    0    0  0.30939872448E+02 -0.41769564439E+02 -0.34818990261E+01  0.52096984954E+02  0.00000000000E+00 0. -1.
        -14    1    6    6    0    0 -0.39723931164E+02 -0.45011234986E+02  0.24538380819E+02  0.64854715443E+02  0.00000000000E+00 0.  1.
</event>
<event>
12    1  0.8728348E-002  0.2182107E+03  0.7818608E-02  0.1137181E+00
         21   -1    0    0  503  502  0.00000000000E+00  0.00000000000E+00  0.10665410465E+03  0.10665410465E+03  0.00000000000E+00 0.  1.
         21   -1    0    0  501  503 -0.00000000000E+00 -0.00000000000E+00 -0.58577393979E+03  0.58577393979E+03  0.00000000000E+00 0. -1.
          6    2    1    2  501    0 -0.40626209000E+02 -0.12703106695E+03 -0.42449463734E+03  0.47729612286E+03  0.17270932499E+03 0.  0.
         24    2    3    3    0    0 -0.13158490489E+02 -0.34082076511E+02 -0.73345687115E+02  0.11298627448E+03  0.77791867125E+02 0.  0.
         -6    2    1    2    0  502  0.40626209000E+02  0.12703106695E+03 -0.54625197808E+02  0.21513192158E+03  0.15971991304E+03 0.  0.
        -24    2    5    5    0    0  0.74676254668E+02  0.63411416809E+02 -0.65748551863E+02  0.14196987884E+03  0.78962165823E+02 0.  0.
          5    1    3    3  501    0 -0.27467718511E+02 -0.92948990434E+02 -0.35114895022E+03  0.36430984838E+03  0.47000000000E+01 0. -1.
        -11    1    4    4    0    0 -0.96537979622E+01  0.24516124233E+02 -0.30532656527E+02  0.40329632742E+02  0.00000000000E+00 0.  1.
         12    1    4    4    0    0 -0.35046925272E+01 -0.58598200744E+02 -0.42813030588E+02  0.72656641736E+02  0.00000000000E+00 0. -1.
         -5    1    5    5    0  502 -0.34050045668E+02  0.63619650136E+02  0.11123354055E+02  0.73162042747E+02  0.47000000000E+01 0.  1.
         13    1    6    6    0    0  0.71772387122E+02  0.15429899712E+02 -0.21150752712E+02  0.76398374973E+02  0.00000000000E+00 0. -1.
        -14    1    6    6    0    0  0.29038675463E+01  0.47981517097E+02 -0.44597799151E+02  0.65571503862E+02  0.00000000000E+00 0.  1.
</event>
<event>
12    1  0.8728348E-002  0.2533773E+03  0.7818608E-02  0.1111415E+00
         21   -1    0    0  503  502  0.00000000000E+00  0.00000000000E+00  0.72573821998E+03  0.72573821998E+03  0.00000000000E+00 0.  1.
         21   -1    0    0  501  503 -0.00000000000E+00 -0.00000000000E+00 -0.88806959368E+02  0.88806959368E+02  0.00000000000E+00 0. -1.
          6    2    1    2  501    0  0.11991035229E+03 -0.14206454031E+03  0.35742168922E+03  0.43728446446E+03  0.17001944812E+03 0.  0.
         24    2    3    3    0    0  0.74152188393E+02 -0.10395347860E+03  0.12805436855E+03  0.20026606776E+03  0.86044778068E+02 0.  0.
         -6    2    1    2    0  502 -0.11991035229E+03  0.14206454031E+03  0.27950957140E+03  0.37726071489E+03  0.17216044927E+03 0.  0.
        -24    2    5    5    0    0 -0.25811531642E+02  0.48377832444E+02  0.37181324825E+02  0.10089708420E+03  0.76099414233E+02 0.  0.
          5    1    3    3  501    0  0.45758163898E+02 -0.38111061711E+02  0.22936732067E+03  0.23701839671E+03  0.47000000000E+01 0. -1.
        -13    1    4    4    0    0  0.17294431185E+02 -0.35037961902E+02  0.98815612001E+02  0.10626044090E+03  0.00000000000E+00 0.  1.
         14    1    4    4    0    0  0.56857757208E+02 -0.68915516700E+02  0.29238756548E+02  0.94005626859E+02  0.00000000000E+00 0. -1.
         -5    1    5    5    0  502 -0.94098820649E+02  0.93686707869E+02  0.24232824657E+03  0.27636363069E+03  0.47000000000E+01 0.  1.
         13    1    6    6    0    0 -0.49340146223E+02  0.45568437797E+02  0.38035973246E+02  0.77185930151E+02  0.00000000000E+00 0. -1.
        -14    1    6    6    0    0  0.23528614581E+02  0.28093946469E+01 -0.85464842167E+00  0.23711154048E+02  0.00000000000E+00 0.  1.
</event>
<event>
12    1  0.8728348E-002  0.2415476E+03  0.7818608E-02  0.1118919E+00
         21   -1    0    0  503  502  0.00000000000E+00  0.00000000000E+00  0.22252576028E+03  0.22252576028E+03  0.00000000000E+00 0. -1.
         21   -1    0    0  501  503 -0.00000000000E+00 -0.00000000000E+00 -0.27559667330E+03  0.27559667330E+03  0.00000000000E+00 0.  1.
          6    2    1    2  501    0  0.14652097061E+03 -0.85295035836E+02 -0.83515919588E+02  0.25557811100E+03  0.17205122501E+03 0.  0.
         24    2    3    3    0    0  0.17562968707E+03 -0.89468805531E+02 -0.85743630364E+02  0.22571525074E+03  0.68883598399E+02 0.  0.
         -6    2    1    2    0  502 -0.14652097061E+03  0.85295035836E+02  0.30445006566E+02  0.24254432257E+03  0.17075483015E+03 0.  0.
        -24    2    5    5    0    0 -0.17446252730E+03  0.66032894670E+02  0.20124222793E+02  0.20676207488E+03  0.86879541063E+02 0.  0.
          5    1    3    3  501    0 -0.29108716456E+02  0.41737696941E+01  0.22277107761E+01  0.29862860252E+02  0.47000000000E+01 0. -1.
        -13    1    4    4    0    0 -0.34994870835E+01  0.13995433970E+00 -0.11637846876E+02  0.12153414211E+02  0.00000000000E+00 0.  1.
         14    1    4    4    0    0  0.17912917415E+03 -0.89608759870E+02 -0.74105783488E+02  0.21356183653E+03  0.00000000000E+00 0. -1.
         -5    1    5    5    0  502  0.27941556687E+02  0.19262141167E+02  0.10320783773E+02  0.35782247695E+02  0.47000000000E+01 0.  1.
         11    1    6    6    0    0 -0.23985935420E+02  0.47478088867E+02  0.14082285697E+02  0.55025492192E+02  0.00000000000E+00 0. -1.
        -12    1    6    6    0    0 -0.15047659188E+03  0.18554805802E+02  0.60419370956E+01  0.15173658269E+03  0.00000000000E+00 0.  1.
</event>
<event>
12    1  0.8728348E-002  0.1965931E+03  0.7818608E-02  0.1152670E+00
         21   -1    0    0  501  502  0.00000000000E+00  0.00000000000E+00  0.52472238651E+02  0.52472238651E+02  0.00000000000E+00 0.  1.
         21   -1    0    0  502  503 -0.00000000000E+00 -0.00000000000E+00 -0.73711238495E+03  0.73711238495E+03  0.00000000000E+00 0.  1.
         -6    2    1    2    0  503  0.90189500660E+02 -0.31960626255E+02 -0.35655651563E+03  0.40710884852E+03  0.17160838571E+03 0.  0.
        -24    2    3    3    0    0  0.51905189137E+02  0.61347635332E+00 -0.34148694637E+03  0.35442163387E+03  0.79415584122E+02 0.  0.
          6    2    1    2  501    0 -0.90189500660E+02  0.31960626255E+02 -0.32808363067E+03  0.38247577508E+03  0.17173590816E+03 0.  0.
         24    2    5    5    0    0 -0.70049970494E+02 -0.25274451391E+02 -0.10115209198E+03  0.14752584841E+03  0.77371402852E+02 0.  0.
          5    1    5    5  501    0 -0.20139530167E+02  0.57235077646E+02 -0.22693153869E+03  0.23494992667E+03  0.47000000000E+01 0. -1.
        -11    1    6    6    0    0 -0.69593603206E+02 -0.46885730086E+02 -0.68281281445E+02  0.10818444754E+03  0.00000000000E+00 0.  1.
         12    1    6    6    0    0 -0.45636728750E+00  0.21611278695E+02 -0.32870810532E+02  0.39341400877E+02  0.00000000000E+00 0. -1.
         -5    1    3    3    0  503  0.38284311523E+02 -0.32574102608E+02 -0.15069569256E+02  0.52687214645E+02  0.47000000000E+01 0.  1.
         13    1    4    4    0    0 -0.15422111125E+02 -0.11729675771E+02 -0.31618857576E+02  0.37083405448E+02  0.00000000000E+00 0. -1.
        -14    1    4    4    0    0  0.67327300262E+02  0.12343152124E+02 -0.30986808880E+03  0.31733822843E+03  0.00000000000E+00 0.  1.
</event>
<event>
12    1  0.8728348E-002  0.1733917E+03  0.7818608E-02  0.1174504E+00
         21   -1    0    0  501  502  0.00000000000E+00  0.00000000000E+00  0.78207804773E+03  0.78207804773E+03  0.00000000000E+00 0. -1.
         21   -1    0    0  502  503 -0.00000000000E+00 -0.00000000000E+00 -0.59594397757E+02  0.59594397757E+02  0.00000000000E+00 0. -1.
         -6    2    1    2    0  503  0.13018790037E+02  0.12687151670E+02  0.10937425576E+03  0.20451640871E+03  0.17185395223E+03 0.  0.
        -24    2    3    3    0    0  0.11397619056E+02 -0.56774598997E+02  0.43479127759E+02  0.10864242426E+03  0.80990622830E+02 0.  0.
          6    2    1    2  501    0 -0.13018790037E+02 -0.12687151670E+02  0.61310939421E+03  0.63715603677E+03  0.17243617142E+03 0.  0.
         24    2    5    5    0    0  0.34568935575E+02  0.44611688277E+02  0.34587101942E+03  0.35969218751E+03  0.81033904274E+02 0.  0.
          5    1    5    5  501    0 -0.47587725612E+02 -0.57298839947E+02  0.26723837479E+03  0.27746384926E+03  0.47000000000E+01 0. -1.
        -13    1    6    6    0    0 -0.57336111590E+01  0.22212708365E+02  0.26954907351E+03  0.27052353269E+03  0.00000000000E+00 0.  1.
         14    1    6    6    0    0  0.40302546734E+02  0.22398979912E+02  0.76321945913E+02  0.89168654820E+02  0.00000000000E+00 0. -1.
         -5    1    3    3    0  503  0.16211709808E+01  0.69461750667E+02  0.65895128005E+02  0.95873984458E+02  0.47000000000E+01 0.  1.
         11    1    4    4    0    0  0.29846550551E+02 -0.51766364138E+02  0.59033557976E+02  0.83997226163E+02  0.00000000000E+00 0. -1.
        -12    1    4    4    0    0 -0.18448931495E+02 -0.50082348589E+01 -0.15554430217E+02  0.24645198094E+02  0.00000000000E+00 0.  1.
</event>
<event>
12    1  0.8728348E-002  0.1903256E+03  0.7818608E-02  0.1158342E+00
         21   -1    0    0  501  502  0.00000000000E+00  0.00000000000E+00  0.58636591019E+02  0.58636591019E+02  0.00000000000E+00 0.  1.
         21   -1    0    0  502  503 -0.00000000000E+00 -0.00000000000E+00 -0.66510962493E+03  0.66510962493E+03  0.00000000000E+00 0.  1.
         -6    2    1    2    0  503 -0.55313177889E+02 -0.56901592797E+02 -0.40287223460E+03  0.44556690836E+03  0.17299275564E+03 0.  0.
        -24    2    3    3    0    0 -0.17010074156E+02 -0.55200151533E+02 -0.80412227366E+02  0.12080150238E+03  0.69213274120E+02 0.  0.
          6    2    1    2  501    0  0.55313177889E+02  0.56901592797E+02 -0.20360079931E+03  0.27817930759E+03  0.17214268146E+03 0.  0.
         24    2    5    5    0    0  0.25727890222E+02  0.92076976372E+02 -0.19429526829E+03  0.23104885285E+03  0.80578081470E+02 0.  0.
          5    1    5    5  501    0  0.29585287666E+02 -0.35175383575E+02 -0.93055310253E+01  0.47130454736E+02  0.47000000000E+01 0. -1.
        -13    1    6    6    0    0  0.38166555246E+02  0.20586727953E+02 -0.34035912993E+02  0.55126605921E+02  0.00000000000E+00 0.  1.
         14    1    6    6    0    0 -0.12438665024E+02  0.71490248419E+02 -0.16025935529E+03  0.17592224693E+03  0.00000000000E+00 0. -1.
         -5    1    3    3    0  503 -0.38303103733E+02 -0.17014412641E+01 -0.32246000724E+03  0.32476540599E+03  0.47000000000E+01 0.  1.
         11    1    4    4    0    0 -0.36445734078E+02 -0.50797932779E+02 -0.36049601577E+02  0.72168520014E+02  0.00000000000E+00 0. -1.
        -12    1    4    4    0    0  0.19435659923E+02 -0.44022187538E+01 -0.44362625789E+02  0.48632982363E+02  0.00000000000E+00 0.  1.
</event>
<event>
12    1  0.8728348E-002  0.1746239E+03  0.7818608E-02  0.1173277E+00
         21   -1    0    0  501  502  0.00000000000E+00  0.00000000000E+00  0.18323208115E+04  0.18323208115E+04  0.00000000000E+00 0. -1.
         21   -1    0    0  502  503 -0.00000000000E+00 -0.00000000000E+00 -0.17650368814E+02  0.17650368814E+02  0.00000000000E+00 0. -1.
         -6    2    1    2    0  503  0.37443920055E+00 -0.28153918064E+02  0.11368685061E+04  0.11502015063E+04  0.17233897312E+03 0.  0.
        -24    2    3    3    0    0 -0.36961552870E+02 -0.71467054146E+02  0.62734653758E+03  0.63745914365E+03  0.79478207049E+02 0.  0.
          6    2    1    2  501    0 -0.37443920055E+00  0.28153918064E+02  0.67780193659E+03  0.69976967400E+03  0.17166638606E+03 0.  0.
         24    2    5    5    0    0  0.12208165312E+02 -0.21461044203E+02  0.60400851899E+03  0.60983900683E+03  0.80422058674E+02 0.  0.
          5    1    5    5  501    0 -0.12582604513E+02  0.49614962267E+02  0.73793417596E+02  0.89930667170E+02  0.47000000000E+01 0. -1.
        -13    1    6    6    0    0  0.40574764076E+02 -0.77836244364E+00  0.45251316542E+03  0.45432926629E+03  0.00000000000E+00 0.  1.
         14    1    6    6    0    0 -0.28366598764E+02 -0.20682681760E+02  0.15149535357E+03  0.15550974054E+03  0.00000000000E+00 0. -1.
         -5    1    3    3    0  503  0.37335992071E+02  0.43313136082E+02  0.50952196849E+03  0.51274236263E+03  0.47000000000E+01 0.  1.
         13    1    4    4    0    0  0.13405186421E+02 -0.47860250901E+02  0.18244593521E+03  0.18909474322E+03  0.00000000000E+00 0. -1.
        -14    1    4    4    0    0 -0.50366739291E+02 -0.23606803245E+02  0.44490060237E+03  0.44836440043E+03  0.00000000000E+00 0.  1.
</event>
<event>
12    1  0.8728348E-002  0.1875653E+03  0.7818608E-02  0.1161022E+00
         21   -1    0    0  503  502  0.00000000000E+00  0.00000000000E+00  0.17347159529E+03  0.17347159529E+03  0.00000000000E+00 0. -1.
         21   -1    0    0  501  503 -0.00000000000E+00 -0.00000000000E+00 -0.21137934120E+03  0.21137934120E+03  0.00000000000E+00 0. -1.
          6    2    1    2  501    0  0.44522984262E+02  0.59898168725E+02 -0.61149908180E+02  0.19585109047E+03  0.17043547643E+03 0.  0.
         24    2    3    3    0    0  0.74788903513E+02  0.13421788550E+02 -0.78811896623E+02  0.13745489524E+03  0.83120446813E+02 0.  0.
         -6    2    1    2    0  502 -0.44522984262E+02 -0.59898168725E+02  0.23242162270E+02  0.18899984602E+03  0.17207747367E+03 0.  0.
        -24    2    5    5    0    0 -0.90542623472E+02 -0.55052550510E+02 -0.94571235848E+01  0.13214370735E+03  0.78382218793E+02 0.  0.
          5    1    3    3  501    0 -0.30265919251E+02  0.46476380175E+02  0.17661988443E+02  0.58396195236E+02  0.47000000000E+01 0. -1.
        -13    1    4    4    0    0  0.81964723861E+02  0.15341318911E+02 -0.30835238265E+02  0.88906602355E+02  0.00000000000E+00 0.  1.
         14    1    4    4    0    0 -0.71758203473E+01 -0.19195303619E+01 -0.47976658357E+02  0.48548292880E+02  0.00000000000E+00 0. -1.
         -5    1    5    5    0  502  0.46019639210E+02 -0.48456182152E+01  0.32699285855E+02  0.56856138669E+02  0.47000000000E+01 0.  1.
         13    1    6    6    0    0  0.14129649617E+02 -0.48270897258E+01  0.34649682613E+01  0.15328202718E+02  0.00000000000E+00 0. -1.
        -14    1    6    6    0    0 -0.10467227309E+03 -0.50225460784E+02 -0.12922091846E+02  0.11681550463E+03  0.00000000000E+00 0.  1.
</event>
<event>
12    1  0.8728348E-002  0.1969163E+03  0.7818608E-02  0.1156223E+00
         21   -1    0    0  503  502  0.00000000000E+00  0.00000000000E+00  0.83421827061E+02  0.83421827061E+02  0.00000000000E+00 0.  1.
         21   -1    0    0  501  503 -0.00000000000E+00 -0.00000000000E+00 -0.45465375128E+03  0.45465375128E+03  0.00000000000E+00 0. -1.
          6    2    1    2  501    0 -0.72511746882E+02 -0.36555733315E+02 -0.24592613241E+03  0.30467130727E+03  0.16047014613E+03 0.  0.
         24    2    3    3    0    0 -0.89898393797E+01 -0.32248136351E+02 -0.22027548018E+03  0.23586989679E+03  0.77411636934E+02 0.  0.
         -6    2    1    2    0  502  0.72511746882E+02  0.36555733315E+02 -0.12530579181E+03  0.23340427107E+03  0.17939268998E+03 0.  0.
        -24    2    5    5    0    0  0.11115737683E+03  0.52123532817E+02 -0.74003409638E+02  0.16714821088E+03  0.85960424999E+02 0.  0.
          5    1    3    3  501    0 -0.63521907502E+02 -0.43075969643E+01 -0.25650652224E+02  0.68801410479E+02  0.47000000000E+01 0. -1.
        -11    1    4    4    0    0  0.15477198811E+02  0.17204079376E+02 -0.30800749268E+02  0.38525448547E+02  0.00000000000E+00 0.  1.
         12    1    4    4    0    0 -0.24467038191E+02 -0.49452215727E+02 -0.18947473092E+03  0.19734444825E+03  0.00000000000E+00 0. -1.
         -5    1    5    5    0  502 -0.38645629945E+02 -0.15567799501E+02 -0.51302382174E+02  0.66256060190E+02  0.47000000000E+01 0.  1.
         13    1    6    6    0    0  0.52755148019E+02  0.69962166454E+02 -0.53826626840E+02  0.10283538367E+03  0.00000000000E+00 0. -1.
        -14    1    6    6    0    0  0.58402228808E+02 -0.17838633637E+02 -0.20176782799E+02  0.64312827211E+02  0.00000000000E+00 0.  1.
</event>
<event>
12    1  0.8728348E-002  0.2039706E+03  0.7818608E-02  0.1147424E+00
         21   -1    0    0  503  502  0.00000000000E+00  0.00000000000E+00  0.10429518613E+04  0.10429518613E+04  0.00000000000E+00 0.  1.
         21   -1    0    0  501  503 -0.00000000000E+00 -0.00000000000E+00 -0.13925473242E+03  0.13925473242E+03  0.00000000000E+00 0.  1.
          6    2    1    2  501    0  0.41103805308E+02  0.90150264036E+02 -0.51271213056E+02  0.20569824434E+03  0.17281908900E+03 0.  0.
         24    2    3    3    0    0  0.85921139330E+02  0.66132219873E+02 -0.25850609690E+01  0.13514407169E+03  0.80630793640E+02 0.  0.
         -6    2    1    2    0  502 -0.41103805308E+02 -0.90150264036E+02  0.95496834194E+03  0.97650834939E+03  0.17829029528E+03 0.  0.
        -24    2    5    5    0    0 -0.83791065098E+02 -0.96587014281E+02  0.59253728759E+03  0.61148507196E+03  0.80396281812E+02 0.  0.
          5    1    3    3  501    0 -0.44817334022E+02  0.24018044163E+02 -0.48686152087E+02  0.70554172657E+02  0.47000000000E+01 0. -1.
        -11    1    4    4    0    0  0.42938124288E+02  0.39734204546E+02 -0.41254669004E+02  0.71585174742E+02  0.00000000000E+00 0.  1.
         12    1    4    4    0    0  0.42983015042E+02  0.26398015327E+02  0.38669608035E+02  0.63558896945E+02  0.00000000000E+00 0. -1.
         -5    1    5    5    0  502  0.42687259790E+02  0.64367502450E+01  0.36243105436E+03  0.36502327743E+03  0.47000000000E+01 0.  1.
         13    1    6    6    0    0 -0.60451827119E+02 -0.16411440105E+02  0.33316149634E+03  0.33899902863E+03  0.00000000000E+00 0. -1.
        -14    1    6    6    0    0 -0.23339237980E+02 -0.80175574177E+02  0.25937579124E+03  0.27248604333E+03  0.00000000000E+00 0.  1.
</event>
<event>
12    1  0.8728348E-002  0.3103549E+03  0.7818608E-02  0.1080384E+00
         21   -1    0    0  503  502  0.00000000000E+00  0.00000000000E+00  0.31041045635E+03  0.31041045635E+03  0.00000000000E+00 0. -1.
         21   -1    0    0  501  503 -0.00000000000E+00 -0.00000000000E+00 -0.99498320841E+03  0.99498320841E+03  0.00000000000E+00 0.  1.
          6    2    1    2  501    0  0.14137075784E+03  0.21541652277E+03 -0.88411023312E+03  0.93642836512E+03  0.16987409819E+03 0.  0.
         24    2    3    3    0    0  0.15903756428E+03  0.21960340736E+03 -0.86370149902E+03  0.90871099728E+03  0.79099897579E+02 0.  0.
         -6    2    1    2    0  502 -0.14137075784E+03 -0.21541652277E+03  0.19953748106E+03  0.36896529964E+03  0.17300351596E+03 0.  0.
        -24    2    5    5    0    0 -0.26707464740E+02 -0.10932837011E+03  0.15187837131E+03  0.20557665970E+03  0.80800632167E+02 0.  0.
          5    1    3    3  501    0 -0.17666806439E+02 -0.41868845861E+01 -0.20408734103E+02  0.27717367840E+02  0.47000000000E+01 0. -1.
        -11    1    4    4    0    0  0.11506802323E+03  0.18774164785E+03 -0.76498011281E+03  0.79604154998E+03  0.00000000000E+00 0.  1.
         12    1    4    4    0    0  0.43969541047E+02  0.31861759514E+02 -0.98721386207E+02  0.11266944730E+03  0.00000000000E+00 0. -1.
         -5    1    5    5    0  502 -0.11466329310E+03 -0.10608815266E+03  0.47659109756E+02  0.16338863994E+03  0.47000000000E+01 0.  1.
         13    1    6    6    0    0 -0.53845677251E+02 -0.54899841442E+02  0.95843306073E+02  0.12287916369E+03  0.00000000000E+00 0. -1.
        -14    1    6    6    0    0  0.27138212511E+02 -0.54428528670E+02  0.56035065234E+02  0.82697496015E+02  0.00000000000E+00 0.  1.
</event>
<event>
12    1  0.8728348E-002  0.1741836E+03  0.7818608E-02  0.1173761E+00
         21   -1    0    0  503  502  0.00000000000E+00  0.00000000000E+00  0.36320185695E+03  0.36320185695E+03  0.00000000000E+00 0. -1.
         21   -1    0    0  501  503 -0.00000000000E+00 -0.00000000000E+00 -0.11869633395E+03  0.11869633395E+03  0.00000000000E+00 0. -1.
          6    2    1    2  501    0 -0.13168970828E+02 -0.24166826323E+02 -0.98195202402E+01  0.17364319826E+03  0.17116681933E+03 0.  0.
         24    2    3    3    0    0  0.17318811691E+02  0.34984373344E+02  0.34275798508E+02  0.93675351971E+02  0.77951225691E+02 0.  0.
         -6    2    1    2    0  502  0.13168970828E+02  0.24166826323E+02  0.25432504324E+03  0.30825499264E+03  0.17199551036E+03 0.  0.
        -24    2    5    5    0    0 -0.48001493737E+02  0.49241764115E+02  0.17669428119E+03  0.20618049310E+03  0.80997728335E+02 0.  0.
          5    1    3    3  501    0 -0.30487782519E+02 -0.59151199667E+02 -0.44095318748E+02  0.79967846292E+02  0.47000000000E+01 0. -1.
        -13    1    4    4    0    0  0.30302817729E+02 -0.16143679059E+02  0.15642458037E+02  0.37730168689E+02  0.00000000000E+00 0.  1.
         14    1    4    4    0    0 -0.12984006038E+02  0.51128052403E+02  0.18633340471E+02  0.55945183282E+02  0.00000000000E+00 0. -1.
         -5    1    5    5    0  502  0.61170464566E+02 -0.25074937792E+02  0.77630762051E+02  0.10207449954E+03  0.47000000000E+01 0.  1.
         13    1    6    6    0    0  0.17141935111E+02  0.27230857908E+02  0.89673255153E+02  0.95271497582E+02  0.00000000000E+00 0. -1.
        -14    1    6    6    0    0 -0.65143428848E+02  0.22010906207E+02  0.87021026033E+02  0.11090899551E+03  0.00000000000E+00 0.  1.
</event>
<event>
12    1  0.8728348E-002  0.2696760E+03  0.7818608E-02  0.1101551E+00
         21   -1    0    0  503  502  0.00000000000E+00  0.00000000000E+00  0.57931067032E+03  0.57931067032E+03  0.00000000000E+00 0. -1.
         21   -1    0    0  501  503 -0.00000000000E+00 -0.00000000000E+00 -0.27760304349E+03  0.27760304349E+03  0.00000000000E+00 0.  1.
          6    2    1    2  501    0  0.99179192534E+02  0.18213559699E+03 -0.16646999860E+03  0.31691862309E+03  0.17238116285E+03 0.  0.
         24    2    3    3    0    0  0.20968877300E+01  0.46037509239E+02 -0.10126683945E+03  0.13741596194E+03  0.80649393241E+02 0.  0.
         -6    2    1    2    0  502 -0.99179192534E+02 -0.18213559699E+03  0.46817762542E+03  0.53999509073E+03  0.17144830457E+03 0.  0.
        -24    2    5    5    0    0 -0.11578019441E+03 -0.81133592684E+02  0.33095656434E+03  0.36873882736E+03  0.80301693913E+02 0.  0.
          5    1    3    3  501    0  0.97082304804E+02  0.13609808775E+03 -0.65203159149E+02  0.17950266115E+03  0.47000000000E+01 0. -1.
        -13    1    4    4    0    0  0.37664387230E+02  0.96431348699E+01 -0.26795745121E+02  0.47218725863E+02  0.00000000000E+00 0.  1.
         14    1    4    4    0    0 -0.35567499500E+02  0.36394374369E+02 -0.74471094325E+02  0.90197236080E+02  0.00000000000E+00 0. -1.
         -5    1    5    5    0  502  0.16601001874E+02 -0.10100200430E+03  0.13722106108E+03  0.17125626336E+03  0.47000000000E+01 0.  1.
         11    1    6    6    0    0 -0.90258601695E+02 -0.96633188855E+02  0.25808545089E+03  0.28998739340E+03  0.00000000000E+00 0. -1.
        -12    1    6    6    0    0 -0.25521592713E+02  0.15499596170E+02  0.72871113451E+02  0.78751433966E+02  0.00000000000E+00 0.  1.
</event>
<event>
12    1  0.8728348E-002  0.1932152E+03  0.7818608E-02  0.1155966E+00
         21   -1    0    0  503  502  0.00000000000E+00  0.00000000000E+00  0.16047864799E+03  0.16047864799E+03  0.00000000000E+00 0.  1.
         21   -1    0    0  501  503 -0.00000000000E+00 -0.00000000000E+00 -0.24673061303E+03  0.24673061303E+03  0.00000000000E+00 0.  1.
          6    2    1    2  501    0 -0.80584634995E+02 -0.27781981734E+02  0.87441000284E+01  0.19341291351E+03  0.17339657990E+03 0.  0.
         24    2    3    3    0    0 -0.10209811797E+03 -0.68014986352E+02  0.16084721378E+02  0.14696402405E+03  0.79307263479E+02 0.  0.
         -6    2    1    2    0  502  0.80584634995E+02  0.27781981734E+02 -0.94996065071E+02  0.21379634750E+03  0.17151939808E+03 0.  0.
        -24    2    5    5    0    0  0.73515021330E+02  0.40823382862E+02 -0.13126598018E+03  0.17432921785E+03  0.78031478870E+02 0.  0.
          5    1    3    3  501    0  0.21513482980E+02  0.40233004618E+02 -0.73406213497E+01  0.46448889463E+02  0.47000000000E+01 0. -1.
        -11    1    4    4    0    0 -0.62443244280E+02 -0.26376104062E+02  0.46221693031E+02  0.82044515529E+02  0.00000000000E+00 0.  1.
         12    1    4    4    0    0 -0.39654873694E+02 -0.41638882290E+02 -0.30136971653E+02  0.64919508520E+02  0.00000000000E+00 0. -1.
         -5    1    5    5    0  502  0.70696136645E+01 -0.13041401128E+02  0.36269915109E+02  0.39467129649E+02  0.47000000000E+01 0.  1.
         11    1    6    6    0    0 -0.12071881720E+02  0.14353117309E+02 -0.49898403315E+02  0.53306593946E+02  0.00000000000E+00 0. -1.
        -12    1    6    6    0    0  0.85586903050E+02  0.26470265553E+02 -0.81367576865E+02  0.12102262391E+03  0.00000000000E+00 0.  1.
</event>
<event>
12    1  0.8728348E-002  0.1941415E+03  0.7818608E-02  0.1154904E+00
         21   -1    0    0  501  502  0.00000000000E+00  0.00000000000E+00  0.20468642058E+04  0.20468642058E+04  0.00000000000E+00 0.  1.
         21   -1    0    0  502  503 -0.00000000000E+00 -0.00000000000E+00 -0.23311606468E+02  0.23311606468E+02  0.00000000000E+00 0.  1.
         -6    2    1    2    0  503 -0.45247634395E+02 -0.77440395097E+02  0.53588537926E+03  0.56996845881E+03  0.17218170960E+03 0.  0.
        -24    2    3    3    0    0 -0.40327557132E+02 -0.69629449621E+02  0.54462492252E+03  0.55641531726E+03  0.80666764724E+02 0.  0.
          6    2    1    2  501    0  0.45247634395E+02  0.77440395097E+02  0.14876672201E+04  0.15002073535E+04  0.17153420208E+03 0.  0.
         24    2    5    5    0    0 -0.86699509767E+01  0.23968048953E+02  0.11907879706E+04  0.11937342281E+04  0.79848487363E+02 0.  0.
          5    1    5    5  501    0  0.53917585372E+02  0.53472346145E+02  0.29687924945E+03  0.30647312536E+03  0.47000000000E+01 0. -1.
        -13    1    6    6    0    0  0.26740639253E+02  0.37087147974E+02  0.59880736266E+03  0.60055039415E+03  0.00000000000E+00 0.  1.
         14    1    6    6    0    0 -0.35410590230E+02 -0.13119099021E+02  0.59198060798E+03  0.59318383397E+03  0.00000000000E+00 0. -1.
         -5    1    3    3    0  503 -0.49200772630E+01 -0.78109454760E+01 -0.87395432598E+01  0.13553141551E+02  0.47000000000E+01 0.  1.
         11    1    4    4    0    0 -0.38463303993E+02 -0.83780385238E+02  0.37399094947E+03  0.38518542157E+03  0.00000000000E+00 0. -1.
        -12    1    4    4    0    0 -0.18642531397E+01  0.14150935616E+02  0.17063397305E+03  0.17122989569E+03  0.00000000000E+00 0.  1.
</event>
<event>
12    1  0.8728348E-002  0.1816487E+03  0.7818608E-02  0.1166619E+00
         21   -1    0    0  501  502  0.00000000000E+00  0.00000000000E+00  0.42662160742E+03  0.42662160742E+03  0.00000000000E+00 0. -1.
         21   -1    0    0  502  503 -0.00000000000E+00 -0.00000000000E+00 -0.87290966933E+02  0.87290966933E+02  0.00000000000E+00 0. -1.
         -6    2    1    2    0  503 -0.52914097569E+02  0.66752990156E+01  0.26014716907E+03  0.31728978679E+03  0.17364273058E+03 0.  0.
        -24    2    3    3    0    0 -0.10141857923E+03 -0.13951843310E+02  0.15597464012E+03  0.20044728797E+03  0.73284682901E+02 0.  0.
          6    2    1    2  501    0  0.52914097569E+02 -0.66752990156E+01  0.79183471414E+02  0.19662278757E+03  0.17188960733E+03 0.  0.
         24    2    5    5    0    0  0.15603706653E+02  0.31052105479E+02  0.10487344503E+03  0.13748323173E+03  0.81825977653E+02 0.  0.
          5    1    5    5  501    0  0.37310390916E+02 -0.37727404494E+02 -0.25689973614E+02  0.59139555836E+02  0.47000000000E+01 0. -1.
        -11    1    6    6    0    0  0.30957085656E+02  0.30324081019E+02  0.14327212868E+02  0.45641648420E+02  0.00000000000E+00 0.  1.
         12    1    6    6    0    0 -0.15353379004E+02  0.72802445999E+00  0.90546232160E+02  0.91841583310E+02  0.00000000000E+00 0. -1.
         -5    1    3    3    0  503  0.48504481662E+02  0.20627142326E+02  0.10417252896E+03  0.11684249882E+03  0.47000000000E+01 0.  1.
         11    1    4    4    0    0 -0.81986749625E+02  0.17597631876E+02  0.13177051021E+03  0.15618889564E+03  0.00000000000E+00 0. -1.
        -12    1    4    4    0    0 -0.19431829606E+02 -0.31549475186E+02  0.24204129913E+02  0.44258392325E+02  0.00000000000E+00 0.  1.
</event>
<event>
12    1  0.8728348E-002  0.1747704E+03  0.7818608E-02  0.1173307E+00
         21   -1    0    0  503  502  0.00000000000E+00  0.00000000000E+00  0.19510914819E+03  0.19510914819E+03  0.00000000000E+00 0. -1.
         21   -1    0    0  501  503 -0.00000000000E+00 -0.00000000000E+00 -0.16989316618E+03  0.16989316618E+03  0.00000000000E+00 0. -1.
          6    2    1    2  501    0 -0.20877214231E+02  0.27491872239E+01  0.66083575791E+02  0.18684683731E+03  0.17349722050E+03 0.  0.
         24    2    3    3    0    0  0.11662891277E+02 -0.53245394320E+02  0.61965082550E+02  0.12178299470E+03  0.89556302366E+02 0.  0.
         -6    2    1    2    0  502  0.20877214231E+02 -0.27491872239E+01 -0.40867593786E+02  0.17815547706E+03  0.17212146200E+03 0.  0.
        -24    2    5    5    0    0  0.60224877348E+02 -0.49160785734E+02 -0.17442151482E+02  0.11278639862E+03  0.79829345226E+02 0.  0.
          5    1    3    3  501    0 -0.32540105507E+02  0.55994581544E+02  0.41184932407E+01  0.65063842611E+02  0.47000000000E+01 0. -1.
        -11    1    4    4    0    0  0.11098139711E+02  0.24284167554E+02  0.10318854726E+02  0.28624609371E+02  0.00000000000E+00 0.  1.
         12    1    4    4    0    0  0.56475156586E+00 -0.77529561874E+02  0.51646227825E+02  0.93158385329E+02  0.00000000000E+00 0. -1.
         -5    1    5    5    0  502 -0.39347663117E+02  0.46411598510E+02 -0.23425442304E+02  0.65369078441E+02  0.47000000000E+01 0.  1.
         11    1    6    6    0    0  0.49948215749E+02  0.96657459820E+01 -0.11558655030E+01  0.50887984112E+02  0.00000000000E+00 0. -1.
        -12    1    6    6    0    0  0.10276661599E+02 -0.58826531716E+02 -0.16286285979E+02  0.61898414506E+02  0.00000000000E+00 0.  1.
</event>
<event>
12    1  0.8728348E-002  0.2540715E+03  0.7818608E-02  0.1111766E+00
         21   -1    0    0  503  502  0.00000000000E+00  0.00000000000E+00  0.39789362510E+03  0.39789362510E+03  0.00000000000E+00 0.  1.
         21   -1    0    0  501  503 -0.00000000000E+00 -0.00000000000E+00 -0.16477933413E+03  0.16477933413E+03  0.00000000000E+00 0. -1.
          6    2    1    2  501    0 -0.17425577045E+03 -0.70012586117E+02  0.17437047831E+03  0.30815157964E+03  0.17113005750E+03 0.  0.
         24    2    3    3    0    0 -0.37236113040E+02 -0.45728624508E+02  0.24841260781E+02  0.10383522150E+03  0.81774261070E+02 0.  0.
         -6    2    1    2    0  502  0.17425577045E+03  0.70012586117E+02  0.58743812655E+02  0.25452137959E+03  0.16144182047E+03 0.  0.
        -24    2    5    5    0    0  0.13972881906E+03  0.88448678670E+02  0.62325108530E+00  0.18429254251E+03  0.81339050580E+02 0.  0.
          5    1    3    3  501    0 -0.13701965741E+03 -0.24283961609E+02  0.14952921753E+03  0.20431635814E+03  0.47000000000E+01 0. -1.
        -13    1    4    4    0    0  0.57062956311E+00 -0.15146085569E+02  0.47738236500E+02  0.50086612486E+02  0.00000000000E+00 0.  1.
         14    1    4    4    0    0 -0.37806742603E+02 -0.30582538938E+02 -0.22896975719E+02  0.53748609017E+02  0.00000000000E+00 0. -1.
         -5    1    5    5    0  502  0.34526951384E+02 -0.18436092553E+02  0.58120561570E+02  0.70228837081E+02  0.47000000000E+01 0.  1.
         11    1    6    6    0    0  0.46142230035E+02 -0.81330186136E+01  0.14616657615E+02  0.49080526324E+02  0.00000000000E+00 0. -1.
        -12    1    6    6    0    0  0.93586589027E+02  0.96581697283E+02 -0.13993406530E+02  0.13521201619E+03  0.00000000000E+00 0.  1.
</event>
<event>
12    1  0.8728348E-002  0.2032321E+03  0.7818608E-02  0.1147941E+00
         21   -1    0    0  501  502  0.00000000000E+00  0.00000000000E+00  0.42715123398E+03  0.42715123398E+03  0.00000000000E+00 0. -1.
         21   -1    0    0  502  503 -0.00000000000E+00 -0.00000000000E+00 -0.30466256339E+03  0.30466256339E+03  0.00000000000E+00 0. -1.
         -6    2    1    2    0  503 -0.61899434684E+02  0.79583253827E+02 -0.24274748403E+03  0.31384160930E+03  0.17147938774E+03 0.  0.
        -24    2    3    3    0    0 -0.10141180598E+03  0.72585365878E+02 -0.14367785069E+03  0.20685058084E+03  0.81184039573E+02 0.  0.
          6    2    1    2  501    0  0.61899434684E+02 -0.79583253827E+02  0.36523615462E+03  0.41797218808E+03  0.17646038384E+03 0.  0.
         24    2    5    5    0    0  0.73171386970E+02  0.13356674047E+02  0.17816736935E+03  0.20873139970E+03  0.79326748997E+02 0.  0.
          5    1    5    5  501    0 -0.11271952286E+02 -0.92939927874E+02  0.18706878526E+03  0.20924078838E+03  0.47000000000E+01 0. -1.
        -11    1    6    6    0    0  0.63639958872E+02 -0.16565472379E+02  0.69769138389E+02  0.95875919354E+02  0.00000000000E+00 0.  1.
         12    1    6    6    0    0  0.95314280971E+01  0.29922146426E+02  0.10839823096E+03  0.11285548035E+03  0.00000000000E+00 0. -1.
         -5    1    3    3    0  503  0.39512371299E+02  0.69978879486E+01 -0.99069633334E+02  0.10699102846E+03  0.47000000000E+01 0.  1.
         11    1    4    4    0    0  0.74876948741E+01 -0.69789341126E+01 -0.25697012482E+02  0.27660577477E+02  0.00000000000E+00 0. -1.
        -12    1    4    4    0    0 -0.10889950086E+03  0.79564299991E+02 -0.11798083821E+03  0.17919000336E+03  0.00000000000E+00 0.  1.
</event>
<event>
12    1  0.8728348E-002  0.2249367E+03  0.7818608E-02  0.1130524E+00
         21   -1    0    0  503  502  0.00000000000E+00  0.00000000000E+00  0.78721925419E+03  0.78721925419E+03  0.00000000000E+00 0.  1.
         21   -1    0    0  501  503 -0.00000000000E+00 -0.00000000000E+00 -0.12657485573E+03  0.12657485573E+03  0.00000000000E+00 0.  1.
          6    2    1    2  501    0  0.26343574459E+02  0.14035805682E+03  0.81381714151E+01  0.22360509182E+03  0.17186808670E+03 0.  0.
         24    2    3    3    0    0 -0.21738568769E+02  0.10821396641E+03  0.57663063962E+02  0.14731656040E+03  0.78703952395E+02 0.  0.
         -6    2    1    2    0  502 -0.26343574459E+02 -0.14035805682E+03  0.65250622705E+03  0.69018901810E+03  0.17378761847E+03 0.  0.
        -24    2    5    5    0    0 -0.73766779654E+01 -0.14083315369E+03  0.33472793390E+03  0.37181015184E+03  0.79445621168E+02 0.  0.
          5    1    3    3  501    0  0.48082143228E+02  0.32144090408E+02 -0.49524892547E+02  0.76288531427E+02  0.47000000000E+01 0. -1.
        -11    1    4    4    0    0 -0.20122013339E+02  0.67711234875E+02 -0.70158333385E+01  0.70985411646E+02  0.00000000000E+00 0.  1.
         12    1    4    4    0    0 -0.16165554305E+01  0.40502731537E+02  0.64678897301E+02  0.76331148750E+02  0.00000000000E+00 0. -1.
         -5    1    5    5    0  502 -0.18966896493E+02  0.47509687485E+00  0.31777829315E+03  0.31837886625E+03  0.47000000000E+01 0.  1.
         11    1    6    6    0    0 -0.40348931815E+02 -0.71234847880E+02  0.20779615665E+03  0.22334207523E+03  0.00000000000E+00 0. -1.
        -12    1    6    6    0    0  0.32972253850E+02 -0.69598305814E+02  0.12693177725E+03  0.14846807661E+03  0.00000000000E+00 0.  1.
</event>
<event>
12    1  0.8728348E-002  0.1869358E+03  0.7818608E-02  0.1161350E+00
         21   -1    0    0  501  502  0.00000000000E+00  0.00000000000E+00  0.13254925757E+04  0.13254925757E+04  0.00000000000E+00 0.  1.
         21   -1    0    0  502  503 -0.00000000000E+00 -0.00000000000E+00 -0.29968139997E+02  0.29968139997E+02  0.00000000000E+00 0. -1.
         -6    2    1    2    0  503 -0.67845770364E+02 -0.25409967287E+02  0.41019294147E+03  0.45060887623E+03  0.17187610395E+03 0.  0.
        -24    2    3    3    0    0 -0.56957530843E+02 -0.46542869033E+02  0.41186152671E+03  0.42631839511E+03  0.81896629054E+02 0.  0.
          6    2    1    2  501    0  0.67845770364E+02  0.25409967287E+02  0.88533149424E+03  0.90485183947E+03  0.17232609121E+03 0.  0.
         24    2    5    5    0    0  0.13575639004E+02  0.48664889933E+02  0.76384350579E+03  0.76969467199E+03  0.80127506291E+02 0.  0.
          5    1    5    5  501    0  0.54270131360E+02 -0.23254922646E+02  0.12148798845E+03  0.13515716749E+03  0.47000000000E+01 0. -1.
        -11    1    6    6    0    0 -0.12102475474E+02 -0.75435530914E+01  0.42646667224E+03  0.42670504759E+03  0.00000000000E+00 0.  1.
         12    1    6    6    0    0  0.25678114478E+02  0.56208443024E+02  0.33737683354E+03  0.34298962439E+03  0.00000000000E+00 0. -1.
         -5    1    3    3    0  503 -0.10888239521E+02  0.21132901746E+02 -0.16685852405E+01  0.24290481115E+02  0.47000000000E+01 0.  1.
         11    1    4    4    0    0  0.17066492780E+01  0.18721509147E+02  0.39350533289E+02  0.43610457767E+02  0.00000000000E+00 0. -1.
        -12    1    4    4    0    0 -0.58664180121E+02 -0.65264378180E+02  0.37251099342E+03  0.38270793735E+03  0.00000000000E+00 0.  1.
</event>
<event>
12    1  0.8728348E-002  0.1844376E+03  0.7818608E-02  0.1165127E+00
         21   -1    0    0  501  502  0.00000000000E+00  0.00000000000E+00  0.55758659751E+03  0.55758659751E+03  0.00000000000E+00 0.  1.
         21   -1    0    0  502  503 -0.00000000000E+00 -0.00000000000E+00 -0.30034820432E+03  0.30034820432E+03  0.00000000000E+00 0.  1.
         -6    2    1    2    0  503 -0.43422194089E+02 -0.51813942946E+02 -0.25644923745E+03  0.31213975980E+03  0.16460512336E+03 0.  0.
        -24    2    3    3    0    0  0.18889584560E+02  0.17272502007E+02 -0.13555639457E+03  0.15951976080E+03  0.80099077689E+02 0.  0.
          6    2    1    2  501    0  0.43422194089E+02  0.51813942946E+02  0.51368763064E+03  0.54579504203E+03  0.17160149886E+03 0.  0.
         24    2    5    5    0    0  0.35781460906E+02  0.10016944789E+03  0.34500907073E+03  0.37009307210E+03  0.81384223890E+02 0.  0.
          5    1    5    5  501    0  0.76407331830E+01 -0.48355504948E+02  0.16867855991E+03  0.17570196993E+03  0.47000000000E+01 0. -1.
        -13    1    6    6    0    0  0.35350570797E+01  0.94444195420E+02  0.19691659138E+03  0.21842240415E+03  0.00000000000E+00 0.  1.
         14    1    6    6    0    0  0.32246403826E+02  0.57252524743E+01  0.14809247935E+03  0.15167066795E+03  0.00000000000E+00 0. -1.
         -5    1    3    3    0  503 -0.62311778649E+02 -0.69086444953E+02 -0.12089284288E+03  0.15261999900E+03  0.47000000000E+01 0.  1.
         13    1    4    4    0    0  0.84459510326E+01 -0.21507110843E+02 -0.59872872111E+01  0.23869174971E+02  0.00000000000E+00 0. -1.
        -14    1    4    4    0    0  0.10443633527E+02  0.38779612850E+02 -0.12956910736E+03  0.13565058583E+03  0.00000000000E+00 0.  1.
</event>
<event>
12    1  0.8728348E-002  0.1751600E+03  0.7818608E-02  0.1173432E+00
         21   -1    0    0  503  502  0.00000000000E+00  0.00000000000E+00  0.25026567355E+04  0.25026567355E+04  0.00000000000E+00 0.  1.
         21   -1    0    0  501  503 -0.00000000000E+00 -0.00000000000E+00 -0.38997793031E+02  0.38997793031E+02  0.00000000000E+00 0.  1.
          6    2    1    2  501    0 -0.13623802731E+02 -0.18183699622E+02  0.17863086840E+03  0.25017994061E+03  0.17368005241E+03 0.  0.
         24    2    3    3    0    0  0.14842541955E+02  0.19317120728E+02  0.23078718988E+02  0.87590871194E+02  0.80907856488E+02 0.  0.
         -6    2    1    2    0  502  0.13623802731E+02  0.18183699622E+02  0.22850280740E+04  0.22914745879E+04  0.17025343718E+03 0.  0.
        -24    2    5    5    0    0  0.74295915164E+02  0.16893709324E+02  0.14164013778E+04  0.14207179074E+04  0.80257266233E+02 0.  0.
          5    1    3    3  501    0 -0.28466344686E+02 -0.37500820350E+02  0.15555214941E+03  0.16258906941E+03  0.47000000000E+01 0. -1.
        -11    1    4    4    0    0  0.50371068901E+01  0.50777219036E+02  0.18715884563E+02  0.54350554310E+02  0.00000000000E+00 0.  1.
         12    1    4    4    0    0  0.98054350650E+01 -0.31460098308E+02  0.43628344252E+01  0.33240316884E+02  0.00000000000E+00 0. -1.
         -5    1    5    5    0  502 -0.60672112433E+02  0.12899902978E+01  0.86862669621E+03  0.87075668053E+03  0.47000000000E+01 0.  1.
         11    1    6    6    0    0  0.34950549188E+02  0.46437131878E+02  0.59086773247E+03  0.59371931532E+03  0.00000000000E+00 0. -1.
        -12    1    6    6    0    0  0.39345365976E+02 -0.29543422554E+02  0.82553364536E+03  0.82699859206E+03  0.00000000000E+00 0.  1.
</event>
<event>
12    1  0.8728348E-002  0.2755685E+03  0.7818608E-02  0.1098407E+00
         21   -1    0    0  503  502  0.00000000000E+00  0.00000000000E+00  0.14784424106E+03  0.14784424106E+03  0.00000000000E+00 0. -1.
         21   -1    0    0  501  503 -0.00000000000E+00 -0.00000000000E+00 -0.76151747585E+03  0.76151747585E+03  0.00000000000E+00 0.  1.
          6    2    1    2  501    0  0.19440783596E+03 -0.86882100136E+02 -0.56887108626E+03  0.63210149382E+03  0.17491449255E+03 0.  0.
         24    2    3    3    0    0  0.16580101344E+03 -0.97601945940E+02 -0.32334577949E+03  0.38463830130E+03  0.79862468062E+02 0.  0.
         -6    2    1    2    0  502 -0.19440783596E+03  0.86882100136E+02 -0.44802148536E+02  0.27726022308E+03  0.17182285292E+03 0.  0.
        -24    2    5    5    0    0 -0.24327944983E+02  0.37323783363E+02  0.94129064712E+01  0.91937374346E+02  0.79868418550E+02 0.  0.
          5    1    3    3  501    0  0.28606822517E+02  0.10719845804E+02 -0.24552530677E+03  0.24746319252E+03  0.47000000000E+01 0. -1.
        -11    1    4    4    0    0  0.10482825724E+03 -0.72915702758E+02 -0.27436494743E+03  0.30262482978E+03  0.00000000000E+00 0.  1.
         12    1    4    4    0    0  0.60972756198E+02 -0.24686243182E+02 -0.48980832063E+02  0.82013471518E+02  0.00000000000E+00 0. -1.
         -5    1    5    5    0  502 -0.17007989097E+03  0.49558316773E+02 -0.54215055008E+02  0.18532284874E+03  0.47000000000E+01 0.  1.
         11    1    6    6    0    0 -0.11497224398E+02 -0.82570140474E+01  0.35256403103E+02  0.37991820298E+02  0.00000000000E+00 0. -1.
        -12    1    6    6    0    0 -0.12830720585E+02  0.45580797411E+02 -0.25843496631E+02  0.53945554047E+02  0.00000000000E+00 0.  1.
</event>
<event>
12    1  0.8728348E-002  0.1785344E+03  0.7818608E-02  0.1170033E+00
         21   -1    0    0  501  502  0.00000000000E+00  0.00000000000E+00  0.75462508959E+03  0.75462508959E+03  0.00000000000E+00 0.  1.
         21   -1    0    0  502  503 -0.00000000000E+00 -0.00000000000E+00 -0.42755170738E+02  0.42755170738E+02  0.00000000000E+00 0.  1.
         -6    2    1    2    0  503  0.20274886633E+02  0.32479941705E+02  0.28371287836E+03  0.33349126659E+03  0.17104797543E+03 0.  0.
        -24    2    3    3    0    0  0.76311640466E+02  0.75284420152E+00  0.18661331719E+03  0.21688448601E+03  0.79939457561E+02 0.  0.
          6    2    1    2  501    0 -0.20274886633E+02 -0.32479941705E+02  0.42815704049E+03  0.46388899374E+03  0.17438041619E+03 0.  0.
         24    2    5    5    0    0  0.14059477776E+02 -0.80570470354E+02  0.32707080234E+03  0.34670509950E+03  0.80869318475E+02 0.  0.
          5    1    5    5  501    0 -0.34334364410E+02  0.48090528649E+02  0.10108623815E+03  0.11718389423E+03  0.47000000000E+01 0. -1.
        -11    1    6    6    0    0  0.40760801578E+02 -0.72889130526E+02  0.27847040933E+03  0.29072330001E+03  0.00000000000E+00 0.  1.
         12    1    6    6    0    0 -0.26701323802E+02 -0.76813398282E+01  0.48600393007E+02  0.55981799495E+02  0.00000000000E+00 0. -1.
         -5    1    3    3    0  503 -0.56036753832E+02  0.31727097503E+02  0.97099561174E+02  0.11660678058E+03  0.47000000000E+01 0.  1.
         13    1    4    4    0    0  0.59386255864E+02  0.13978635930E+02  0.18561158969E+03  0.19538114514E+03  0.00000000000E+00 0. -1.
        -14    1    4    4    0    0  0.16925384601E+02 -0.13225791729E+02  0.10017274995E+01  0.21503340874E+02  0.00000000000E+00 0.  1.
</event>
<event>
12    1  0.8728348E-002  0.2719053E+03  0.7818608E-02  0.1100307E+00
         21   -1    0    0  503  502  0.00000000000E+00  0.00000000000E+00  0.19660072506E+03  0.19660072506E+03  0.00000000000E+00 0.  1.
         21   -1    0    0  501  503 -0.00000000000E+00 -0.00000000000E+00 -0.41639406111E+03  0.41639406111E+03  0.00000000000E+00 0.  1.
          6    2    1    2  501    0 -0.21034468365E+03  0.20465488581E+02 -0.20643953204E+03  0.34076175671E+03  0.16981628981E+03 0.  0.
         24    2    3    3    0    0 -0.14538135630E+03 -0.45309746859E+02 -0.92109493309E+02  0.19365613732E+03  0.76353315888E+02 0.  0.
         -6    2    1    2    0  502  0.21034468365E+03 -0.20465488581E+02 -0.13353804014E+02  0.27223302946E+03  0.17108119735E+03 0.  0.
        -24    2    5    5    0    0  0.15599213901E+02 -0.29096640000E+02  0.10663940612E+02  0.75766144669E+02  0.67356062199E+02 0.  0.
          5    1    3    3  501    0 -0.64963327356E+02  0.65775235440E+02 -0.11433003873E+03  0.14710561938E+03  0.47000000000E+01 0. -1.
        -13    1    4    4    0    0 -0.29544078803E+02 -0.87387305585E+01  0.12596044575E+02  0.33284806490E+02  0.00000000000E+00 0.  1.
         14    1    4    4    0    0 -0.11583727749E+03 -0.36571016300E+02 -0.10470553788E+03  0.16037133083E+03  0.00000000000E+00 0. -1.
         -5    1    5    5    0  502  0.19474546975E+03  0.86311514194E+01 -0.24017744627E+02  0.19646688479E+03  0.47000000000E+01 0.  1.
         11    1    6    6    0    0 -0.11762266025E+02 -0.16385771567E+02  0.32689714488E+02  0.38411740981E+02  0.00000000000E+00 0. -1.
        -12    1    6    6    0    0  0.27361479926E+02 -0.12710868433E+02 -0.22025773875E+02  0.37354403688E+02  0.00000000000E+00 0.  1.
</event>
<event>
12    1  0.8728348E-002  0.2035931E+03  0.7818608E-02  0.1146939E+00
         21   -1    0    0  501  502  0.00000000000E+00  0.00000000000E+00  0.74856802823E+02  0.74856802823E+02  0.00000000000E+00 0.  1.
         21   -1    0    0  502  503 -0.00000000000E+00 -0.00000000000E+00 -0.58957741714E+03  0.58957741714E+03  0.00000000000E+00 0.  1.
         -6    2    1    2    0  503  0.39522071016E+02 -0.98670575344E+02 -0.34274181577E+03  0.39865035831E+03  0.17364411699E+03 0.  0.
        -24    2    3    3    0    0  0.79860224036E+02 -0.11051130700E+03 -0.29448130261E+03  0.33447453228E+03  0.81015867602E+02 0.  0.
          6    2    1    2  501    0 -0.39522071016E+02  0.98670575344E+02 -0.17197879855E+03  0.26578386166E+03  0.17252964218E+03 0.  0.
         24    2    5    5    0    0 -0.28569104654E+02  0.11435307237E+03 -0.19095154036E+03  0.23843494729E+03  0.80597235833E+02 0.  0.
          5    1    5    5  501    0 -0.10952966362E+02 -0.15682497028E+02  0.18972741809E+02  0.27348914364E+02  0.47000000000E+01 0. -1.
        -13    1    6    6    0    0 -0.37194639358E+02  0.41143490312E+02 -0.13481332005E+03  0.14577674456E+03  0.00000000000E+00 0.  1.
         14    1    6    6    0    0  0.86255347043E+01  0.73209582059E+02 -0.56138220311E+02  0.92658202734E+02  0.00000000000E+00 0. -1.
         -5    1    3    3    0  503 -0.40338153020E+02  0.11840731655E+02 -0.48260513162E+02  0.64175826024E+02  0.47000000000E+01 0.  1.
         11    1    4    4    0    0 -0.11603594907E+02 -0.18676894276E+02 -0.87827848299E+02  0.90538393687E+02  0.00000000000E+00 0. -1.
        -12    1    4    4    0    0  0.91463818944E+02 -0.91834412723E+02 -0.20665345431E+03  0.24393613860E+03  0.00000000000E+00 0.  1.
</event>
<event>
12    1  0.8728348E-002  0.1979963E+03  0.7818608E-02  0.1151453E+00
         21   -1    0    0  503  502  0.00000000000E+00  0.00000000000E+00  0.87386201538E+02  0.87386201538E+02  0.00000000000E+00 0. -1.
         21   -1    0    0  501  503 -0.00000000000E+00 -0.00000000000E+00 -0.52640045757E+03  0.52640045757E+03  0.00000000000E+00 0. -1.
          6    2    1    2  501    0  0.88656577782E+02 -0.37809067720E+02 -0.33755309254E+03  0.39130767524E+03  0.17288751267E+03 0.  0.
         24    2    3    3    0    0  0.33080911094E+02  0.21630409966E+01 -0.68814367936E+02  0.11394686997E+03  0.84554399744E+02 0.  0.
         -6    2    1    2    0  502 -0.88656577782E+02  0.37809067720E+02 -0.10146116350E+03  0.22247898387E+03  0.17295379781E+03 0.  0.
        -24    2    5    5    0    0 -0.23733456222E+02 -0.39441612653E+02 -0.72518948669E+02  0.11739605885E+03  0.80024489776E+02 0.  0.
          5    1    3    3  501    0  0.55575666689E+02 -0.39972108717E+02 -0.26873872460E+03  0.27736080527E+03  0.47000000000E+01 0. -1.
        -13    1    4    4    0    0  0.23453623921E+02 -0.29811165182E+02 -0.52981008340E+00  0.37934927748E+02  0.00000000000E+00 0.  1.
         14    1    4    4    0    0  0.96272871727E+01  0.31974206179E+02 -0.68284557853E+02  0.76011942221E+02  0.00000000000E+00 0. -1.
         -5    1    5    5    0  502 -0.64923121561E+02  0.77250680373E+02 -0.28942214829E+02  0.10508292502E+03  0.47000000000E+01 0.  1.
         11    1    6    6    0    0  0.13799516866E+02 -0.19266122939E+01  0.11469877981E+02  0.18047066287E+02  0.00000000000E+00 0. -1.
        -12    1    6    6    0    0 -0.37532973088E+02 -0.37515000359E+02 -0.83988826650E+02  0.99348992560E+02  0.00000000000E+00 0.  1.
</event>
<event>
12    1  0.8728348E-002  0.1779705E+03  0.7818608E-02  0.1169889E+00
         21   -1    0    0  501  502  0.00000000000E+00  0.00000000000E+00  0.91307710578E+03  0.91307710578E+03  0.00000000000E+00 0. -1.
         21   -1    0    0  502  503 -0.00000000000E+00 -0.00000000000E+00 -0.55366940009E+02  0.55366940009E+02  0.00000000000E+00 0. -1.
         -6    2    1    2    0  503  0.24689853722E+02  0.33798039506E+02  0.13200112935E+03  0.22123116073E+03  0.17253124928E+03 0.  0.
        -24    2    3    3    0    0  0.30776198171E+02  0.28110412702E+02  0.93359333372E+00  0.89815097464E+02  0.79551935614E+02 0.  0.
          6    2    1    2  501    0 -0.24689853722E+02 -0.33798039506E+02  0.72570903642E+03  0.74721288506E+03  0.17297859319E+03 0.  0.
         24    2    5    5    0    0 -0.80780583627E+01  0.29090765674E+02  0.21958417222E+03  0.23690374177E+03  0.83634003252E+02 0.  0.
          5    1    5    5  501    0 -0.16611795359E+02 -0.62888805181E+02  0.50612486420E+03  0.51030914329E+03  0.47000000000E+01 0. -1.
        -11    1    6    6    0    0 -0.44531390458E+02  0.51334107660E+01  0.12342489246E+03  0.13131298764E+03  0.00000000000E+00 0.  1.
         12    1    6    6    0    0  0.36453332095E+02  0.23957354908E+02  0.96159279757E+02  0.10559075413E+03  0.00000000000E+00 0. -1.
         -5    1    3    3    0  503 -0.60863444488E+01  0.56876268043E+01  0.13106753601E+03  0.13141606327E+03  0.47000000000E+01 0.  1.
         13    1    4    4    0    0 -0.26953742507E+02  0.13890302876E+02  0.14561648209E+01  0.30357291795E+02  0.00000000000E+00 0. -1.
        -14    1    4    4    0    0  0.57729940678E+02  0.14220109826E+02 -0.52257148715E+00  0.59457805670E+02  0.00000000000E+00 0.  1.
</event>
<event>
12    1  0.8728348E-002  0.1861853E+03  0.7818608E-02  0.1164022E+00
         21   -1    0    0  503  502  0.00000000000E+00  0.00000000000E+00  0.89216282304E+01  0.89216282304E+01  0.00000000000E+00 0. -1.
         21   -1    0    0  501  503 -0.00000000000E+00 -0.00000000000E+00 -0.37317178799E+04  0.37317178799E+04  0.00000000000E+00 0. -1.
          6    2    1    2  501    0  0.25360263748E+02 -0.41782034754E+02 -0.16600353693E+04  0.16694931088E+04  0.17058995164E+03 0.  0.
         24    2    3    3    0    0  0.51761199498E+02 -0.48615058175E+01 -0.15032708461E+04  0.15062223502E+04  0.78610912966E+02 0.  0.
         -6    2    1    2    0  502 -0.25360263748E+02  0.41782034754E+02 -0.20627608824E+04  0.20711463993E+04  0.17965541522E+03 0.  0.
        -24    2    5    5    0    0  0.14423697839E+02  0.78554375632E+02 -0.88725290431E+03  0.89438131439E+03  0.79507146420E+02 0.  0.
          5    1    3    3  501    0 -0.26400935750E+02 -0.36920528937E+02 -0.15676452327E+03  0.16327075862E+03  0.47000000000E+01 0. -1.
        -13    1    4    4    0    0  0.47984093090E+02  0.17988270528E+02 -0.13697172170E+04  0.13706754925E+04  0.00000000000E+00 0.  1.
         14    1    4    4    0    0  0.37771064080E+01 -0.22849776346E+02 -0.13355362908E+03  0.13554685777E+03  0.00000000000E+00 0. -1.
         -5    1    5    5    0  502 -0.39783961587E+02 -0.36772340878E+02 -0.11755079781E+04  0.11767650849E+04  0.47000000000E+01 0.  1.
         13    1    6    6    0    0  0.28415720509E+02  0.62845815009E+02 -0.83787597100E+03  0.84070993357E+03  0.00000000000E+00 0. -1.
        -14    1    6    6    0    0 -0.13992022670E+02  0.15708560623E+02 -0.49376933319E+02  0.53671380821E+02  0.00000000000E+00 0.  1.
</event>
<event>
12    1  0.8728348E-002  0.2802297E+03  0.7818608E-02  0.1095724E+00
         21   -1    0    0  501  502  0.00000000000E+00  0.00000000000E+00  0.22325586182E+03  0.22325586182E+03  0.00000000000E+00 0.  1.
         21   -1    0    0  502  503 -0.00000000000E+00 -0.00000000000E+00 -0.35126471564E+03  0.35126471564E+03  0.00000000000E+00 0. -1.
         -6    2    1    2    0  503  0.17709432514E+03 -0.13101660219E+03 -0.48605857237E+02  0.28325862986E+03  0.17130432565E+03 0.  0.
        -24    2    3    3    0    0  0.13145954430E+03 -0.35012285091E+02 -0.73038499846E+02  0.17408717686E+03  0.80400564636E+02 0.  0.
          6    2    1    2  501    0 -0.17709432514E+03  0.13101660219E+03 -0.79402996585E+02  0.29126194760E+03  0.17320778333E+03 0.  0.
         24    2    5    5    0    0 -0.10375376465E+03  0.20165668767E+01 -0.32934599315E+02  0.13569444177E+03  0.80990020837E+02 0.  0.
          5    1    5    5  501    0 -0.73340560492E+02  0.12900003531E+03 -0.46468397270E+02  0.15556750583E+03  0.47000000000E+01 0. -1.
        -13    1    6    6    0    0 -0.37007765006E+01  0.16314252458E+02 -0.30275774076E+02  0.34590071927E+02  0.00000000000E+00 0.  1.
         14    1    6    6    0    0 -0.10005298815E+03 -0.14297685581E+02 -0.26588252390E+01  0.10110436985E+03  0.00000000000E+00 0. -1.
         -5    1    3    3    0  503  0.45634780838E+02 -0.96004317099E+02  0.24432642609E+02  0.10917145299E+03  0.47000000000E+01 0.  1.
         11    1    4    4    0    0  0.12317300307E+03 -0.31098388528E+02 -0.89394605235E+02  0.15533864264E+03  0.00000000000E+00 0. -1.
        -12    1    4    4    0    0  0.82865412352E+01 -0.39138965633E+01  0.16356105389E+02  0.18748534221E+02  0.00000000000E+00 0.  1.
</event>
<event>
12    1  0.8728348E-002  0.1855044E+03  0.7818608E-02  0.1162776E+00
         21   -1    0    0  503  502  0.00000000000E+00  0.00000000000E+00  0.11041227248E+03  0.11041227248E+03  0.00000000000E+00 0. -1.
         21   -1    0    0  501  503 -0.00000000000E+00 -0.00000000000E+00 -0.34521905750E+03  0.34521905750E+03  0.00000000000E+00 0.  1.
          6    2    1    2  501    0 -0.25310861824E+02  0.63863856852E+02 -0.44661645521E+02  0.18998674112E+03  0.17140906418E+03 0.  0.
         24    2    3    3    0    0 -0.24769878702E+02  0.36689690644E+01 -0.83633434816E+02  0.11812153717E+03  0.79568447885E+02 0.  0.
         -6    2    1    2    0  502  0.25310861824E+02 -0.63863856852E+02 -0.19014513950E+03  0.26564458886E+03  0.17231552912E+03 0.  0.
        -24    2    5    5    0    0  0.72438972480E+02 -0.63662850730E+02 -0.90136934329E+02  0.15498822745E+03  0.81217734652E+02 0.  0.
          5    1    3    3  501    0 -0.54098312190E+00  0.60194887788E+02  0.38971789295E+02  0.71865203954E+02  0.47000000000E+01 0. -1.
        -11    1    4    4    0    0 -0.10679266344E+02 -0.95723774610E+01  0.13130583001E+02  0.19444519790E+02  0.00000000000E+00 0.  1.
         12    1    4    4    0    0 -0.14090612358E+02  0.13241346525E+02 -0.96764017817E+02  0.98677017378E+02  0.00000000000E+00 0. -1.
         -5    1    5    5    0  502 -0.47128110657E+02 -0.20100612246E+00 -0.10000820517E+03  0.11065636140E+03  0.47000000000E+01 0.  1.
         11    1    6    6    0    0  0.71311831121E+02 -0.16997979665E+02 -0.30863920581E+02  0.79541751075E+02  0.00000000000E+00 0. -1.
        -12    1    6    6    0    0  0.11271413597E+01 -0.46664871065E+02 -0.59273013748E+02  0.75446476379E+02  0.00000000000E+00 0.  1.
</event>
<event>
12    1  0.8728348E-002  0.2102393E+03  0.7818608E-02  0.1141628E+00
         21   -1    0    0  503  502  0.00000000000E+00  0.00000000000E+00  0.10349669271E+03  0.10349669271E+03  0.00000000000E+00 0.  1.
         21   -1    0    0  501  503 -0.00000000000E+00 -0.00000000000E+00 -0.49523912025E+03  0.49523912025E+03  0.00000000000E+00 0.  1.
          6    2    1    2  501    0 -0.15764594305E+02  0.11892910384E+03 -0.30951695782E+03  0.37416746300E+03  0.17264961343E+03 0.  0.
         24    2    3    3    0    0 -0.51206967037E+02  0.13295453550E+03 -0.28551158424E+03  0.32887703930E+03  0.79650362598E+02 0.  0.
         -6    2    1    2    0  502  0.15764594305E+02 -0.11892910384E+03 -0.82225469717E+02  0.22456834996E+03  0.17110599569E+03 0.  0.
        -24    2    5    5    0    0  0.66625349065E+02 -0.84485749665E+02 -0.90426609839E+02  0.16241925728E+03  0.81401869362E+02 0.  0.
          5    1    3    3  501    0  0.35442372732E+02 -0.14025431663E+02 -0.24005373581E+02  0.45290423701E+02  0.47000000000E+01 0. -1.
        -13    1    4    4    0    0 -0.56288682632E+02  0.10852590771E+03 -0.27654530432E+03  0.30236334728E+03  0.00000000000E+00 0.  1.
         14    1    4    4    0    0  0.50817155946E+01  0.24428627789E+02 -0.89662799199E+01  0.26513692022E+02  0.00000000000E+00 0. -1.
         -5    1    5    5    0  502 -0.50860754760E+02 -0.34443354172E+02  0.82011401220E+01  0.62149092678E+02  0.47000000000E+01 0.  1.
         13    1    6    6    0    0  0.27168462847E+02 -0.12620330980E+02 -0.72573675720E+02  0.78513288907E+02  0.00000000000E+00 0. -1.
        -14    1    6    6    0    0  0.39456886217E+02 -0.71865418685E+02 -0.17852934119E+02  0.83905968378E+02  0.00000000000E+00 0.  1.
</event>
<event>
12    1  0.8728348E-002  0.1767213E+03  0.7818608E-02  0.1171514E+00
         21   -1    0    0  501  502  0.00000000000E+00  0.00000000000E+00  0.40780094547E+03  0.40780094547E+03  0.00000000000E+00 0.  1.
         21   -1    0    0  502  503 -0.00000000000E+00 -0.00000000000E+00 -0.10764316337E+03  0.10764316337E+03  0.00000000000E+00 0.  1.
         -6    2    1    2    0  503  0.26553225887E+02 -0.11058533629E+02  0.10326359599E+02  0.17702269696E+03  0.17436466548E+03 0.  0.
        -24    2    3    3    0    0 -0.22189867369E+02 -0.61287496579E+02 -0.21978863263E+01  0.10576412137E+03  0.83262663990E+02 0.  0.
          6    2    1    2  501    0 -0.26553225887E+02  0.11058533629E+02  0.28983142250E+03  0.33842141188E+03  0.17233523604E+03 0.  0.
         24    2    5    5    0    0 -0.52593462315E+02 -0.34225289991E+02  0.25785124228E+03  0.27699226146E+03  0.79372583485E+02 0.  0.
          5    1    5    5  501    0  0.26040236428E+02  0.45283823621E+02  0.31980180223E+02  0.61429150426E+02  0.47000000000E+01 0. -1.
        -13    1    6    6    0    0  0.39026850782E+01 -0.30903206163E+02  0.16756090824E+03  0.17043150258E+03  0.00000000000E+00 0.  1.
         14    1    6    6    0    0 -0.56496147393E+02 -0.33220838286E+01  0.90290334037E+02  0.10656075887E+03  0.00000000000E+00 0. -1.
         -5    1    3    3    0  503  0.48743093256E+02  0.50228962949E+02  0.12524245925E+02  0.71258575590E+02  0.47000000000E+01 0.  1.
         11    1    4    4    0    0  0.11302778969E+02 -0.51344932472E+02  0.28017174303E+02  0.59573626370E+02  0.00000000000E+00 0. -1.
        -12    1    4    4    0    0 -0.33492646338E+02 -0.99425641070E+01 -0.30215060629E+02  0.46190495003E+02  0.00000000000E+00 0.  1.
</event>
<event>
12    1  0.8728348E-002  0.2148632E+03  0.7818608E-02  0.1137806E+00
         21   -1    0    0  501  502  0.00000000000E+00  0.00000000000E+00  0.53850619718E+02  0.53850619718E+02  0.00000000000E+00 0. -1.
         21   -1    0    0  502  503 -0.00000000000E+00 -0.00000000000E+00 -0.98146314045E+03  0.98146314045E+03  0.00000000000E+00 0. -1.
         -6    2    1    2    0  503  0.12450317903E+03 -0.32211662852E+02 -0.64828535747E+03  0.68290797371E+03  0.17190335376E+03 0.  0.
        -24    2    3    3    0    0  0.77111683424E+02 -0.73101698080E+02 -0.55300049818E+03  0.56880607519E+03  0.80254160019E+02 0.  0.
          6    2    1    2  501    0 -0.12450317903E+03  0.32211662852E+02 -0.27932716326E+03  0.35240578646E+03  0.17212652725E+03 0.  0.
         24    2    5    5    0    0 -0.86705226667E+02  0.85375850831E+02 -0.22110876795E+03  0.26484673416E+03  0.80298649409E+02 0.  0.
          5    1    5    5  501    0 -0.37797952358E+02 -0.53164187980E+02 -0.58218395318E+02  0.87559052298E+02  0.47000000000E+01 0. -1.
        -13    1    6    6    0    0 -0.18998196397E+02 -0.29993336342E+01 -0.93685600840E+02  0.95639527777E+02  0.00000000000E+00 0.  1.
         14    1    6    6    0    0 -0.67707030270E+02  0.88375184466E+02 -0.12742316711E+03  0.16920720639E+03  0.00000000000E+00 0. -1.
         -5    1    3    3    0  503  0.47391495601E+02  0.40890035228E+02 -0.95284859285E+02  0.11410189852E+03  0.47000000000E+01 0.  1.
         11    1    4    4    0    0  0.45798198066E+02 -0.61680360359E+02 -0.50223173056E+03  0.50807347203E+03  0.00000000000E+00 0. -1.
        -12    1    4    4    0    0  0.31313485359E+02 -0.11421337721E+02 -0.50768767625E+02  0.60732603162E+02  0.00000000000E+00 0.  1.
</event>
<event>
12    1  0.8728348E-002  0.2080549E+03  0.7818608E-02  0.1143163E+00
         21   -1    0    0  503  502  0.00000000000E+00  0.00000000000E+00  0.16816838140E+03  0.16816838140E+03  0.00000000000E+00 0. -1.
         21   -1    0    0  501  503 -0.00000000000E+00 -0.00000000000E+00 -0.27647580461E+03  0.27647580461E+03  0.00000000000E+00 0.  1.
          6    2    1    2  501    0 -0.98214789892E+02  0.67247896797E+02 -0.11296848857E+03  0.23653708437E+03  0.17035107365E+03 0.  0.
         24    2    3    3    0    0 -0.13332497190E+03  0.72175170398E+02 -0.10178210616E+03  0.19906405330E+03  0.79259679708E+02 0.  0.
         -6    2    1    2    0  502  0.98214789892E+02 -0.67247896797E+02  0.46610653661E+01  0.20810710164E+03  0.17064118977E+03 0.  0.
        -24    2    5    5    0    0  0.13647448328E+03 -0.50900611857E+02  0.67694495200E+01  0.16618368162E+03  0.79718465334E+02 0.  0.
          5    1    3    3  501    0  0.35110182011E+02 -0.49272736009E+01 -0.11186382409E+02  0.37473031068E+02  0.47000000000E+01 0. -1.
        -13    1    4    4    0    0 -0.16201136244E+02  0.32095851934E+02  0.40753661070E+01  0.36183271492E+02  0.00000000000E+00 0.  1.
         14    1    4    4    0    0 -0.11712383566E+03  0.40079318464E+02 -0.10585747227E+03  0.16288078181E+03  0.00000000000E+00 0. -1.
         -5    1    5    5    0  502 -0.38259693388E+02 -0.16347284940E+02 -0.21083841538E+01  0.41923420027E+02  0.47000000000E+01 0.  1.
         11    1    6    6    0    0  0.56502669190E+02 -0.35511760957E+02  0.40469372288E+02  0.78047465591E+02  0.00000000000E+00 0. -1.
        -12    1    6    6    0    0  0.79971814090E+02 -0.15388850899E+02 -0.33699922768E+02  0.88136216026E+02  0.00000000000E+00 0.  1.
</event>
<event>
12    1  0.8728348E-002  0.1786437E+03  0.7818608E-02  0.1169597E+00
         21   -1    0    0  501  502  0.00000000000E+00  0.00000000000E+00  0.13123292950E+03  0.13123292950E+03  0.00000000000E+00 0.  1.
         21   -1    0    0  502  503 -0.00000000000E+00 -0.00000000000E+00 -0.24329348279E+03  0.24329348279E+03  0.00000000000E+00 0.  1.
         -6    2    1    2    0  503  0.29751583674E+02 -0.23646356517E+02 -0.75581473369E+02  0.19219618374E+03  0.17257609053E+03 0.  0.
        -24    2    3    3    0    0  0.70957339351E+02  0.29821708414E+02 -0.64451267639E+02  0.12361980481E+03  0.72136065461E+02 0.  0.
          6    2    1    2  501    0 -0.29751583674E+02  0.23646356517E+02 -0.36479079926E+02  0.18233022855E+03  0.17455452461E+03 0.  0.
         24    2    5    5    0    0 -0.81870577417E+02  0.22951172794E+02  0.18751318610E+01  0.11744565141E+03  0.80996401993E+02 0.  0.
          5    1    5    5  501    0  0.52118993743E+02  0.69518372222E+00 -0.38354211786E+02  0.64884577142E+02  0.47000000000E+01 0. -1.
        -13    1    6    6    0    0  0.78073916015E+01  0.47595271701E+01  0.21938195735E+02  0.23767475562E+02  0.00000000000E+00 0.  1.
         14    1    6    6    0    0 -0.89677969018E+02  0.18191645624E+02 -0.20063063874E+02  0.93678175845E+02  0.00000000000E+00 0. -1.
         -5    1    3    3    0  503 -0.41205755678E+02 -0.53468064930E+02 -0.11130205730E+02  0.68576378936E+02  0.47000000000E+01 0.  1.
         13    1    4    4    0    0 -0.12898750852E+01 -0.55277484196E+01  0.11607589711E+02  0.12921142334E+02  0.00000000000E+00 0. -1.
        -14    1    4    4    0    0  0.72247214436E+02  0.35349456833E+02 -0.76058857350E+02  0.11069866247E+03  0.00000000000E+00 0.  1.
</event>
<event>
12    1  0.8728348E-002  0.1872385E+03  0.7818608E-02  0.1161043E+00
         21   -1    0    0  501  502  0.00000000000E+00  0.00000000000E+00  0.27495247712E+03  0.27495247712E+03  0.00000000000E+00 0. -1.
         21   -1    0    0  502  503 -0.00000000000E+00 -0.00000000000E+00 -0.52132382518E+03  0.52132382518E+03  0.00000000000E+00 0.  1.
         -6    2    1    2    0  503  0.73060362503E+02 -0.14830628486E+02 -0.46929056997E+03  0.50515565575E+03  0.17143754946E+03 0.  0.
        -24    2    3    3    0    0  0.78206787277E+02 -0.57555112815E+02 -0.23304428788E+03  0.26497600830E+03  0.80459631322E+02 0.  0.
          6    2    1    2  501    0 -0.73060362503E+02  0.14830628486E+02  0.22291922191E+03  0.29112064655E+03  0.17175705877E+03 0.  0.
         24    2    5    5    0    0 -0.43740363345E+02 -0.90436108466E+01  0.23457742300E+03  0.25127537949E+03  0.78216000085E+02 0.  0.
          5    1    5    5  501    0 -0.29319999157E+02  0.23874239333E+02 -0.11658201097E+02  0.39845267060E+02  0.47000000000E+01 0. -1.
        -11    1    6    6    0    0 -0.19980501775E+02 -0.35790390809E+02  0.57466984161E+02  0.70587724103E+02  0.00000000000E+00 0.  1.
         12    1    6    6    0    0 -0.23759861570E+02  0.26746779963E+02  0.17711043884E+03  0.18068765538E+03  0.00000000000E+00 0. -1.
         -5    1    3    3    0  503 -0.51464247740E+01  0.42724484329E+02 -0.23624628209E+03  0.24017964745E+03  0.47000000000E+01 0.  1.
         11    1    4    4    0    0  0.42071531920E+02 -0.27517795039E+02 -0.20316310104E+03  0.20929044046E+03  0.00000000000E+00 0. -1.
        -12    1    4    4    0    0  0.36135255357E+02 -0.30037317776E+02 -0.29881186839E+02  0.55685567841E+02  0.00000000000E+00 0.  1.
</event>
<event>
12    1  0.8728348E-002  0.1882052E+03  0.7818608E-02  0.1160243E+00
         21   -1    0    0  501  502  0.00000000000E+00  0.00000000000E+00  0.59111812470E+03  0.59111812470E+03  0.00000000000E+00 0. -1.
         21   -1    0    0  502  503 -0.00000000000E+00 -0.00000000000E+00 -0.10042291062E+03  0.10042291062E+03  0.00000000000E+00 0. -1.
         -6    2    1    2    0  503 -0.65597682349E+02  0.36145247554E+02  0.25447811189E+02  0.18991783661E+03  0.17266053029E+03 0.  0.
        -24    2    3    3    0    0 -0.13695322248E+02 -0.24849599730E+02 -0.33953289236E+02  0.90093956147E+02  0.78479491754E+02 0.  0.
          6    2    1    2  501    0  0.65597682349E+02 -0.36145247554E+02  0.46524740289E+03  0.50162319871E+03  0.17193357071E+03 0.  0.
         24    2    5    5    0    0 -0.34287914984E+01 -0.74940293809E+01  0.37981839140E+03  0.38801971109E+03  0.78926349614E+02 0.  0.
          5    1    5    5  501    0  0.69026473848E+02 -0.28651218173E+02  0.85429011492E+02  0.11360348762E+03  0.47000000000E+01 0. -1.
        -11    1    6    6    0    0  0.90118835540E+01  0.21184853348E+02  0.35668668262E+02  0.42453102974E+02  0.00000000000E+00 0.  1.
         12    1    6    6    0    0 -0.12440675052E+02 -0.28678882729E+02  0.34414972314E+03  0.34556660812E+03  0.00000000000E+00 0. -1.
         -5    1    3    3    0  503 -0.51902360101E+02  0.60994847284E+02  0.59401100425E+02  0.99823880464E+02  0.47000000000E+01 0.  1.
         13    1    4    4    0    0 -0.42614113823E+02 -0.11085978468E+02 -0.37544975846E+02  0.57866111212E+02  0.00000000000E+00 0. -1.
        -14    1    4    4    0    0  0.28918791575E+02 -0.13763621262E+02  0.35916866103E+01  0.32227844934E+02  0.00000000000E+00 0.  1.
</event>
<event>
12    1  0.8728348E-002  0.2082121E+03  0.7818608E-02  0.1143092E+00
         21   -1    0    0  503  502  0.00000000000E+00  0.00000000000E+00  0.18749813411E+03  0.18749813411E+03  0.00000000000E+00 0.  1.
         21   -1    0    0  501  503 -0.00000000000E+00 -0.00000000000E+00 -0.31693100540E+03  0.31693100540E+03  0.00000000000E+00 0.  1.
          6    2    1    2  501    0  0.70970975686E+02  0.92631116626E+02 -0.19637264312E+03  0.28620707114E+03  0.17243801625E+03 0.  0.
         24    2    3    3    0    0  0.89260142111E+02  0.10248900573E+03 -0.20876090092E+03  0.26156502338E+03  0.79773294023E+02 0.  0.
         -6    2    1    2    0  502 -0.70970975686E+02 -0.92631116626E+02  0.66939771826E+02  0.21822206836E+03  0.17182122951E+03 0.  0.
        -24    2    5    5    0    0 -0.79125265715E+02 -0.93535575155E+02 -0.41594018638E+01  0.14649694731E+03  0.80214359392E+02 0.  0.
          5    1    3    3  501    0 -0.18289166425E+02 -0.98578891085E+01  0.12388257802E+02  0.24642047755E+02  0.47000000000E+01 0. -1.
        -11    1    4    4    0    0  0.98996698228E+02  0.87294559468E+02 -0.14858565090E+03  0.19874199865E+03  0.00000000000E+00 0.  1.
         12    1    4    4    0    0 -0.97365561174E+01  0.15194446267E+02 -0.60175250016E+02  0.62823024735E+02  0.00000000000E+00 0. -1.
         -5    1    5    5    0  502  0.81542900298E+01  0.90445852894E+00  0.71099173690E+02  0.71725121056E+02  0.47000000000E+01 0.  1.
         13    1    6    6    0    0 -0.30739028599E+02  0.75140738892E+01  0.10864495282E+02  0.33457233049E+02  0.00000000000E+00 0. -1.
        -14    1    6    6    0    0 -0.48386237117E+02 -0.10104964904E+03 -0.15023897146E+02  0.11303971426E+03  0.00000000000E+00 0.  1.
</event>
<event>
12    1  0.8728348E-002  0.2108777E+03  0.7818608E-02  0.1141818E+00
         21   -1    0    0  501  502  0.00000000000E+00  0.00000000000E+00  0.88787339587E+03  0.88787339587E+03  0.00000000000E+00 0.  1.
         21   -1    0    0  502  503 -0.00000000000E+00 -0.00000000000E+00 -0.79069096779E+02  0.79069096779E+02  0.00000000000E+00 0. -1.
         -6    2    1    2    0  503 -0.96141488924E+02 -0.61705465167E+02  0.10324706046E+03  0.23054558266E+03  0.17158251620E+03 0.  0.
        -24    2    3    3    0    0 -0.56764914204E+02 -0.69719004049E+02  0.34469937772E+00  0.11997561676E+03  0.79442021559E+02 0.  0.
          6    2    1    2  501    0  0.96141488924E+02  0.61705465167E+02  0.70555723863E+03  0.73639690999E+03  0.17725304436E+03 0.  0.
         24    2    5    5    0    0  0.67416246076E+02  0.68517428006E+02  0.69274196690E+03  0.70387209479E+03  0.79403431587E+02 0.  0.
          5    1    5    5  501    0  0.28725242848E+02 -0.68119628388E+01  0.12815271737E+02  0.32524815204E+02  0.47000000000E+01 0. -1.
        -11    1    6    6    0    0  0.20143615018E+02  0.55757051750E+02  0.19724416373E+03  0.20596085592E+03  0.00000000000E+00 0.  1.
         12    1    6    6    0    0  0.47272631058E+02  0.12760376256E+02  0.49549780316E+03  0.49791123887E+03  0.00000000000E+00 0. -1.
         -5    1    3    3    0  503 -0.39376574720E+02  0.80135388825E+01  0.10290236108E+03  0.11056996589E+03  0.47000000000E+01 0.  1.
         13    1    4    4    0    0 -0.71292292169E+02 -0.38142053333E+02 -0.14562785372E+02  0.82155230345E+02  0.00000000000E+00 0. -1.
        -14    1    4    4    0    0  0.14527377965E+02 -0.31576950717E+02  0.14907484750E+02  0.37820386416E+02  0.00000000000E+00 0.  1.
</event>
<event>
12    1  0.8728348E-002  0.2985933E+03  0.7818608E-02  0.1085990E+00
         21   -1    0    0  503  502  0.00000000000E+00  0.00000000000E+00  0.10594787408E+04  0.10594787408E+04  0.00000000000E+00 0. -1.
         21   -1    0    0  501  503 -0.00000000000E+00 -0.00000000000E+00 -0.24755439648E+03  0.24755439648E+03  0.00000000000E+00 0.  1.
          6    2    1    2  501    0 -0.16612959478E+03 -0.17937134788E+03 -0.12506306220E+03  0.32372634380E+03  0.17142010804E+03 0.  0.
         24    2    3    3    0    0 -0.89309618001E+02 -0.80558912601E+02 -0.13285705121E+03  0.19823513908E+03  0.84736226264E+02 0.  0.
         -6    2    1    2    0  502  0.16612959478E+03  0.17937134788E+03  0.93698740649E+03  0.98330679344E+03  0.17080318324E+03 0.  0.
        -24    2    5    5    0    0  0.43920838622E+02  0.26925178352E+02  0.42347748717E+03  0.43386221760E+03  0.79052112074E+02 0.  0.
          5    1    3    3  501    0 -0.76819976778E+02 -0.98812435284E+02  0.77939890088E+01  0.12549120473E+03  0.47000000000E+01 0. -1.
        -11    1    4    4    0    0  0.13746778347E+02 -0.21439628178E+01 -0.18632968496E+01  0.14037178015E+02  0.00000000000E+00 0.  1.
         12    1    4    4    0    0 -0.10305639635E+03 -0.78414949783E+02 -0.13099375436E+03  0.18419796106E+03  0.00000000000E+00 0. -1.
         -5    1    5    5    0  502  0.12220875616E+03  0.15244616953E+03  0.51350991932E+03  0.54944457584E+03  0.47000000000E+01 0.  1.
         11    1    6    6    0    0 -0.10474585663E+02 -0.19888592327E+02  0.92237800682E+02  0.94937268363E+02  0.00000000000E+00 0. -1.
        -12    1    6    6    0    0  0.54395424285E+02  0.46813770679E+02  0.33123968649E+03  0.33892494924E+03  0.00000000000E+00 0.  1.
</event>
<event>
12    1  0.8728348E-002  0.1967469E+03  0.7818608E-02  0.1152721E+00
         21   -1    0    0  501  502  0.00000000000E+00  0.00000000000E+00  0.17555753218E+03  0.17555753218E+03  0.00000000000E+00 0. -1.
         21   -1    0    0  502  503 -0.00000000000E+00 -0.00000000000E+00 -0.28400447079E+03  0.28400447079E+03  0.00000000000E+00 0. -1.
         -6    2    1    2    0  503 -0.13914442602E+02  0.95714953598E+02  0.55254686459E+02  0.20435858908E+03  0.17133122454E+03 0.  0.
        -24    2    3    3    0    0 -0.46763546350E+02  0.12096037805E+03  0.57697516669E+02  0.16259194578E+03  0.79302554048E+02 0.  0.
          6    2    1    2  501    0  0.13914442602E+02 -0.95714953598E+02 -0.16370162506E+03  0.25520341388E+03  0.17022219700E+03 0.  0.
         24    2    5    5    0    0  0.33601755892E+01 -0.13152829880E+03 -0.11166314441E+03  0.19098440022E+03  0.81825418697E+02 0.  0.
          5    1    5    5  501    0  0.10554267013E+02  0.35813345197E+02 -0.52038480656E+02  0.64219013660E+02  0.47000000000E+01 0. -1.
        -11    1    6    6    0    0 -0.31846154299E+02 -0.65613366450E+02 -0.26293038939E+02  0.77528158092E+02  0.00000000000E+00 0.  1.
         12    1    6    6    0    0  0.35206329888E+02 -0.65914932346E+02 -0.85370105470E+02  0.11345624213E+03  0.00000000000E+00 0. -1.
         -5    1    3    3    0  503  0.32849103748E+02 -0.25245424454E+02 -0.24428302103E+01  0.41766643298E+02  0.47000000000E+01 0.  1.
         11    1    4    4    0    0 -0.22054393914E+02  0.12173888187E+03  0.60484504868E+02  0.13771393169E+03  0.00000000000E+00 0. -1.
        -12    1    4    4    0    0 -0.24709152436E+02 -0.77850382298E+00 -0.27869881987E+01  0.24878014099E+02  0.00000000000E+00 0.  1.
</event>
<event>
12    1  0.8728348E-002  0.1802781E+03  0.7818608E-02  0.1167832E+00
         21   -1    0    0  501  502  0.00000000000E+00  0.00000000000E+00  0.36579173525E+03  0.36579173525E+03  0.00000000000E+00 0.  1.
         21   -1    0    0  502  503 -0.00000000000E+00 -0.00000000000E+00 -0.92997512251E+02  0.92997512251E+02  0.00000000000E+00 0.  1.
         -6    2    1    2    0  503 -0.26655900536E+02  0.41860844905E+02  0.84091631121E+02  0.19781249217E+03  0.17203346263E+03 0.  0.
        -24    2    3    3    0    0  0.43487883926E+02  0.29418224181E+01  0.72738910085E+02  0.11665945720E+03  0.80116350056E+02 0.  0.
          6    2    1    2  501    0  0.26655900536E+02 -0.41860844905E+02  0.18870259188E+03  0.26097675533E+03  0.17331281335E+03 0.  0.
         24    2    5    5    0    0  0.15055952181E+02 -0.39473326427E+02  0.21993924672E+02  0.93781872729E+02  0.80786643295E+02 0.  0.
          5    1    5    5  501    0  0.11599948356E+02 -0.23875184783E+01  0.16670866721E+03  0.16719488261E+03  0.47000000000E+01 0. -1.
        -13    1    6    6    0    0  0.10129593728E+02 -0.53787745623E+02  0.41788370535E+02  0.68862167845E+02  0.00000000000E+00 0.  1.
         14    1    6    6    0    0  0.49263584524E+01  0.14314419196E+02 -0.19794445863E+02  0.24919704885E+02  0.00000000000E+00 0. -1.
         -5    1    3    3    0  503 -0.70143784463E+02  0.38919022487E+02  0.11352721036E+02  0.81153034971E+02  0.47000000000E+01 0.  1.
         13    1    4    4    0    0  0.22030616600E+02 -0.29445579661E+02  0.68280571009E+02  0.77554023794E+02  0.00000000000E+00 0. -1.
        -14    1    4    4    0    0  0.21457267326E+02  0.32387402079E+02  0.44583390763E+01  0.39105433406E+02  0.00000000000E+00 0.  1.
</event>
<event>
12    1  0.8728348E-002  0.2179765E+03  0.7818608E-02  0.1135839E+00
         21   -1    0    0  503  502  0.00000000000E+00  0.00000000000E+00  0.12720548799E+04  0.12720548799E+04  0.00000000000E+00 0. -1.
         21   -1    0    0  501  503 -0.00000000000E+00 -0.00000000000E+00 -0.53908228227E+02  0.53908228227E+02  0.00000000000E+00 0. -1.
          6    2    1    2  501    0  0.26784479557E+02 -0.12636924269E+03  0.23507833826E+03  0.31901868447E+03  0.17269771881E+03 0.  0.
         24    2    3    3    0    0  0.81787776115E+02 -0.75637211153E+02  0.18000180123E+03  0.22598849267E+03  0.79119671001E+02 0.  0.
         -6    2    1    2    0  502 -0.26784479557E+02  0.12636924269E+03  0.98306831343E+03  0.10069444237E+04  0.17557667739E+03 0.  0.
        -24    2    5    5    0    0 -0.40275202937E+02  0.50704478588E+02  0.82269224134E+03  0.82904071195E+03  0.79328065582E+02 0.  0.
          5    1    3    3  501    0 -0.55003296557E+02 -0.50732031539E+02  0.55076537026E+02  0.93030191804E+02  0.47000000000E+01 0. -1.
        -11    1    4    4    0    0  0.17785243068E+02 -0.35847979269E+01  0.97352718158E+02  0.99028871446E+02  0.00000000000E+00 0.  1.
         12    1    4    4    0    0  0.64002533046E+02 -0.72052413226E+02  0.82649083074E+02  0.12695962122E+03  0.00000000000E+00 0. -1.
         -5    1    5    5    0  502  0.13490723380E+02  0.75664764103E+02  0.16037607208E+03  0.17790371171E+03  0.47000000000E+01 0.  1.
         11    1    6    6    0    0  0.17399013053E+02  0.39845590797E+02  0.37813596332E+03  0.38062738146E+03  0.00000000000E+00 0. -1.
        -12    1    6    6    0    0 -0.57674215990E+02  0.10858887791E+02  0.44455627802E+03  0.44841333049E+03  0.00000000000E+00 0.  1.
</event>
<event>
12    1  0.8728348E-002  0.1987444E+03  0.7818608E-02  0.1151327E+00
         21   -1    0    0  501  502  0.00000000000E+00  0.00000000000E+00  0.44303844495E+03  0.44303844495E+03  0.00000000000E+00 0. -1.
         21   -1    0    0  502  503 -0.00000000000E+00 -0.00000000000E+00 -0.88164157377E+02  0.88164157377E+02  0.00000000000E+00 0.  1.
         -6    2    1    2    0  503  0.85331472962E+02  0.49917135928E+02  0.18766121073E+03  0.27334242636E+03  0.17241279331E+03 0.  0.
        -24    2    3    3    0    0  0.58368939457E+02  0.60507635229E+02  0.37702990799E+02  0.12053962987E+03  0.77718593918E+02 0.  0.
          6    2    1    2  501    0 -0.85331472962E+02 -0.49917135928E+02  0.16721307684E+03  0.25786017597E+03  0.16958324371E+03 0.  0.
         24    2    5    5    0    0  0.12448915477E+02 -0.39299955247E+02  0.89348153110E+02  0.13232625531E+03  0.88474196239E+02 0.  0.
          5    1    5    5  501    0 -0.97780388439E+02 -0.10617180681E+02  0.77864923733E+02  0.12553392066E+03  0.47000000000E+01 0. -1.
        -13    1    6    6    0    0  0.36197066616E+01 -0.67148273353E+02  0.52562644597E+02  0.85351183340E+02  0.00000000000E+00 0.  1.
         14    1    6    6    0    0  0.88292088152E+01  0.27848318106E+02  0.36785508513E+02  0.46975071966E+02  0.00000000000E+00 0. -1.
         -5    1    3    3    0  503  0.26962533505E+02 -0.10590499301E+02  0.14995821993E+03  0.15280279649E+03  0.47000000000E+01 0.  1.
         13    1    4    4    0    0 -0.73577222199E+01  0.46750867275E+02  0.14652132835E+02  0.49542554071E+02  0.00000000000E+00 0. -1.
        -14    1    4    4    0    0  0.65726661677E+02  0.13756767954E+02  0.23050857964E+02  0.70997075803E+02  0.00000000000E+00 0.  1.
</event>
<event>
12    1  0.8728348E-002  0.1844019E+03  0.7818608E-02  0.1164321E+00
         21   -1    0    0  501  502  0.00000000000E+00  0.00000000000E+00  0.17549442020E+03  0.17549442020E+03  0.00000000000E+00 0.  1.
         21   -1    0    0  502  503 -0.00000000000E+00 -0.00000000000E+00 -0.19632410478E+03  0.19632410478E+03  0.00000000000E+00 0.  1.
         -6    2    1    2    0  503  0.25545537575E+02 -0.53052809713E+02  0.21367818180E+02  0.18265014107E+03  0.17157306103E+03 0.  0.
        -24    2    3    3    0    0 -0.19549745879E+00  0.23074161116E+02  0.49337990117E+02  0.97430794150E+02  0.80784077944E+02 0.  0.
          6    2    1    2  501    0 -0.25545537575E+02  0.53052809713E+02 -0.42197502760E+02  0.18916838391E+03  0.17474802752E+03 0.  0.
         24    2    5    5    0    0 -0.40977959896E+02  0.34091076526E+02  0.38788030908E+02  0.10444262839E+03  0.81008373568E+02 0.  0.
          5    1    5    5  501    0  0.15432422322E+02  0.18961733187E+02 -0.80985533668E+02  0.84725755515E+02  0.47000000000E+01 0. -1.
        -13    1    6    6    0    0  0.12329055167E+02  0.40898499703E+02  0.22549361415E+02  0.48302863057E+02  0.00000000000E+00 0.  1.
         14    1    6    6    0    0 -0.53307015063E+02 -0.68074231768E+01  0.16238669493E+02  0.56139765337E+02  0.00000000000E+00 0. -1.
         -5    1    3    3    0  503  0.25741035033E+02 -0.76126970829E+02 -0.27970171937E+02  0.85219346925E+02  0.47000000000E+01 0.  1.
         13    1    4    4    0    0 -0.12118700380E+02  0.34787126241E+02 -0.80086730395E+01  0.37698088743E+02  0.00000000000E+00 0. -1.
        -14    1    4    4    0    0  0.11923202921E+02 -0.11712965126E+02  0.57346663157E+02  0.59732705406E+02  0.00000000000E+00 0.  1.
</event>
<event>
12    1  0.8728348E-002  0.2385783E+03  0.7818608E-02  0.1122349E+00
         21   -1    0    0  501  502  0.00000000000E+00  0.00000000000E+00  0.49708877941E+03  0.49708877941E+03  0.00000000000E+00 0. -1.
         21   -1    0    0  502  503 -0.00000000000E+00 -0.00000000000E+00 -0.16622645114E+03  0.16622645114E+03  0.00000000000E+00 0. -1.
         -6    2    1    2    0  503 -0.15896163042E+03  0.44370454774E+02 -0.29528694085E+02  0.23111008307E+03  0.15906724842E+03 0.  0.
        -24    2    3    3    0    0 -0.13956387295E+03 -0.20304431566E+02 -0.24011794110E+02  0.16320102548E+03  0.78534475783E+02 0.  0.
          6    2    1    2  501    0  0.15896163042E+03 -0.44370454774E+02  0.36039102236E+03  0.43220514747E+03  0.17228483189E+03 0.  0.
         24    2    5    5    0    0  0.47316321284E+02 -0.78955037396E+02  0.17781046653E+03  0.21536760973E+03  0.79334186343E+02 0.  0.
          5    1    5    5  501    0  0.11164530914E+03  0.34584582622E+02  0.18258055583E+03  0.21683753775E+03  0.47000000000E+01 0. -1.
        -11    1    6    6    0    0 -0.14768232416E+02 -0.31070554586E+02  0.96337799615E+02  0.10229590258E+03  0.00000000000E+00 0.  1.
         12    1    6    6    0    0  0.62084553701E+02 -0.47884482810E+02  0.81472666911E+02  0.11307170714E+03  0.00000000000E+00 0. -1.
         -5    1    3    3    0  503 -0.19397757472E+02  0.64674886339E+02 -0.55168999745E+01  0.67909057594E+02  0.47000000000E+01 0.  1.
         11    1    4    4    0    0 -0.56750352013E+02 -0.34962038315E+02  0.18208146581E+02  0.69097635116E+02  0.00000000000E+00 0. -1.
        -12    1    4    4    0    0 -0.82813520939E+02  0.14657606749E+02 -0.42219940691E+02  0.94103390363E+02  0.00000000000E+00 0.  1.
</event>
<event>
12    1  0.8728348E-002  0.2757690E+03  0.7818608E-02  0.1098124E+00
         21   -1    0    0  503  502  0.00000000000E+00  0.00000000000E+00  0.21986294984E+03  0.21986294984E+03  0.00000000000E+00 0. -1.
         21   -1    0    0  501  503 -0.00000000000E+00 -0.00000000000E+00 -0.42275498422E+03  0.42275498422E+03  0.00000000000E+00 0. -1.
          6    2    1    2  501    0 -0.20363669040E+03 -0.71559944623E+02  0.36264779562E+02  0.27814321874E+03  0.17163854038E+03 0.  0.
         24    2    3    3    0    0 -0.87322110174E+02 -0.94848984273E+02  0.46119003621E+02  0.15901867605E+03  0.80860967679E+02 0.  0.
         -6    2    1    2    0  502  0.20363669040E+03  0.71559944623E+02 -0.23915681395E+03  0.36447471531E+03  0.17046145926E+03 0.  0.
        -24    2    5    5    0    0  0.58890217260E+02  0.81170060585E+02 -0.13325299240E+03  0.18480389065E+03  0.79620861539E+02 0.  0.
          5    1    3    3  501    0 -0.11631458023E+03  0.23289039649E+02 -0.98542240586E+01  0.11912454270E+03  0.47000000000E+01 0. -1.
        -13    1    4    4    0    0 -0.33620108023E+02 -0.63763069765E+02 -0.13077804685E+02  0.73260287364E+02  0.00000000000E+00 0.  1.
         14    1    4    4    0    0 -0.53702002151E+02 -0.31085914508E+02  0.59196808306E+02  0.85758388683E+02  0.00000000000E+00 0. -1.
         -5    1    5    5    0  502  0.14474647314E+03 -0.96101159621E+01 -0.10590382155E+03  0.17967082466E+03  0.47000000000E+01 0.  1.
         11    1    6    6    0    0  0.49386236552E+02  0.21951333356E+02 -0.10588096064E+03  0.11887657138E+03  0.00000000000E+00 0. -1.
        -12    1    6    6    0    0  0.95039807079E+01  0.59218727230E+02 -0.27372031762E+02  0.65927319275E+02  0.00000000000E+00 0.  1.
</event>
<event>
12    1  0.8728348E-002  0.1777943E+03  0.7818608E-02  0.1169958E+00
         21   -1    0    0  503  502  0.00000000000E+00  0.00000000000E+00  0.44019479046E+04  0.44019479046E+04  0.00000000000E+00 0. -1.
         21   -1    0    0  501  503 -0.00000000000E+00 -0.00000000000E+00 -0.74252811723E+01  0.74252811723E+01  0.00000000000E+00 0. -1.
          6    2    1    2  501    0  0.30006968317E+02 -0.35100464153E+02  0.17970359707E+04  0.18058087596E+04  0.17168149419E+03 0.  0.
         24    2    3    3    0    0 -0.21233236025E+02 -0.32170486615E+02  0.48275412632E+03  0.49051677687E+03  0.77906170428E+02 0.  0.
         -6    2    1    2    0  502 -0.30006968317E+02  0.35100464153E+02  0.25974866528E+04  0.26035644262E+04  0.17169260180E+03 0.  0.
        -24    2    5    5    0    0 -0.25817055348E+02  0.24668801791E+02  0.25835888313E+04  0.25850816128E+04  0.80253507769E+02 0.  0.
          5    1    3    3  501    0  0.51240204342E+02 -0.29299775381E+01  0.13142818443E+04  0.13152919827E+04  0.47000000000E+01 0. -1.
        -13    1    4    4    0    0  0.68854004778E+01  0.12739971362E+02  0.29700706134E+03  0.29735989994E+03  0.00000000000E+00 0.  1.
         14    1    4    4    0    0 -0.28118636502E+02 -0.44910457977E+02  0.18574706499E+03  0.19315687693E+03  0.00000000000E+00 0. -1.
         -5    1    5    5    0  502 -0.41899129698E+01  0.10431662362E+02  0.13897821420E+02  0.18482813383E+02  0.47000000000E+01 0.  1.
         13    1    6    6    0    0 -0.35927673102E+02  0.41462701249E+02  0.11035016414E+04  0.11048646188E+04  0.00000000000E+00 0. -1.
        -14    1    6    6    0    0  0.10110617754E+02 -0.16793899458E+02  0.14800871899E+04  0.14802169940E+04  0.00000000000E+00 0.  1.
</event>
<event>
12    1  0.8728348E-002  0.1827580E+03  0.7818608E-02  0.1165196E+00
         21   -1    0    0  503  502  0.00000000000E+00  0.00000000000E+00  0.45100389644E+02  0.45100389644E+02  0.00000000000E+00 0.  1.
         21   -1    0    0  501  503 -0.00000000000E+00 -0.00000000000E+00 -0.74318475613E+03  0.74318475613E+03  0.00000000000E+00 0.  1.
          6    2    1    2  501    0 -0.51618285325E+02 -0.26382525394E+02 -0.32297752299E+03  0.37102546496E+03  0.17316157273E+03 0.  0.
         24    2    3    3    0    0 -0.25045934340E+02 -0.37655689096E+02 -0.61253997618E+02  0.10767310065E+03  0.76132743489E+02 0.  0.
         -6    2    1    2    0  502  0.51618285325E+02  0.26382525394E+02 -0.37510684350E+03  0.41725968081E+03  0.17332054744E+03 0.  0.
        -24    2    5    5    0    0  0.47865827484E+02 -0.49539001439E+02 -0.23973791160E+03  0.26193744512E+03  0.79948163168E+02 0.  0.
          5    1    3    3  501    0 -0.26572350984E+02  0.11273163703E+02 -0.26172352537E+03  0.26335236431E+03  0.47000000000E+01 0. -1.
        -11    1    4    4    0    0 -0.43641645914E+02 -0.20740473900E+02 -0.66294243600E+02  0.82034671025E+02  0.00000000000E+00 0.  1.
         12    1    4    4    0    0  0.18595711574E+02 -0.16915215196E+02  0.50402459825E+01  0.25638429625E+02  0.00000000000E+00 0. -1.
         -5    1    5    5    0  502  0.37524578405E+01  0.75921526833E+02 -0.13536893190E+03  0.15532223569E+03  0.47000000000E+01 0.  1.
         11    1    6    6    0    0  0.30008638112E+02 -0.24755871753E+02 -0.27811775727E+02  0.47821192130E+02  0.00000000000E+00 0. -1.
        -12    1    6    6    0    0  0.17857189372E+02 -0.24783129686E+02 -0.21192613587E+03  0.21411625299E+03  0.00000000000E+00 0.  1.
</event>
<event>
12    1  0.8728348E-002  0.1997134E+03  0.7818608E-02  0.1150005E+00
         21   -1    0    0  501  502  0.00000000000E+00  0.00000000000E+00  0.53857581719E+02  0.53857581719E+02  0.00000000000E+00 0. -1.
         21   -1    0    0  502  503 -0.00000000000E+00 -0.00000000000E+00 -0.87071178651E+03  0.87071178651E+03  0.00000000000E+00 0. -1.
         -6    2    1    2    0  503  0.28904150714E+02 -0.98482354645E+02 -0.58733927770E+03  0.62032846728E+03  0.17118924056E+03 0.  0.
        -24    2    3    3    0    0  0.53010333859E+02 -0.84876847294E+02 -0.57559252434E+03  0.58989338702E+03  0.81567636176E+02 0.  0.
          6    2    1    2  501    0 -0.28904150714E+02  0.98482354645E+02 -0.22951492709E+03  0.30424090095E+03  0.17132191905E+03 0.  0.
         24    2    5    5    0    0 -0.35946688001E+02  0.17030960137E+02 -0.19628103599E+03  0.21586381955E+03  0.80552625777E+02 0.  0.
          5    1    5    5  501    0  0.70425372873E+01  0.81451394508E+02 -0.33233891098E+02  0.88377081397E+02  0.47000000000E+01 0. -1.
        -11    1    6    6    0    0 -0.16714642531E+02  0.16352329920E+02 -0.53786226751E+01  0.23993906531E+02  0.00000000000E+00 0.  1.
         12    1    6    6    0    0 -0.19232045470E+02  0.67863021724E+00 -0.19090241332E+03  0.19186991302E+03  0.00000000000E+00 0. -1.
         -5    1    3    3    0  503 -0.24106183145E+02 -0.13605507351E+02 -0.11746753363E+02  0.30435080264E+02  0.47000000000E+01 0.  1.
         11    1    4    4    0    0  0.17449682449E+02 -0.33123557098E+02 -0.61638955340E+02  0.72118113313E+02  0.00000000000E+00 0. -1.
        -12    1    4    4    0    0  0.35560651410E+02 -0.51753290197E+02 -0.51395356900E+03  0.51777527371E+03  0.00000000000E+00 0.  1.
</event>
<event>
12    1  0.8728348E-002  0.3698866E+03  0.7818608E-02  0.1054748E+00
         21   -1    0    0  503  502  0.00000000000E+00  0.00000000000E+00  0.17199607371E+03  0.17199607371E+03  0.00000000000E+00 0. -1.
         21   -1    0    0  501  503 -0.00000000000E+00 -0.00000000000E+00 -0.80881167911E+03  0.80881167911E+03  0.00000000000E+00 0.  1.
          6    2    1    2  501    0  0.42657517248E+02 -0.32392517761E+03 -0.38209873080E+03  0.53180404473E+03  0.17340391415E+03 0.  0.
         24    2    3    3    0    0  0.38196524848E+02 -0.66496993232E+02 -0.14156368509E+03  0.17942872099E+03  0.79205835397E+02 0.  0.
         -6    2    1    2    0  502 -0.42657517248E+02  0.32392517761E+03 -0.25471687459E+03  0.44900370809E+03  0.17313711101E+03 0.  0.
        -24    2    5    5    0    0  0.18278702601E+02  0.28433993520E+03 -0.19188778394E+03  0.35282783305E+03  0.80518621666E+02 0.  0.
          5    1    3    3  501    0  0.44609924000E+01 -0.25742818438E+03 -0.24053504572E+03  0.35237532374E+03  0.47000000000E+01 0. -1.
        -11    1    4    4    0    0  0.59103703971E+02 -0.62562457240E+02 -0.94724222116E+02  0.12798432378E+03  0.00000000000E+00 0.  1.
         12    1    4    4    0    0 -0.20907179123E+02 -0.39345359921E+01 -0.46839462970E+02  0.51444397204E+02  0.00000000000E+00 0. -1.
         -5    1    5    5    0  502 -0.60936219849E+02  0.39585242410E+02 -0.62829090654E+02  0.96175875034E+02  0.47000000000E+01 0.  1.
         13    1    6    6    0    0  0.80046692133E+01  0.66048812509E+02 -0.76028525633E+01  0.66965093371E+02  0.00000000000E+00 0. -1.
        -14    1    6    6    0    0  0.10274033388E+02  0.21829112269E+03 -0.18428493137E+03  0.28586273968E+03  0.00000000000E+00 0.  1.
</event>
<event>
12    1  0.8728348E-002  0.1869025E+03  0.7818608E-02  0.1161327E+00
         21   -1    0    0  501  502  0.00000000000E+00  0.00000000000E+00  0.89888947593E+02  0.89888947593E+02  0.00000000000E+00 0. -1.
         21   -1    0    0  502  503 -0.00000000000E+00 -0.00000000000E+00 -0.42539217945E+03  0.42539217945E+03  0.00000000000E+00 0. -1.
         -6    2    1    2    0  503  0.53755301988E+02 -0.51487944116E+02 -0.24396157824E+03  0.30732684336E+03  0.17144064894E+03 0.  0.
        -24    2    3    3    0    0  0.84028252778E+01  0.34557100860E+02 -0.13886899482E+03  0.16405389407E+03  0.79776448549E+02 0.  0.
          6    2    1    2  501    0 -0.53755301988E+02  0.51487944116E+02 -0.91541653620E+02  0.20795428369E+03  0.17124388712E+03 0.  0.
         24    2    5    5    0    0 -0.68074980787E+02  0.42567790028E+02 -0.12677843977E+03  0.16860528818E+03  0.76868398274E+02 0.  0.
          5    1    5    5  501    0  0.14319678799E+02  0.89201540881E+01  0.35236786150E+02  0.39348995515E+02  0.47000000000E+01 0. -1.
        -11    1    6    6    0    0 -0.28830852756E+02  0.61219451981E+02 -0.79211559392E+02  0.10418018292E+03  0.00000000000E+00 0.  1.
         12    1    6    6    0    0 -0.39244128031E+02 -0.18651661953E+02 -0.47566880377E+02  0.64425105257E+02  0.00000000000E+00 0. -1.
         -5    1    3    3    0  503  0.45352476710E+02 -0.86045044976E+02 -0.10509258342E+03  0.14327294929E+03  0.47000000000E+01 0.  1.
         11    1    4    4    0    0  0.18689361867E+02  0.28576123899E+02 -0.14616228756E+03  0.15009763958E+03  0.00000000000E+00 0. -1.
        -12    1    4    4    0    0 -0.10286536589E+02  0.59809769617E+01  0.72932927334E+01  0.13956254487E+02  0.00000000000E+00 0.  1.
</event>
<event>
12    1  0.8728348E-002  0.3673075E+03  0.7818608E-02  0.1055751E+00
         21   -1    0    0  501  502  0.00000000000E+00  0.00000000000E+00  0.57936683525E+03  0.57936683525E+03  0.00000000000E+00 0. -1.
         21   -1    0    0  502  503 -0.00000000000E+00 -0.00000000000E+00 -0.24597924035E+03  0.24597924035E+03  0.00000000000E+00 0.  1.
         -6    2    1    2    0  503 -0.31632117421E+03 -0.71844737492E+02  0.70906214043E+02  0.37408892509E+03  0.17231970615E+03 0.  0.
        -24    2    3    3    0    0 -0.12466928593E+03  0.10872104946E+02 -0.11771163628E+02  0.14952231786E+03  0.80979810601E+02 0.  0.
          6    2    1    2  501    0  0.31632117421E+03  0.71844737492E+02  0.26248138086E+03  0.45125715052E+03  0.17180159789E+03 0.  0.
         24    2    5    5    0    0  0.99030047478E+02 -0.18265460417E+02  0.53423754433E+02  0.13651525199E+03  0.75111511370E+02 0.  0.
          5    1    5    5  501    0  0.21729112673E+03  0.90110197909E+02  0.20905762643E+03  0.31474189853E+03  0.47000000000E+01 0. -1.
        -11    1    6    6    0    0  0.92865645901E+01 -0.13983201077E+02  0.42885641281E+02  0.46053755789E+02  0.00000000000E+00 0.  1.
         12    1    6    6    0    0  0.89743482888E+02 -0.42822593406E+01  0.10538113152E+02  0.90461496200E+02  0.00000000000E+00 0. -1.
         -5    1    3    3    0  503 -0.19165188827E+03 -0.82716842438E+02  0.82677377671E+02  0.22456660723E+03  0.47000000000E+01 0.  1.
         13    1    4    4    0    0 -0.17312503588E+02  0.60017665546E+01 -0.35061119931E+02  0.39560410931E+02  0.00000000000E+00 0. -1.
        -14    1    4    4    0    0 -0.10735678234E+03  0.48703383917E+01  0.23289956303E+02  0.10996190693E+03  0.00000000000E+00 0.  1.
</event>
<event>
12    1  0.8728348E-002  0.1743761E+03  0.7818608E-02  0.1173867E+00
         21   -1    0    0  503  502  0.00000000000E+00  0.00000000000E+00  0.36445985358E+03  0.36445985358E+03  0.00000000000E+00 0.  1.
         21   -1    0    0  501  503 -0.00000000000E+00 -0.00000000000E+00 -0.13512840197E+03  0.13512840197E+03  0.00000000000E+00 0.  1.
          6    2    1    2  501    0 -0.19706791090E+02  0.10812318822E+02 -0.40853754359E+02  0.17909791305E+03  0.17292128082E+03 0.  0.
         24    2    3    3    0    0  0.26011415577E+02  0.45355383433E+02 -0.77059946258E+02  0.11115414170E+03  0.60690224520E+02 0.  0.
         -6    2    1    2    0  502  0.19706791090E+02 -0.10812318822E+02  0.27018520597E+03  0.32049034250E+03  0.17090567648E+03 0.  0.
        -24    2    5    5    0    0  0.45138794352E+02 -0.17895412818E+00  0.62370706863E+02  0.11080292925E+03  0.79684636383E+02 0.  0.
          5    1    3    3  501    0 -0.45718206668E+02 -0.34543064612E+02  0.36206191899E+02  0.67943771352E+02  0.47000000000E+01 0. -1.
        -13    1    4    4    0    0 -0.57201343600E+01 -0.12564285562E+02 -0.16870411734E+02  0.21798899074E+02  0.00000000000E+00 0.  1.
         14    1    4    4    0    0  0.31731549937E+02  0.57919668995E+02 -0.60189534524E+02  0.89355242622E+02  0.00000000000E+00 0. -1.
         -5    1    5    5    0  502 -0.25432003262E+02 -0.10633364694E+02  0.20781449911E+03  0.20968741325E+03  0.47000000000E+01 0.  1.
         13    1    6    6    0    0 -0.57776596911E+01 -0.20492929599E+01 -0.16108144875E+02  0.17235233810E+02  0.00000000000E+00 0. -1.
        -14    1    6    6    0    0  0.50916454043E+02  0.18703388318E+01  0.78478851738E+02  0.93567695440E+02  0.00000000000E+00 0.  1.
</event>
<event>
12    1  0.8728348E-002  0.1829010E+03  0.7818608E-02  0.1165464E+00
         21   -1    0    0  501  502  0.00000000000E+00  0.00000000000E+00  0.24897233020E+02  0.24897233020E+02  0.00000000000E+00 0.  1.
         21   -1    0    0  502  503 -0.00000000000E+00 -0.00000000000E+00 -0.13449006834E+04  0.13449006834E+04  0.00000000000E+00 0.  1.
         -6    2    1    2    0  503 -0.59265497952E+02 -0.10723354047E+02 -0.72850220515E+03  0.75066424263E+03  0.17074528599E+03 0.  0.
        -24    2    3    3    0    0 -0.61961023663E+02  0.56376607082E+02 -0.50358759656E+03  0.51589128465E+03  0.74336127751E+02 0.  0.
          6    2    1    2  501    0  0.59265497952E+02  0.10723354047E+02 -0.59150124524E+03  0.61913367380E+03  0.17270029920E+03 0.  0.
         24    2    5    5    0    0  0.88268676297E+02  0.45808204288E+02 -0.51042583002E+03  0.52603456519E+03  0.79297446553E+02 0.  0.
          5    1    5    5  501    0 -0.29003178344E+02 -0.35084850241E+02 -0.81075415227E+02  0.93099108614E+02  0.47000000000E+01 0. -1.
        -13    1    6    6    0    0  0.72650410255E+02  0.63810517374E+02 -0.32488237367E+03  0.33896669594E+03  0.00000000000E+00 0.  1.
         14    1    6    6    0    0  0.15618266041E+02 -0.18002313086E+02 -0.18554345635E+03  0.18706786925E+03  0.00000000000E+00 0. -1.
         -5    1    3    3    0  503  0.26955257107E+01 -0.67099961128E+02 -0.22491460859E+03  0.23477295798E+03  0.47000000000E+01 0.  1.
         11    1    4    4    0    0 -0.70090741783E+02  0.58479127595E+02 -0.49673565425E+03  0.50505329486E+03  0.00000000000E+00 0. -1.
        -12    1    4    4    0    0  0.81297181199E+01 -0.21025205136E+01 -0.68519423107E+01  0.10837989788E+02  0.00000000000E+00 0.  1.
</event>
<event>
12    1  0.8728348E-002  0.1797401E+03  0.7818608E-02  0.1168403E+00
         21   -1    0    0  503  502  0.00000000000E+00  0.00000000000E+00  0.24048127875E+03  0.24048127875E+03  0.00000000000E+00 0. -1.
         21   -1    0    0  501  503 -0.00000000000E+00 -0.00000000000E+00 -0.22398731886E+03  0.22398731886E+03  0.00000000000E+00 0. -1.
          6    2    1    2  501    0  0.37036757404E+01 -0.50024423082E+02 -0.13952537161E+03  0.22753863191E+03  0.17259878207E+03 0.  0.
         24    2    3    3    0    0  0.10225086307E+02 -0.91037583442E+02 -0.12903544561E+03  0.18444876459E+03  0.94756564652E+02 0.  0.
         -6    2    1    2    0  502 -0.37036757404E+01  0.50024423082E+02  0.15601933150E+03  0.23692996570E+03  0.17110703296E+03 0.  0.
        -24    2    5    5    0    0 -0.65438162173E+02  0.49826628452E+02  0.89130055032E+02  0.14578474507E+03  0.80896101351E+02 0.  0.
          5    1    3    3  501    0 -0.65214105671E+01  0.41013160360E+02 -0.10489925995E+02  0.43089867323E+02  0.47000000000E+01 0. -1.
        -13    1    4    4    0    0  0.16159214412E+02  0.11540816267E+02 -0.53079384822E+02  0.56672142571E+02  0.00000000000E+00 0.  1.
         14    1    4    4    0    0 -0.59341281048E+01 -0.10257839971E+03 -0.75956060791E+02  0.12777662202E+03  0.00000000000E+00 0. -1.
         -5    1    5    5    0  502  0.61734486433E+02  0.19779462908E+00  0.66889276470E+02  0.91145220634E+02  0.47000000000E+01 0.  1.
         13    1    6    6    0    0  0.80540954494E+00  0.25808764492E+02  0.67196241733E+02  0.71986637039E+02  0.00000000000E+00 0. -1.
        -14    1    6    6    0    0 -0.66243571718E+02  0.24017863961E+02  0.21933813299E+02  0.73798108032E+02  0.00000000000E+00 0.  1.
</event>
<event>
12    1  0.8728348E-002  0.2230794E+03  0.7818608E-02  0.1132131E+00
         21   -1    0    0  503  502  0.00000000000E+00  0.00000000000E+00  0.12434111135E+04  0.12434111135E+04  0.00000000000E+00 0. -1.
         21   -1    0    0  501  503 -0.00000000000E+00 -0.00000000000E+00 -0.44507316679E+02  0.44507316679E+02  0.00000000000E+00 0. -1.
          6    2    1    2  501    0 -0.74764034644E+02 -0.12093290123E+03  0.81853892450E+03  0.84839283611E+03  0.17190115173E+03 0.  0.
         24    2    3    3    0    0 -0.19101431346E+02 -0.13863761479E+03  0.53094188151E+03  0.55488656458E+03  0.80090980155E+02 0.  0.
         -6    2    1    2    0  502  0.74764034644E+02  0.12093290123E+03  0.38036487229E+03  0.43952559404E+03  0.16819894252E+03 0.  0.
        -24    2    5    5    0    0  0.15639517860E+02  0.48379269148E+02  0.75213218138E+02  0.12030880243E+03  0.78943217296E+02 0.  0.
          5    1    3    3  501    0 -0.55662603298E+02  0.17704713558E+02  0.28759704299E+03  0.29350627153E+03  0.47000000000E+01 0. -1.
        -13    1    4    4    0    0 -0.33650933632E+02 -0.72195757775E+02  0.17188237405E+03  0.18944171474E+03  0.00000000000E+00 0.  1.
         14    1    4    4    0    0  0.14549502286E+02 -0.66441857012E+02  0.35905950746E+03  0.36544484984E+03  0.00000000000E+00 0. -1.
         -5    1    5    5    0  502  0.59124516784E+02  0.72553632081E+02  0.30515165415E+03  0.31921679161E+03  0.47000000000E+01 0.  1.
         11    1    6    6    0    0  0.38633986507E+02  0.56025265161E+02  0.64674405453E+02  0.93883938831E+02  0.00000000000E+00 0. -1.
        -12    1    6    6    0    0 -0.22994468647E+02 -0.76459960125E+01  0.10538812685E+02  0.26424863598E+02  0.00000000000E+00 0.  1.
</event>
<event>
12    1  0.8728348E-002  0.2056874E+03  0.7818608E-02  0.1145221E+00
         21   -1    0    0  501  502  0.00000000000E+00  0.00000000000E+00  0.25888084442E+03  0.25888084442E+03  0.00000000000E+00 0.  1.
         21   -1    0    0  502  503 -0.00000000000E+00 -0.00000000000E+00 -0.52465830183E+03  0.52465830183E+03  0.00000000000E+00 0.  1.
         -6    2    1    2    0  503  0.98160913984E+02  0.53598484477E+02 -0.45840043856E+03  0.50243235227E+03  0.17262370624E+03 0.  0.
        -24    2    3    3    0    0 -0.11362096530E+02  0.50517333935E+02 -0.20400732623E+03  0.22540757193E+03  0.80675188626E+02 0.  0.
          6    2    1    2  501    0 -0.98160913984E+02 -0.53598484477E+02  0.19262298115E+03  0.28110679398E+03  0.17149068249E+03 0.  0.
         24    2    5    5    0    0 -0.69707002102E+02  0.34682466425E+02  0.12237345719E+03  0.16465836329E+03  0.77943402261E+02 0.  0.
          5    1    5    5  501    0 -0.28453911882E+02 -0.88280950902E+02  0.70249523959E+02  0.11644843069E+03  0.47000000000E+01 0. -1.
        -11    1    6    6    0    0 -0.66498930766E+02 -0.57111063419E+01  0.93605714813E+02  0.11496414386E+03  0.00000000000E+00 0.  1.
         12    1    6    6    0    0 -0.32080713363E+01  0.40393572766E+02  0.28767742379E+02  0.49694219423E+02  0.00000000000E+00 0. -1.
         -5    1    3    3    0  503  0.10952301051E+03  0.30811505422E+01 -0.25439311233E+03  0.27702478034E+03  0.47000000000E+01 0.  1.
         13    1    4    4    0    0  0.26614715785E+02 -0.35579976755E+01 -0.86780232231E+02  0.90839480128E+02  0.00000000000E+00 0. -1.
        -14    1    4    4    0    0 -0.37976812315E+02  0.54075331611E+02 -0.11722709400E+03  0.13456809180E+03  0.00000000000E+00 0.  1.
</event>
<event>
12    1  0.8728348E-002  0.1724774E+03  0.7818608E-02  0.1175797E+00
         21   -1    0    0  503  502  0.00000000000E+00  0.00000000000E+00  0.57818792685E+02  0.57818792685E+02  0.00000000000E+00 0. -1.
         21   -1    0    0  501  503 -0.00000000000E+00 -0.00000000000E+00 -0.74248050594E+03  0.74248050594E+03  0.00000000000E+00 0. -1.
          6    2    1    2  501    0  0.71974977970E+00  0.89162944101E+01 -0.56824010121E+03  0.59383943247E+03  0.17224529193E+03 0.  0.
         24    2    3    3    0    0 -0.26180962396E+02 -0.13562209580E+01 -0.13099217066E+03  0.15561915036E+03  0.79819102081E+02 0.  0.
         -6    2    1    2    0  502 -0.71974977970E+00 -0.89162944101E+01 -0.11642161205E+03  0.20645986616E+03  0.17026939313E+03 0.  0.
        -24    2    5    5    0    0  0.37557770561E+02  0.38730679221E+02 -0.10760249265E+03  0.14453031322E+03  0.80000396086E+02 0.  0.
          5    1    3    3  501    0  0.26900712176E+02  0.10272515368E+02 -0.43724793055E+03  0.43822028211E+03  0.47000000000E+01 0. -1.
        -13    1    4    4    0    0 -0.22071769970E+02  0.97216012476E+01 -0.13917346638E+03  0.14124774796E+03  0.00000000000E+00 0.  1.
         14    1    4    4    0    0 -0.41091924259E+01 -0.11077822206E+02  0.81812957190E+01  0.14371402397E+02  0.00000000000E+00 0. -1.
         -5    1    5    5    0  502 -0.38277520341E+02 -0.47646973631E+02 -0.88191194051E+01  0.61929552935E+02  0.47000000000E+01 0.  1.
         13    1    6    6    0    0  0.16632502351E+02  0.55773145224E+02 -0.37050480487E+02  0.68992912440E+02  0.00000000000E+00 0. -1.
        -14    1    6    6    0    0  0.20925268210E+02 -0.17042466003E+02 -0.70552012161E+02  0.75537400783E+02  0.00000000000E+00 0.  1.
</event>
<event>
12    1  0.8728348E-002  0.1907569E+03  0.7818608E-02  0.1158084E+00
         21   -1    0    0  503  502  0.00000000000E+00  0.00000000000E+00  0.14180597697E+03  0.14180597697E+03  0.00000000000E+00 0. -1.
         21   -1    0    0  501  503 -0.00000000000E+00 -0.00000000000E+00 -0.36633027555E+03  0.36633027555E+03  0.00000000000E+00 0. -1.
          6    2    1    2  501    0 -0.67739039119E+02 -0.42424910357E+02 -0.25217498614E+03  0.31538577588E+03  0.17171928708E+03 0.  0.
         24    2    3    3    0    0  0.42544432394E+01 -0.35441079081E+02 -0.21790426546E+03  0.23520842436E+03  0.81034335994E+02 0.  0.
         -6    2    1    2    0  502  0.67739039119E+02  0.42424910357E+02  0.27650687561E+02  0.19275047663E+03  0.17320431657E+03 0.  0.
        -24    2    5    5    0    0  0.62268215506E+02 -0.41806286404E+01  0.74532477830E+02  0.12625236812E+03  0.80559058376E+02 0.  0.
          5    1    3    3  501    0 -0.71993482358E+02 -0.69838312767E+01 -0.34270720677E+02  0.80177351522E+02  0.47000000000E+01 0. -1.
        -11    1    4    4    0    0 -0.73589156105E+01 -0.48190592977E+02 -0.21112150902E+03  0.21667666802E+03  0.00000000000E+00 0.  1.
         12    1    4    4    0    0  0.11613358850E+02  0.12749513897E+02 -0.67827564429E+01  0.18531756348E+02  0.00000000000E+00 0. -1.
         -5    1    5    5    0  502  0.54708236130E+01  0.46605538998E+02 -0.46881790269E+02  0.66498108508E+02  0.47000000000E+01 0.  1.
         11    1    6    6    0    0  0.23157207286E+02 -0.41484669482E+02  0.29699101711E+02  0.56029195013E+02  0.00000000000E+00 0. -1.
        -12    1    6    6    0    0  0.39111008220E+02  0.37304040842E+02  0.44833376119E+02  0.70223173108E+02  0.00000000000E+00 0.  1.
</event>
<event>
12    1  0.8728348E-002  0.3075654E+03  0.7818608E-02  0.1081604E+00
         21   -1    0    0  501  502  0.00000000000E+00  0.00000000000E+00  0.13025222257E+03  0.13025222257E+03  0.00000000000E+00 0. -1.
         21   -1    0    0  502  503 -0.00000000000E+00 -0.00000000000E+00 -0.72569508118E+03  0.72569508118E+03  0.00000000000E+00 0.  1.
         -6    2    1    2    0  503 -0.18957432579E+03  0.16891654644E+03 -0.28145710049E+03  0.41691072706E+03  0.17356621291E+03 0.  0.
        -24    2    3    3    0    0 -0.20139241789E+03  0.16071317651E+03 -0.20526024970E+03  0.33922538321E+03  0.80959615980E+02 0.  0.
          6    2    1    2  501    0  0.18957432579E+03 -0.16891654644E+03 -0.31398575813E+03  0.43903657669E+03  0.17232189270E+03 0.  0.
         24    2    5    5    0    0  0.77627333902E+02 -0.34539000576E+02 -0.73420713180E+02  0.14157551256E+03  0.86221105897E+02 0.  0.
          5    1    5    5  501    0  0.11194699189E+03 -0.13437754586E+03 -0.24056504495E+03  0.29746106413E+03  0.47000000000E+01 0. -1.
        -11    1    6    6    0    0  0.95746975113E+02 -0.32606475235E+02 -0.70072539486E+02  0.12304806484E+03  0.00000000000E+00 0.  1.
         12    1    6    6    0    0 -0.18119641211E+02 -0.19325253413E+01 -0.33481736942E+01  0.18527447717E+02  0.00000000000E+00 0. -1.
         -5    1    3    3    0  503  0.11818092101E+02  0.82033699270E+01 -0.76196850783E+02  0.77685343844E+02  0.47000000000E+01 0.  1.
         11    1    4    4    0    0 -0.14269676321E+03  0.92858276255E+02 -0.88206710390E+02  0.19174318621E+03  0.00000000000E+00 0. -1.
        -12    1    4    4    0    0 -0.58695654679E+02  0.67854900253E+02 -0.11705353931E+03  0.14748219700E+03  0.00000000000E+00 0.  1.
</event>
<event>
12    1  0.8728348E-002  0.1813591E+03  0.7818608E-02  0.1166798E+00
         21   -1    0    0  501  502  0.00000000000E+00  0.00000000000E+00  0.16864470703E+03  0.16864470703E+03  0.00000000000E+00 0. -1.
         21   -1    0    0  502  503 -0.00000000000E+00 -0.00000000000E+00 -0.19832548444E+03  0.19832548444E+03  0.00000000000E+00 0. -1.
         -6    2    1    2    0  503 -0.47177246801E+02 -0.34082241440E+02 -0.42883846675E+02  0.18513111034E+03  0.17043242623E+03 0.  0.
        -24    2    3    3    0    0 -0.94395820242E+02 -0.27825609969E+02 -0.54607957067E+02  0.13585348986E+03  0.76087490983E+02 0.  0.
          6    2    1    2  501    0  0.47177246801E+02  0.34082241440E+02  0.13203069269E+02  0.18183908113E+03  0.17176681458E+03 0.  0.
         24    2    5    5    0    0  0.41150609904E+01  0.23965233433E+01 -0.55090163546E+02  0.94980620247E+02  0.77225093408E+02 0.  0.
          5    1    5    5  501    0  0.43062185811E+02  0.31685718096E+02  0.68293232815E+02  0.86858460880E+02  0.47000000000E+01 0. -1.
        -13    1    6    6    0    0 -0.28444717027E+02 -0.22576865385E+02 -0.26996378118E+02  0.45250648712E+02  0.00000000000E+00 0.  1.
         14    1    6    6    0    0  0.32559778018E+02  0.24973388728E+02 -0.28093785428E+02  0.49729971535E+02  0.00000000000E+00 0. -1.
         -5    1    3    3    0  503  0.47218573440E+02 -0.62566314706E+01  0.11724110392E+02  0.49277620474E+02  0.47000000000E+01 0.  1.
         11    1    4    4    0    0 -0.58248434804E+02  0.97353682901E+01 -0.59077104283E+02  0.83532998290E+02  0.00000000000E+00 0. -1.
        -12    1    4    4    0    0 -0.36147385438E+02 -0.37560978259E+02  0.44691472156E+01  0.52320491574E+02  0.00000000000E+00 0.  1.
</event>
<event>
12    1  0.8728348E-002  0.2224463E+03  0.7818608E-02  0.1132168E+00
         21   -1    0    0  503  502  0.00000000000E+00  0.00000000000E+00  0.14534524427E+04  0.14534524427E+04  0.00000000000E+00 0. -1.
         21   -1    0    0  501  503 -0.00000000000E+00 -0.00000000000E+00 -0.42424204965E+02  0.42424204965E+02  0.00000000000E+00 0. -1.
          6    2    1    2  501    0 -0.76125606313E+02  0.11859346365E+03  0.37219382270E+03  0.43360189605E+03  0.17211288459E+03 0.  0.
         24    2    3    3    0    0 -0.24386682201E+02  0.28002241417E+02  0.28211983759E+03  0.29569214800E+03  0.80395322206E+02 0.  0.
         -6    2    1    2    0  502  0.76125606313E+02 -0.11859346365E+03  0.10388344150E+04  0.10622747516E+04  0.17143858524E+03 0.  0.
        -24    2    5    5    0    0  0.50945508868E+02  0.25267539339E+01  0.56276672637E+03  0.57037366542E+03  0.77575128317E+02 0.  0.
          5    1    3    3  501    0 -0.51738924112E+02  0.90591222230E+02  0.90073985110E+02  0.13790974805E+03  0.47000000000E+01 0. -1.
        -11    1    4    4    0    0  0.28326328917E+02  0.16069446326E+02  0.77717451239E+02  0.84265118775E+02  0.00000000000E+00 0.  1.
         12    1    4    4    0    0 -0.52713011118E+02  0.11932795091E+02  0.20440238635E+03  0.21142702922E+03  0.00000000000E+00 0. -1.
         -5    1    5    5    0  502  0.25180097445E+02 -0.12112021758E+03  0.47606768866E+03  0.49190108619E+03  0.47000000000E+01 0.  1.
         11    1    6    6    0    0  0.70073186037E+02 -0.60284840232E+01  0.47256781005E+03  0.47777288445E+03  0.00000000000E+00 0. -1.
        -12    1    6    6    0    0 -0.19127677168E+02  0.85552379571E+01  0.90198916320E+02  0.92600780967E+02  0.00000000000E+00 0.  1.
</event>
<event>
12    1  0.8728348E-002  0.1881237E+03  0.7818608E-02  0.1162353E+00
         21   -1    0    0  501  502  0.00000000000E+00  0.00000000000E+00  0.97460469742E+02  0.97460469742E+02  0.00000000000E+00 0.  1.
         21   -1    0    0  502  503 -0.00000000000E+00 -0.00000000000E+00 -0.45659693238E+03  0.45659693238E+03  0.00000000000E+00 0.  1.
         -6    2    1    2    0  503 -0.44318024140E+02  0.19146728383E+02 -0.31972511967E+03  0.37096454642E+03  0.18182370055E+03 0.  0.
        -24    2    3    3    0    0  0.41113548671E+02 -0.61756013830E+01 -0.20358343359E+03  0.22450378286E+03  0.85013364531E+02 0.  0.
          6    2    1    2  501    0  0.44318024140E+02 -0.19146728383E+02 -0.39411342968E+02  0.18309285570E+03  0.17215997032E+03 0.  0.
         24    2    5    5    0    0  0.10029616893E+02  0.50250997534E+02  0.83308015845E+00  0.95723279606E+02  0.80848600903E+02 0.  0.
          5    1    5    5  501    0  0.34288407247E+02 -0.69397725917E+02 -0.40244423126E+02  0.87369576093E+02  0.47000000000E+01 0. -1.
        -13    1    6    6    0    0  0.45681124858E+02  0.27686295023E+02 -0.18234244019E+01  0.53447366417E+02  0.00000000000E+00 0.  1.
         14    1    6    6    0    0 -0.35651507964E+02  0.22564702510E+02  0.26565045604E+01  0.42275913189E+02  0.00000000000E+00 0. -1.
         -5    1    3    3    0  503 -0.85431572812E+02  0.25322329766E+02 -0.11614168608E+03  0.14646076357E+03  0.47000000000E+01 0.  1.
         11    1    4    4    0    0  0.31269997272E+02  0.98685060144E+01 -0.16928643275E+02  0.36902291304E+02  0.00000000000E+00 0. -1.
        -12    1    4    4    0    0  0.98435513998E+01 -0.16044107397E+02 -0.18665479031E+03  0.18760149155E+03  0.00000000000E+00 0.  1.
</event>
<event>
12    1  0.8728348E-002  0.2602673E+03  0.7818608E-02  0.1107026E+00
         21   -1    0    0  501  502  0.00000000000E+00  0.00000000000E+00  0.16220757644E+04  0.16220757644E+04  0.00000000000E+00 0. -1.
         21   -1    0    0  502  503 -0.00000000000E+00 -0.00000000000E+00 -0.45814734580E+02  0.45814734580E+02  0.00000000000E+00 0.  1.
         -6    2    1    2    0  503 -0.18075672980E+03 -0.73652337189E+02  0.10372261341E+04  0.10693107595E+04  0.17172590048E+03 0.  0.
        -24    2    3    3    0    0 -0.13542902016E+03 -0.85062422290E+02  0.97528005816E+03  0.99156632155E+03  0.80348882978E+02 0.  0.
          6    2    1    2  501    0  0.18075672980E+03  0.73652337189E+02  0.53903489569E+03  0.59857973949E+03  0.17216684820E+03 0.  0.
         24    2    5    5    0    0  0.13970545089E+03 -0.43816728326E+01  0.26157946780E+03  0.30741291671E+03  0.80883071928E+02 0.  0.
          5    1    5    5  501    0  0.41051278912E+02  0.78034010022E+02  0.27745542789E+03  0.29116682277E+03  0.47000000000E+01 0. -1.
        -11    1    6    6    0    0  0.25009366964E+02  0.19774847528E+02  0.16848636656E+02  0.36060914961E+02  0.00000000000E+00 0.  1.
         12    1    6    6    0    0  0.11469608392E+03 -0.24156520361E+02  0.24473083114E+03  0.27135200175E+03  0.00000000000E+00 0. -1.
         -5    1    3    3    0  503 -0.45327709642E+02  0.11410085100E+02  0.61946075987E+02  0.77744437959E+02  0.47000000000E+01 0.  1.
         11    1    4    4    0    0 -0.82786025091E+02 -0.14796223362E+02  0.33992047884E+03  0.35016908217E+03  0.00000000000E+00 0. -1.
        -12    1    4    4    0    0 -0.52642995065E+02 -0.70266198927E+02  0.63535957932E+03  0.64139723937E+03  0.00000000000E+00 0.  1.
</event>
<event>
12    1  0.8728348E-002  0.2745254E+03  0.7818608E-02  0.1098797E+00
         21   -1    0    0  501  502  0.00000000000E+00  0.00000000000E+00  0.14266647666E+04  0.14266647666E+04  0.00000000000E+00 0. -1.
         21   -1    0    0  502  503 -0.00000000000E+00 -0.00000000000E+00 -0.52819397835E+02  0.52819397835E+02  0.00000000000E+00 0.  1.
         -6    2    1    2    0  503 -0.56324245242E+02 -0.20674980610E+03  0.65336818419E+03  0.70847732355E+03  0.17068166552E+03 0.  0.
        -24    2    3    3    0    0 -0.47514414289E+02 -0.62973636174E+02  0.41501460621E+03  0.42993878350E+03  0.79918306824E+02 0.  0.
          6    2    1    2  501    0  0.56324245242E+02  0.20674980610E+03  0.72047718455E+03  0.77100684086E+03  0.17159916165E+03 0.  0.
         24    2    5    5    0    0  0.12994066271E+02  0.10392322557E+03  0.55919648050E+03  0.57483251642E+03  0.82236461239E+02 0.  0.
          5    1    5    5  501    0  0.43330178971E+02  0.10282658053E+03  0.16128070404E+03  0.19617432444E+03  0.47000000000E+01 0. -1.
        -11    1    6    6    0    0 -0.33096875784E+02  0.38305182442E+02  0.16620394942E+03  0.17374246168E+03  0.00000000000E+00 0.  1.
         12    1    6    6    0    0  0.46090942055E+02  0.65618043126E+02  0.39299253108E+03  0.40109005474E+03  0.00000000000E+00 0. -1.
         -5    1    3    3    0  503 -0.88098309532E+01 -0.14377616992E+03  0.23835357798E+03  0.27853854005E+03  0.47000000000E+01 0.  1.
         13    1    4    4    0    0 -0.25708843378E+02 -0.40805788393E+02  0.79494158392E+02  0.92980525986E+02  0.00000000000E+00 0. -1.
        -14    1    4    4    0    0 -0.21805570911E+02 -0.22167847781E+02  0.33552044782E+03  0.33695825751E+03  0.00000000000E+00 0.  1.
</event>
<event>
12    1  0.8728348E-002  0.2239731E+03  0.7818608E-02  0.1131226E+00
         21   -1    0    0  501  502  0.00000000000E+00  0.00000000000E+00  0.12624865349E+04  0.12624865349E+04  0.00000000000E+00 0.  1.
         21   -1    0    0  502  503 -0.00000000000E+00 -0.00000000000E+00 -0.41456579388E+02  0.41456579388E+02  0.00000000000E+00 0. -1.
         -6    2    1    2    0  503  0.14274681170E+03 -0.70956402362E+01  0.46592458626E+03  0.51632133039E+03  0.17051391668E+03 0.  0.
        -24    2    3    3    0    0  0.26852749508E+02  0.37228133915E+02  0.18462107004E+03  0.20883183652E+03  0.86132411618E+02 0.  0.
          6    2    1    2  501    0 -0.14274681170E+03  0.70956402362E+01  0.75510536922E+03  0.78762178386E+03  0.17244406463E+03 0.  0.
         24    2    5    5    0    0 -0.38030384224E+02 -0.74195890701E+01  0.15992258844E+03  0.18310474142E+03  0.80316571207E+02 0.  0.
          5    1    5    5  501    0 -0.10471642747E+03  0.14515229306E+02  0.59518278078E+03  0.60451704244E+03  0.47000000000E+01 0. -1.
        -11    1    6    6    0    0  0.16436897394E+01  0.12183195656E+02  0.12787943800E+03  0.12846899484E+03  0.00000000000E+00 0.  1.
         12    1    6    6    0    0 -0.39674073963E+02 -0.19602784726E+02  0.32043150438E+02  0.54635746575E+02  0.00000000000E+00 0. -1.
         -5    1    3    3    0  503  0.11589406219E+03 -0.44323774151E+02  0.28130351621E+03  0.30748949387E+03  0.47000000000E+01 0.  1.
         11    1    4    4    0    0  0.55934871693E+02  0.82893273863E+01  0.10942255727E+03  0.12316947211E+03  0.00000000000E+00 0. -1.
        -12    1    4    4    0    0 -0.29082122185E+02  0.28938806529E+02  0.75198512776E+02  0.85662364419E+02  0.00000000000E+00 0.  1.
</event>
<event>
12    1  0.8728348E-002  0.1867302E+03  0.7818608E-02  0.1161760E+00
         21   -1    0    0  503  502  0.00000000000E+00  0.00000000000E+00  0.58180462687E+02  0.58180462687E+02  0.00000000000E+00 0.  1.
         21   -1    0    0  501  503 -0.00000000000E+00 -0.00000000000E+00 -0.64177121009E+03  0.64177121009E+03  0.00000000000E+00 0.  1.
          6    2    1    2  501    0  0.89686358192E+00  0.70771487789E+02 -0.19626367106E+03  0.26996279290E+03  0.17132154893E+03 0.  0.
         24    2    3    3    0    0 -0.56547438863E+02  0.19501049141E+02 -0.74829475909E+02  0.12609876156E+03  0.81997216071E+02 0.  0.
         -6    2    1    2    0  502 -0.89686358192E+00 -0.70771487789E+02 -0.38732707634E+03  0.42998887987E+03  0.17279688914E+03 0.  0.
        -24    2    5    5    0    0  0.14416957232E+01  0.17477235216E+02 -0.27679202068E+03  0.28844950548E+03  0.79257569123E+02 0.  0.
          5    1    3    3  501    0  0.57444302444E+02  0.51270438648E+02 -0.12143419515E+03  0.14386403134E+03  0.47000000000E+01 0. -1.
        -11    1    4    4    0    0  0.91387709452E+01  0.25071509352E+02 -0.42048767025E+00  0.26688471771E+02  0.00000000000E+00 0.  1.
         12    1    4    4    0    0 -0.65686209808E+02 -0.55704602115E+01 -0.74408988239E+02  0.99410289792E+02  0.00000000000E+00 0. -1.
         -5    1    5    5    0  502 -0.23385593051E+01 -0.88248723005E+02 -0.11053505566E+03  0.14153937439E+03  0.47000000000E+01 0.  1.
         13    1    6    6    0    0 -0.33662598011E+02  0.20951032123E+02 -0.89869462218E+02  0.98227473200E+02  0.00000000000E+00 0. -1.
        -14    1    6    6    0    0  0.35104293734E+02 -0.34737969062E+01 -0.18692255846E+03  0.19022203228E+03  0.00000000000E+00 0.  1.
</event>
<event>
12    1  0.8728348E-002  0.2359070E+03  0.7818608E-02  0.1122703E+00
         21   -1    0    0  501  502  0.00000000000E+00  0.00000000000E+00  0.19572126209E+03  0.19572126209E+03  0.00000000000E+00 0. -1.
         21   -1    0    0  502  503 -0.00000000000E+00 -0.00000000000E+00 -0.29547408262E+03  0.29547408262E+03  0.00000000000E+00 0.  1.
         -6    2    1    2    0  503  0.15416301676E+03  0.49696134344E+02  0.13768573024E+00  0.23501140313E+03  0.17027741817E+03 0.  0.
        -24    2    3    3    0    0  0.67821042898E+02  0.44575583580E+02  0.62697029850E+02  0.12816142406E+03  0.76861931767E+02 0.  0.
          6    2    1    2  501    0 -0.15416301676E+03 -0.49696134344E+02 -0.99890506262E+02  0.25618394158E+03  0.17151139082E+03 0.  0.
         24    2    5    5    0    0 -0.14829069493E+03 -0.86783292002E+02 -0.53577898348E+02  0.19637684269E+03  0.78560824697E+02 0.  0.
          5    1    5    5  501    0 -0.58723218248E+01  0.37087157659E+02 -0.46312607914E+02  0.59807098898E+02  0.47000000000E+01 0. -1.
        -11    1    6    6    0    0 -0.58324338030E+02 -0.71347519518E+02 -0.50412539957E+02  0.10504104499E+03  0.00000000000E+00 0.  1.
         12    1    6    6    0    0 -0.89966356903E+02 -0.15435772484E+02 -0.31653583911E+01  0.91335797694E+02  0.00000000000E+00 0. -1.
         -5    1    3    3    0  503  0.86341973860E+02  0.51205507632E+01 -0.62559344120E+02  0.10684997907E+03  0.47000000000E+01 0.  1.
         13    1    4    4    0    0  0.64440767258E+02  0.49482808315E+02  0.18192047791E+02  0.83259302221E+02  0.00000000000E+00 0. -1.
        -14    1    4    4    0    0  0.33802756398E+01 -0.49072247342E+01  0.44504982058E+02  0.44902121843E+02  0.00000000000E+00 0.  1.
</event>
<event>
12    1  0.8728348E-002  0.1739330E+03  0.7818608E-02  0.1173947E+00
         21   -1    0    0  503  502  0.00000000000E+00  0.00000000000E+00  0.69999794822E+03  0.69999794822E+03  0.00000000000E+00 0. -1.
         21   -1    0    0  501  503 -0.00000000000E+00 -0.00000000000E+00 -0.43088772311E+02  0.43088772311E+02  0.00000000000E+00 0. -1.
          6    2    1    2  501    0  0.21460856620E+02  0.82662828503E+00  0.32315539891E+03  0.36673013401E+03  0.17204745759E+03 0.  0.
         24    2    3    3    0    0  0.79808760827E+02 -0.76068997351E+01  0.23456824255E+03  0.26021545618E+03  0.79136085283E+02 0.  0.
         -6    2    1    2    0  502 -0.21460856620E+02 -0.82662828503E+00  0.33375377699E+03  0.37635658652E+03  0.17260198399E+03 0.  0.
        -24    2    5    5    0    0 -0.30348574988E+02 -0.64586068067E+02  0.23431160316E+03  0.25780240635E+03  0.80422367238E+02 0.  0.
          5    1    3    3  501    0 -0.58347904207E+02  0.84335280201E+01  0.88587156363E+02  0.10651467783E+03  0.47000000000E+01 0. -1.
        -13    1    4    4    0    0  0.32512865847E+02  0.25074652688E+02  0.39963020104E+02  0.57296314270E+02  0.00000000000E+00 0.  1.
         14    1    4    4    0    0  0.47295894980E+02 -0.32681552423E+02  0.19460522245E+03  0.20291914191E+03  0.00000000000E+00 0. -1.
         -5    1    5    5    0  502  0.88877183687E+01  0.63759439782E+02  0.99442173834E+02  0.11855418017E+03  0.47000000000E+01 0.  1.
         13    1    6    6    0    0  0.57222242426E+01  0.14094229785E+02  0.12456900809E+02  0.19661270083E+02  0.00000000000E+00 0. -1.
        -14    1    6    6    0    0 -0.36070799231E+02 -0.78680297852E+02  0.22185470235E+03  0.23814113626E+03  0.00000000000E+00 0.  1.
</event>
<event>
12    1  0.8728348E-002  0.1739883E+03  0.7818608E-02  0.1174370E+00
         21   -1    0    0  503  502  0.00000000000E+00  0.00000000000E+00  0.82156063217E+03  0.82156063217E+03  0.00000000000E+00 0.  1.
         21   -1    0    0  501  503 -0.00000000000E+00 -0.00000000000E+00 -0.48472181212E+02  0.48472181212E+02  0.00000000000E+00 0.  1.
          6    2    1    2  501    0 -0.73345761395E+01  0.14638611045E+02  0.16682413649E+03  0.23929644621E+03  0.17077591081E+03 0.  0.
         24    2    3    3    0    0  0.35541986273E+02  0.43770384111E+02  0.15928830873E+03  0.18670425566E+03  0.79414321576E+02 0.  0.
         -6    2    1    2    0  502  0.73345761395E+01 -0.14638611045E+02  0.60626431447E+03  0.63073636718E+03  0.17321622596E+03 0.  0.
        -24    2    5    5    0    0  0.19115269510E+01 -0.23102645153E+02  0.13356438788E+03  0.15790620746E+03  0.80978629873E+02 0.  0.
          5    1    3    3  501    0 -0.42876562413E+02 -0.29131773066E+02  0.75358277583E+01  0.52592190545E+02  0.47000000000E+01 0. -1.
        -13    1    4    4    0    0  0.33778863970E+02  0.64400799620E+02  0.98152000341E+02  0.12215682467E+03  0.00000000000E+00 0.  1.
         14    1    4    4    0    0  0.17631223037E+01 -0.20630415509E+02  0.61136308387E+02  0.64547430991E+02  0.00000000000E+00 0. -1.
         -5    1    5    5    0  502  0.54230491885E+01  0.84640341083E+01  0.47269992660E+03  0.47283015972E+03  0.47000000000E+01 0.  1.
         13    1    6    6    0    0 -0.11647038644E+02  0.22369455402E+02  0.13070033927E+02  0.28405489452E+02  0.00000000000E+00 0. -1.
        -14    1    6    6    0    0  0.13558565595E+02 -0.45472100555E+02  0.12049435395E+03  0.12950071800E+03  0.00000000000E+00 0.  1.
</event>
<event>
12    1  0.8728348E-002  0.2663332E+03  0.7818608E-02  0.1103518E+00
         21   -1    0    0  503  502  0.00000000000E+00  0.00000000000E+00  0.40403219536E+03  0.40403219536E+03  0.00000000000E+00 0. -1.
         21   -1    0    0  501  503 -0.00000000000E+00 -0.00000000000E+00 -0.24853015247E+03  0.24853015247E+03  0.00000000000E+00 0.  1.
          6    2    1    2  501    0  0.12309539323E+03 -0.16107206584E+03 -0.99617650729E+02  0.28435376962E+03  0.17273304180E+03 0.  0.
         24    2    3    3    0    0  0.15568982195E+03 -0.14614269163E+03 -0.98769543485E+02  0.24818621118E+03  0.79018768175E+02 0.  0.
         -6    2    1    2    0  502 -0.12309539323E+03  0.16107206584E+03  0.25511969362E+03  0.36820857821E+03  0.17144915505E+03 0.  0.
        -24    2    5    5    0    0 -0.87100669494E+02  0.12127069638E+03  0.26431499789E+03  0.31356049711E+03  0.78515341259E+02 0.  0.
          5    1    3    3  501    0 -0.32594428717E+02 -0.14929374208E+02 -0.84810724331E+00  0.36167558440E+02  0.47000000000E+01 0. -1.
        -13    1    4    4    0    0  0.86915586076E+02 -0.97752249597E+02 -0.99079626811E+02  0.16409324743E+03  0.00000000000E+00 0.  1.
         14    1    4    4    0    0  0.68774235869E+02 -0.48390442030E+02  0.31008332552E+00  0.84092963742E+02  0.00000000000E+00 0. -1.
         -5    1    5    5    0  502 -0.35994723734E+02  0.39801369460E+02 -0.91953042661E+01  0.54648081102E+02  0.47000000000E+01 0.  1.
         13    1    6    6    0    0 -0.72693871321E+02  0.84489200915E+02  0.11931297113E+03  0.16327403063E+03  0.00000000000E+00 0. -1.
        -14    1    6    6    0    0 -0.14406798173E+02  0.36781495461E+02  0.14500202676E+03  0.15028646648E+03  0.00000000000E+00 0.  1.
</event>
<event>
12    1  0.8728348E-002  0.3383746E+03  0.7818608E-02  0.1068530E+00
         21   -1    0    0  503  502  0.00000000000E+00  0.00000000000E+00  0.23701015228E+04  0.23701015228E+04  0.00000000000E+00 0.  1.
         21   -1    0    0  501  503 -0.00000000000E+00 -0.00000000000E+00 -0.53407249862E+02  0.53407249862E+02  0.00000000000E+00 0.  1.
          6    2    1    2  501    0 -0.47413243852E+02  0.27614300382E+03  0.15649263446E+04  0.15990984522E+04  0.17210003372E+03 0.  0.
         24    2    3    3    0    0 -0.32418387585E+02  0.27927543431E+03  0.15492627158E+04  0.15766909289E+04  0.81814439297E+02 0.  0.
         -6    2    1    2    0  502  0.47413243852E+02 -0.27614300382E+03  0.75176792843E+03  0.82441032053E+03  0.18972185993E+03 0.  0.
        -24    2    5    5    0    0  0.87012532728E+02 -0.98075824537E+02  0.40271705911E+03  0.43053899206E+03  0.77412826970E+02 0.  0.
          5    1    3    3  501    0 -0.14994856267E+02 -0.31324304902E+01  0.15663628712E+02  0.22407523283E+02  0.47000000000E+01 0. -1.
        -13    1    4    4    0    0 -0.22166953199E+02  0.18015854854E+03  0.77122575914E+03  0.79229896377E+03  0.00000000000E+00 0.  1.
         14    1    4    4    0    0 -0.10251434387E+02  0.99116885773E+02  0.77803695670E+03  0.78439196512E+03  0.00000000000E+00 0. -1.
         -5    1    5    5    0  502 -0.39599288875E+02 -0.17806717929E+03  0.34905086932E+03  0.39387132847E+03  0.47000000000E+01 0.  1.
         13    1    6    6    0    0  0.21571857441E+02 -0.12330747519E+02  0.19412301645E+03  0.19570676504E+03  0.00000000000E+00 0. -1.
        -14    1    6    6    0    0  0.65440675286E+02 -0.85745077018E+02  0.20859404266E+03  0.23483222702E+03  0.00000000000E+00 0.  1.
</event>
<event>
12    1  0.8728348E-002  0.1830943E+03  0.7818608E-02  0.1164870E+00
         21   -1    0    0  501  502  0.00000000000E+00  0.00000000000E+00  0.11589365416E+04  0.11589365416E+04  0.00000000000E+00 0. -1.
         21   -1    0    0  502  503 -0.00000000000E+00 -0.00000000000E+00 -0.30346669703E+02  0.30346669703E+02  0.00000000000E+00 0.  1.
         -6    2    1    2    0  503 -0.17231665671E+02  0.61005489182E+02  0.69399534902E+03  0.71774163660E+03  0.17176994046E+03 0.  0.
        -24    2    3    3    0    0  0.17808696879E+02  0.87835227403E+02  0.33306695938E+03  0.35409475526E+03  0.80108173231E+02 0.  0.
          6    2    1    2  501    0  0.17231665671E+02 -0.61005489182E+02  0.43459452286E+03  0.47154157468E+03  0.17164048863E+03 0.  0.
         24    2    5    5    0    0  0.68157353503E+02 -0.22513742583E+02  0.34340224229E+03  0.36012720275E+03  0.81327785576E+02 0.  0.
          5    1    5    5  501    0 -0.50925687832E+02 -0.38491746599E+02  0.91192280567E+02  0.11141437193E+03  0.47000000000E+01 0. -1.
        -11    1    6    6    0    0 -0.17297284575E+02  0.18252926315E+01  0.33601136909E+02  0.37836016551E+02  0.00000000000E+00 0.  1.
         12    1    6    6    0    0  0.85454638078E+02 -0.24339035214E+02  0.30980110538E+03  0.32229118620E+03  0.00000000000E+00 0. -1.
         -5    1    3    3    0  503 -0.35040362550E+02 -0.26829738221E+02  0.36092838964E+03  0.36364688134E+03  0.47000000000E+01 0.  1.
         13    1    4    4    0    0  0.26980891770E+02  0.55606722350E+02  0.30246525304E+03  0.30871557360E+03  0.00000000000E+00 0. -1.
        -14    1    4    4    0    0 -0.91721948909E+01  0.32228505053E+02  0.30601706341E+02  0.45379181659E+02  0.00000000000E+00 0.  1.
</event>
<event>
12    1  0.8728348E-002  0.1991084E+03  0.7818608E-02  0.1150749E+00
         21   -1    0    0  501  502  0.00000000000E+00  0.00000000000E+00  0.49934213046E+02  0.49934213046E+02  0.00000000000E+00 0.  1.
         21   -1    0    0  502  503 -0.00000000000E+00 -0.00000000000E+00 -0.79602353689E+03  0.79602353689E+03  0.00000000000E+00 0.  1.
         -6    2    1    2    0  503 -0.48193853468E+02  0.85015123625E+02 -0.41124725284E+03  0.45638957225E+03  0.17209567086E+03 0.  0.
        -24    2    3    3    0    0 -0.20964634819E+02  0.37825682260E+02 -0.38628783207E+03  0.39627853824E+03  0.77123877708E+02 0.  0.
          6    2    1    2  501    0  0.48193853468E+02 -0.85015123625E+02 -0.33484207100E+03  0.38956817769E+03  0.17347603234E+03 0.  0.
         24    2    5    5    0    0  0.98557840149E+02 -0.78558908154E+02 -0.25253286275E+03  0.29274302788E+03  0.77720548747E+02 0.  0.
          5    1    5    5  501    0 -0.50363986681E+02 -0.64562154710E+01 -0.82309208248E+02  0.96825149806E+02  0.47000000000E+01 0. -1.
        -11    1    6    6    0    0  0.66953060831E+02 -0.71914358995E+01 -0.89633371783E+02  0.11210963581E+03  0.00000000000E+00 0.  1.
         12    1    6    6    0    0  0.31604779318E+02 -0.71367472254E+02 -0.16289949097E+03  0.18063339207E+03  0.00000000000E+00 0. -1.
         -5    1    3    3    0  503 -0.27229218649E+02  0.47189441365E+02 -0.24959420777E+02  0.60111034013E+02  0.47000000000E+01 0.  1.
         13    1    4    4    0    0  0.14522044673E+02 -0.78325825539E+01 -0.22379638685E+02  0.27804448540E+02  0.00000000000E+00 0. -1.
        -14    1    4    4    0    0 -0.35486679492E+02  0.45658264814E+02 -0.36390819338E+03  0.36847408970E+03  0.00000000000E+00 0.  1.
</event>
<event>
12    1  0.8728348E-002  0.1805631E+03  0.7818608E-02  0.1168402E+00
         21   -1    0    0  503  502  0.00000000000E+00  0.00000000000E+00  0.81517124752E+02  0.81517124752E+02  0.00000000000E+00 0.  1.
         21   -1    0    0  501  503 -0.00000000000E+00 -0.00000000000E+00 -0.39709994799E+03  0.39709994799E+03  0.00000000000E+00 0.  1.
          6    2    1    2  501    0 -0.16290329886E+02 -0.28687075992E+02 -0.12301930206E+03  0.21464025745E+03  0.17276680312E+03 0.  0.
         24    2    3    3    0    0  0.26483425121E+02  0.82702523630E+01 -0.13271599863E+03  0.15709415279E+03  0.79342722852E+02 0.  0.
         -6    2    1    2    0  502  0.16290329886E+02  0.28687075992E+02 -0.19256352117E+03  0.26397681529E+03  0.17752387487E+03 0.  0.
        -24    2    5    5    0    0 -0.30925974505E+02 -0.21921392725E+02 -0.43924472145E+02  0.99945557902E+02  0.81380537802E+02 0.  0.
          5    1    3    3  501    0 -0.42773755006E+02 -0.36957328355E+02  0.96966965649E+01  0.57546104653E+02  0.47000000000E+01 0. -1.
        -11    1    4    4    0    0  0.25628489876E+02 -0.27552358155E+02 -0.10575854759E+03  0.11225338446E+03  0.00000000000E+00 0.  1.
         12    1    4    4    0    0  0.85493524527E+00  0.35822610518E+02 -0.26957451038E+02  0.44840768337E+02  0.00000000000E+00 0. -1.
         -5    1    5    5    0  502  0.47216304391E+02  0.50608468716E+02 -0.14863904903E+03  0.16403125739E+03  0.47000000000E+01 0.  1.
         11    1    6    6    0    0  0.16330643335E+02 -0.36583175739E+02 -0.16074218118E+02  0.43167107234E+02  0.00000000000E+00 0. -1.
        -12    1    6    6    0    0 -0.47256617840E+02  0.14661783014E+02 -0.27850254027E+02  0.56778450668E+02  0.00000000000E+00 0.  1.
</event>
<event>
12    1  0.8728348E-002  0.2617189E+03  0.7818608E-02  0.1106211E+00
         21   -1    0    0  501  502  0.00000000000E+00  0.00000000000E+00  0.93208287388E+02  0.93208287388E+02  0.00000000000E+00 0. -1.
         21   -1    0    0  502  503 -0.00000000000E+00 -0.00000000000E+00 -0.85453026465E+03  0.85453026465E+03  0.00000000000E+00 0.  1.
         -6    2    1    2    0  503 -0.14397148475E+03 -0.13385497221E+03 -0.20161213117E+03  0.32986161463E+03  0.17180305983E+03 0.  0.
        -24    2    3    3    0    0 -0.63946837203E+02 -0.13817490669E+03 -0.17417234780E+03  0.24502272167E+03  0.80737999516E+02 0.  0.
          6    2    1    2  501    0  0.14397148475E+03  0.13385497221E+03 -0.55970984609E+03  0.61787693740E+03  0.17277689648E+03 0.  0.
         24    2    5    5    0    0  0.15412629217E+03  0.96049138531E+02 -0.53693761308E+03  0.57234600539E+03  0.79357410435E+02 0.  0.
          5    1    5    5  501    0 -0.10154807424E+02  0.37805833676E+02 -0.22772233006E+02  0.45530932012E+02  0.47000000000E+01 0. -1.
        -13    1    6    6    0    0  0.90965180068E+02  0.77826902677E+02 -0.23977922027E+03  0.26800329334E+03  0.00000000000E+00 0.  1.
         14    1    6    6    0    0  0.63161112104E+02  0.18222235854E+02 -0.29715839281E+03  0.30434271205E+03  0.00000000000E+00 0. -1.
         -5    1    3    3    0  503 -0.80024647545E+02  0.43199344874E+01 -0.27439783370E+02  0.84838892968E+02  0.47000000000E+01 0.  1.
         11    1    4    4    0    0 -0.36258248219E+02 -0.34926242087E+02 -0.13645141344E+02  0.52160261047E+02  0.00000000000E+00 0. -1.
        -12    1    4    4    0    0 -0.27688588985E+02 -0.10324866461E+03 -0.16052720646E+03  0.19286246062E+03  0.00000000000E+00 0.  1.
</event>
<event>
12    1  0.8728348E-002  0.1748876E+03  0.7818608E-02  0.1172976E+00
         21   -1    0    0  501  502  0.00000000000E+00  0.00000000000E+00  0.26793649885E+03  0.26793649885E+03  0.00000000000E+00 0. -1.
         21   -1    0    0  502  503 -0.00000000000E+00 -0.00000000000E+00 -0.12241538028E+03  0.12241538028E+03  0.00000000000E+00 0. -1.
         -6    2    1    2    0  503 -0.10578753545E+00 -0.27242370773E+02  0.20916948093E+02  0.17561514257E+03  0.17222369647E+03 0.  0.
        -24    2    3    3    0    0 -0.33215045227E+02 -0.63061668381E+02  0.50542692385E+02  0.11835241690E+03  0.79829302793E+02 0.  0.
          6    2    1    2  501    0  0.10578753545E+00  0.27242370773E+02  0.12460417048E+03  0.21473673656E+03  0.17275273883E+03 0.  0.
         24    2    5    5    0    0  0.20149219822E+02 -0.47452684056E+02  0.58781145569E+02  0.11307134913E+03  0.81683282473E+02 0.  0.
          5    1    5    5  501    0 -0.20043432287E+02  0.74695054829E+02  0.65823024909E+02  0.10166538743E+03  0.47000000000E+01 0. -1.
        -11    1    6    6    0    0 -0.30753367669E+02 -0.29444379120E+02  0.24747749360E+02  0.49246240295E+02  0.00000000000E+00 0.  1.
         12    1    6    6    0    0  0.50902587491E+02 -0.18008304936E+02  0.34033396209E+02  0.63825108832E+02  0.00000000000E+00 0. -1.
         -5    1    3    3    0  503  0.33109257691E+02  0.35819297609E+02 -0.29625744292E+02  0.57262725668E+02  0.47000000000E+01 0.  1.
         13    1    4    4    0    0 -0.45938649670E+02 -0.36803487267E+02 -0.12833713941E+01  0.58877018018E+02  0.00000000000E+00 0. -1.
        -14    1    4    4    0    0  0.12723604443E+02 -0.26258181114E+02  0.51826063780E+02  0.59475398883E+02  0.00000000000E+00 0.  1.
</event>
<event>
12    1  0.8728348E-002  0.2009674E+03  0.7818608E-02  0.1149223E+00
         21   -1    0    0  503  502  0.00000000000E+00  0.00000000000E+00  0.20271258554E+03  0.20271258554E+03  0.00000000000E+00 0. -1.
         21   -1    0    0  501  503 -0.00000000000E+00 -0.00000000000E+00 -0.27408200066E+03  0.27408200066E+03  0.00000000000E+00 0. -1.
          6    2    1    2  501    0 -0.93351661609E+01  0.10204370259E+03  0.90143983073E+02  0.21896812594E+03  0.17123387494E+03 0.  0.
         24    2    3    3    0    0  0.18594624470E+01 -0.10342396088E+02  0.63944997434E+02  0.10293178795E+03  0.79972292175E+02 0.  0.
         -6    2    1    2    0  502  0.93351661609E+01 -0.10204370259E+03 -0.16151339819E+03  0.25782646026E+03  0.17288100894E+03 0.  0.
        -24    2    5    5    0    0 -0.40284628903E+02 -0.13798735632E+02 -0.11631527913E+03  0.14685683279E+03  0.78895048943E+02 0.  0.
          5    1    3    3  501    0 -0.11194628608E+02  0.11238609868E+03  0.26198985639E+02  0.11603633799E+03  0.47000000000E+01 0. -1.
        -11    1    4    4    0    0 -0.15771966202E+02 -0.29776657248E+02 -0.12556835083E+00  0.33695993859E+02  0.00000000000E+00 0.  1.
         12    1    4    4    0    0  0.17631428649E+02  0.19434261160E+02  0.64070565785E+02  0.69235794088E+02  0.00000000000E+00 0. -1.
         -5    1    5    5    0  502  0.49619795064E+02 -0.88244966957E+02 -0.45198119062E+02  0.11096962748E+03  0.47000000000E+01 0.  1.
         13    1    6    6    0    0 -0.11547352394E+02 -0.42481026618E+02 -0.84481311160E+02  0.95263166571E+02  0.00000000000E+00 0. -1.
        -14    1    6    6    0    0 -0.28737276509E+02  0.28682290986E+02 -0.31833967966E+02  0.51593666218E+02  0.00000000000E+00 0.  1.
</event>
<event>
12    1  0.8728348E-002  0.1975798E+03  0.7818608E-02  0.1152396E+00
         21   -1    0    0  503  502  0.00000000000E+00  0.00000000000E+00  0.15005730280E+03  0.15005730280E+03  0.00000000000E+00 0. -1.
         21   -1    0    0  501  503 -0.00000000000E+00 -0.00000000000E+00 -0.36603991896E+03  0.36603991896E+03  0.00000000000E+00 0. -1.
          6    2    1    2  501    0  0.25761266258E+02 -0.89357506090E+02 -0.24860891979E+03  0.31584174534E+03  0.17117595147E+03 0.  0.
         24    2    3    3    0    0 -0.34755039393E+02 -0.63002113510E+00 -0.11860671692E+03  0.14714837680E+03  0.79854754438E+02 0.  0.
         -6    2    1    2    0  502 -0.25761266258E+02  0.89357506090E+02  0.32626303630E+02  0.20025547643E+03  0.17432548126E+03 0.  0.
        -24    2    5    5    0    0 -0.53197274919E+02  0.11279713874E+03 -0.47135895495E+01  0.14811615755E+03  0.79768625627E+02 0.  0.
          5    1    3    3  501    0  0.60516305652E+02 -0.88727484955E+02 -0.13000220287E+03  0.16869336854E+03  0.47000000000E+01 0. -1.
        -11    1    4    4    0    0  0.23132154666E+02  0.14288413011E+02 -0.33496816315E+02  0.43142693809E+02  0.00000000000E+00 0.  1.
         12    1    4    4    0    0 -0.57887194059E+02 -0.14918434146E+02 -0.85109900608E+02  0.10400568299E+03  0.00000000000E+00 0. -1.
         -5    1    5    5    0  502  0.27436008661E+02 -0.23439632651E+02  0.37339893179E+02  0.52139318875E+02  0.47000000000E+01 0.  1.
         11    1    6    6    0    0 -0.17505695753E+02  0.11081376848E+03 -0.59783418646E+01  0.11234714611E+03  0.00000000000E+00 0. -1.
        -12    1    6    6    0    0 -0.35691579166E+02  0.19833702639E+01  0.12647523151E+01  0.35769011440E+02  0.00000000000E+00 0.  1.
</event>
<event>
12    1  0.8728348E-002  0.2656678E+03  0.7818608E-02  0.1103828E+00
         21   -1    0    0  503  502  0.00000000000E+00  0.00000000000E+00  0.30988069003E+03  0.30988069003E+03  0.00000000000E+00 0.  1.
         21   -1    0    0  501  503 -0.00000000000E+00 -0.00000000000E+00 -0.55706588412E+03  0.55706588412E+03  0.00000000000E+00 0. -1.
          6    2    1    2  501    0 -0.60854607114E+02  0.19355172969E+03 -0.45696986520E+03  0.52843658319E+03  0.17105031270E+03 0.  0.
         24    2    3    3    0    0 -0.79849722215E+01  0.19593624098E+03 -0.38192981792E+03  0.43649104015E+03  0.78735455846E+02 0.  0.
         -6    2    1    2    0  502  0.60854607114E+02 -0.19355172969E+03  0.20978467111E+03  0.33850999096E+03  0.17150466604E+03 0.  0.
        -24    2    5    5    0    0  0.82781938790E+02 -0.20621913264E+03  0.20393587295E+03  0.31209845160E+03  0.80227321753E+02 0.  0.
          5    1    3    3  501    0 -0.52869634893E+02 -0.23845112893E+01 -0.75040047286E+02  0.91945543037E+02  0.47000000000E+01 0. -1.
        -11    1    4    4    0    0 -0.36943530317E+02  0.92779827311E+02 -0.14071033329E+03  0.17254656961E+03  0.00000000000E+00 0.  1.
         12    1    4    4    0    0  0.28958558095E+02  0.10315641367E+03 -0.24121948462E+03  0.26394447054E+03  0.00000000000E+00 0. -1.
         -5    1    5    5    0  502 -0.21927331676E+02  0.12667402942E+02  0.58487981556E+01  0.26411539364E+02  0.47000000000E+01 0.  1.
         11    1    6    6    0    0  0.14560007154E+02  0.36654681142E+01  0.18613097133E+02  0.23913946762E+02  0.00000000000E+00 0. -1.
        -12    1    6    6    0    0  0.68221931636E+02 -0.20988460075E+03  0.18532277582E+03  0.28818450483E+03  0.00000000000E+00 0.  1.
</event>
<event>
12    1  0.8728348E-002  0.2258057E+03  0.7818608E-02  0.1129866E+00
         21   -1    0    0  503  502  0.00000000000E+00  0.00000000000E+00  0.82362722749E+02  0.82362722749E+02  0.00000000000E+00 0.  1.
         21   -1    0    0  501  503 -0.00000000000E+00 -0.00000000000E+00 -0.64398846953E+03  0.64398846953E+03  0.00000000000E+00 0.  1.
          6    2    1    2  501    0 -0.29673268451E+02 -0.14319290977E+03 -0.20514867186E+03  0.30508061664E+03  0.17205665582E+03 0.  0.
         24    2    3    3    0    0 -0.85758049058E+02 -0.90238929416E+02 -0.11704985875E+03  0.18789223188E+03  0.78136508794E+02 0.  0.
         -6    2    1    2    0  502  0.29673268451E+02  0.14319290977E+03 -0.35647707492E+03  0.42127057564E+03  0.17031817487E+03 0.  0.
        -24    2    5    5    0    0 -0.13965859545E+02  0.90279296708E+01 -0.15579992196E+03  0.17591771730E+03  0.79980490312E+02 0.  0.
          5    1    3    3  501    0  0.56084780608E+02 -0.52953980351E+02 -0.88098813110E+02  0.11718838476E+03  0.47000000000E+01 0. -1.
        -11    1    4    4    0    0 -0.60215933680E+02 -0.96539008499E+02 -0.11456944332E+03  0.16146794163E+03  0.00000000000E+00 0.  1.
         12    1    4    4    0    0 -0.25542115378E+02  0.63000790830E+01 -0.24804154275E+01  0.26424290249E+02  0.00000000000E+00 0. -1.
         -5    1    5    5    0  502  0.43639127996E+02  0.13416498010E+03 -0.20067715296E+03  0.24535285834E+03  0.47000000000E+01 0.  1.
         13    1    6    6    0    0 -0.24580871879E+02 -0.53751449388E+01 -0.70986126634E+01  0.26143866340E+02  0.00000000000E+00 0. -1.
        -14    1    6    6    0    0  0.10615012334E+02  0.14403074610E+02 -0.14870130930E+03  0.14977385096E+03  0.00000000000E+00 0.  1.
</event>
<event>
12    1  0.8728348E-002  0.1972427E+03  0.7818608E-02  0.1152262E+00
         21   -1    0    0  501  502  0.00000000000E+00  0.00000000000E+00  0.94382905149E+02  0.94382905149E+02  0.00000000000E+00 0.  1.
         21   -1    0    0  502  503 -0.00000000000E+00 -0.00000000000E+00 -0.94963765243E+03  0.94963765243E+03  0.00000000000E+00 0. -1.
         -6    2    1    2    0  503  0.71904459978E+02 -0.62738625170E+02 -0.82133253795E+03  0.84468444719E+03  0.17262181489E+03 0.  0.
        -24    2    3    3    0    0  0.74072561793E+02 -0.21926619618E+02 -0.77365417563E+03  0.78171114573E+03  0.81018583289E+02 0.  0.
          6    2    1    2  501    0 -0.71904459978E+02  0.62738625170E+02 -0.33922209331E+02  0.19933611039E+03  0.17169094958E+03 0.  0.
         24    2    5    5    0    0 -0.10856817623E+02 -0.23558279991E+02  0.75873759671E+01  0.85673864463E+02  0.81299321848E+02 0.  0.
          5    1    5    5  501    0 -0.61047642355E+02  0.86296905161E+02 -0.41509585298E+02  0.11366224593E+03  0.47000000000E+01 0. -1.
        -13    1    6    6    0    0 -0.13986645385E+02  0.29005429688E+02  0.72889643879E+01  0.33016211206E+02  0.00000000000E+00 0.  1.
         14    1    6    6    0    0  0.31298277621E+01 -0.52563709679E+02  0.29841157928E+00  0.52657653257E+02  0.00000000000E+00 0. -1.
         -5    1    3    3    0  503 -0.21681018149E+01 -0.40812005552E+02 -0.47678362327E+02  0.62973301460E+02  0.47000000000E+01 0.  1.
         11    1    4    4    0    0  0.13808380444E+02 -0.35795663014E+02 -0.14385900415E+03  0.14888725243E+03  0.00000000000E+00 0. -1.
        -12    1    4    4    0    0  0.60264181349E+02  0.13869043396E+02 -0.62979517147E+03  0.63282389330E+03  0.00000000000E+00 0.  1.
</event>
<event>
12    1  0.8728348E-002  0.2876106E+03  0.7818608E-02  0.1091649E+00
         21   -1    0    0  503  502  0.00000000000E+00  0.00000000000E+00  0.48667591682E+02  0.48667591682E+02  0.00000000000E+00 0.  1.
         21   -1    0    0  501  503 -0.00000000000E+00 -0.00000000000E+00 -0.18232495657E+04  0.18232495657E+04  0.00000000000E+00 0. -1.
          6    2    1    2  501    0  0.10887357018E+03 -0.20289580408E+03 -0.11334700861E+04  0.11693905564E+04  0.17233593872E+03 0.  0.
         24    2    3    3    0    0 -0.13029999983E+02 -0.75509069862E+02 -0.47590403213E+03  0.48857996176E+03  0.79714055883E+02 0.  0.
         -6    2    1    2    0  502 -0.10887357018E+03  0.20289580408E+03 -0.64111188789E+03  0.70252660093E+03  0.17175276016E+03 0.  0.
        -24    2    5    5    0    0 -0.50621887239E+02  0.10250050801E+03 -0.50355039441E+03  0.52247736175E+03  0.79691054858E+02 0.  0.
          5    1    3    3  501    0  0.12190357016E+03 -0.12738673422E+03 -0.65756605398E+03  0.68081059468E+03  0.47000000000E+01 0. -1.
        -13    1    4    4    0    0 -0.18394001133E+01  0.13327905173E+02 -0.20946964001E+02  0.24895617083E+02  0.00000000000E+00 0.  1.
         14    1    4    4    0    0 -0.11190599870E+02 -0.88836975035E+02 -0.45495706813E+03  0.46368434468E+03  0.00000000000E+00 0. -1.
         -5    1    5    5    0  502 -0.58251682942E+02  0.10039529608E+03 -0.13756149348E+03  0.18004923918E+03  0.47000000000E+01 0.  1.
         13    1    6    6    0    0 -0.14828200797E+02 -0.97923599699E+01 -0.11751894203E+03  0.11885481727E+03  0.00000000000E+00 0. -1.
        -14    1    6    6    0    0 -0.35793686442E+02  0.11229286798E+03 -0.38603145239E+03  0.40362254449E+03  0.00000000000E+00 0.  1.
</event>
<event>
12    1  0.8728348E-002  0.2075204E+03  0.7818608E-02  0.1143714E+00
         21   -1    0    0  503  502  0.00000000000E+00  0.00000000000E+00  0.90795582160E+02  0.90795582160E+02  0.00000000000E+00 0.  1.
         21   -1    0    0  501  503 -0.00000000000E+00 -0.00000000000E+00 -0.49106374422E+03  0.49106374422E+03  0.00000000000E+00 0.  1.
          6    2    1    2  501    0  0.10200754217E+03  0.54711143445E+02 -0.25727164477E+03  0.33053504048E+03  0.17223781786E+03 0.  0.
         24    2    3    3    0    0  0.68611297459E+02  0.10267862257E+03 -0.16402203733E+03  0.22038165876E+03  0.80090181147E+02 0.  0.
         -6    2    1    2    0  502 -0.10200754217E+03 -0.54711143445E+02 -0.14299651729E+03  0.25132428591E+03  0.17122220899E+03 0.  0.
        -24    2    5    5    0    0 -0.32028570639E+02  0.34155175934E+02 -0.55802610147E+02  0.10842870648E+03  0.80314679290E+02 0.  0.
          5    1    3    3  501    0  0.33396244715E+02 -0.47967479127E+02 -0.93249607441E+02  0.11015338171E+03  0.47000000000E+01 0. -1.
        -11    1    4    4    0    0  0.47935114070E+02  0.44965565232E+02 -0.28497974339E+02  0.71636664906E+02  0.00000000000E+00 0.  1.
         12    1    4    4    0    0  0.20676183389E+02  0.57713057341E+02 -0.13552406299E+03  0.14874499386E+03  0.00000000000E+00 0. -1.
         -5    1    5    5    0  502 -0.69978971535E+02 -0.88866319379E+02 -0.87193907139E+02  0.14289557943E+03  0.47000000000E+01 0.  1.
         11    1    6    6    0    0  0.16904663273E+02  0.27863114480E+02 -0.48678550165E+02  0.58580901624E+02  0.00000000000E+00 0. -1.
        -12    1    6    6    0    0 -0.48933233911E+02  0.62920614541E+01 -0.71240599823E+01  0.49847804856E+02  0.00000000000E+00 0.  1.
</event>
<event>
12    1  0.8728348E-002  0.2422015E+03  0.7818608E-02  0.1119974E+00
         21   -1    0    0  503  502  0.00000000000E+00  0.00000000000E+00  0.65196672134E+02  0.65196672134E+02  0.00000000000E+00 0. -1.
         21   -1    0    0  501  503 -0.00000000000E+00 -0.00000000000E+00 -0.97623233168E+03  0.97623233168E+03  0.00000000000E+00 0.  1.
          6    2    1    2  501    0 -0.12428274379E+03 -0.10511840616E+03 -0.28721507133E+03  0.37570473510E+03  0.17934734750E+03 0.  0.
         24    2    3    3    0    0 -0.83348655658E+02 -0.11304489057E+02 -0.23239842729E+03  0.25949972196E+03  0.79096692829E+02 0.  0.
         -6    2    1    2    0  502  0.12428274379E+03  0.10511840616E+03 -0.62382058822E+03  0.66572426871E+03  0.16595359579E+03 0.  0.
        -24    2    5    5    0    0  0.61012741576E+01  0.73613110723E+02 -0.23770114504E+03  0.26066901593E+03  0.77397583286E+02 0.  0.
          5    1    3    3  501    0 -0.40934088133E+02 -0.93813917108E+02 -0.54816644034E+02  0.11620501313E+03  0.47000000000E+01 0. -1.
        -13    1    4    4    0    0 -0.67119181296E+02 -0.42958259598E+02 -0.15348489449E+03  0.17293932289E+03  0.00000000000E+00 0.  1.
         14    1    4    4    0    0 -0.16229474362E+02  0.31653770541E+02 -0.78913532808E+02  0.86560399073E+02  0.00000000000E+00 0. -1.
         -5    1    5    5    0  502  0.11818146963E+03  0.31505295442E+02 -0.38611944318E+03  0.40505525278E+03  0.47000000000E+01 0.  1.
         11    1    6    6    0    0  0.73960253949E+01  0.69575066560E+02 -0.95412005669E+02  0.11831670171E+03  0.00000000000E+00 0. -1.
        -12    1    6    6    0    0 -0.12947512373E+01  0.40380441628E+01 -0.14228913937E+03  0.14235231422E+03  0.00000000000E+00 0.  1.
</event>
<event>
12    1  0.8728348E-002  0.1967448E+03  0.7818608E-02  0.1152734E+00
         21   -1    0    0  501  502  0.00000000000E+00  0.00000000000E+00  0.67010905850E+03  0.67010905850E+03  0.00000000000E+00 0.  1.
         21   -1    0    0  502  503 -0.00000000000E+00 -0.00000000000E+00 -0.12858462173E+03  0.12858462173E+03  0.00000000000E+00 0.  1.
         -6    2    1    2    0  503  0.74714755672E+02  0.59888961700E+02 -0.26541979091E+02  0.19752151304E+03  0.17070819843E+03 0.  0.
        -24    2    3    3    0    0  0.40813920934E+02 -0.29650501084E+02 -0.33880635043E+02  0.10138344638E+03  0.81152802857E+02 0.  0.
          6    2    1    2  501    0 -0.74714755672E+02 -0.59888961700E+02  0.56806641586E+03  0.60117216719E+03  0.17187070526E+03 0.  0.
         24    2    5    5    0    0 -0.68494802196E+01  0.15386329237E+02  0.36752824056E+03  0.37642850256E+03  0.79610020875E+02 0.  0.
          5    1    5    5  501    0 -0.67865275453E+02 -0.75275290937E+02  0.20053817530E+03  0.22474366463E+03  0.47000000000E+01 0. -1.
        -11    1    6    6    0    0 -0.16337402335E+02  0.20729941378E+02  0.36403806516E+03  0.36499363566E+03  0.00000000000E+00 0.  1.
         12    1    6    6    0    0  0.94879221153E+01 -0.53436121406E+01  0.34901754006E+01  0.11434866904E+02  0.00000000000E+00 0. -1.
         -5    1    3    3    0  503  0.33900834739E+02  0.89539462784E+02  0.73386559524E+01  0.96138066669E+02  0.47000000000E+01 0.  1.
         13    1    4    4    0    0 -0.19564899002E+02 -0.18875490730E+02  0.64988289583E+01  0.27951819280E+02  0.00000000000E+00 0. -1.
        -14    1    4    4    0    0  0.60378819935E+02 -0.10775010354E+02 -0.40379464002E+02  0.73431627096E+02  0.00000000000E+00 0.  1.
</event>
<event>
12    1  0.8728348E-002  0.1791044E+03  0.7818608E-02  0.1170687E+00
         21   -1    0    0  501  502  0.00000000000E+00  0.00000000000E+00  0.10886769194E+04  0.10886769194E+04  0.00000000000E+00 0.  1.
         21   -1    0    0  502  503 -0.00000000000E+00 -0.00000000000E+00 -0.29372647177E+02  0.29372647177E+02  0.00000000000E+00 0.  1.
         -6    2    1    2    0  503  0.59653821892E+01  0.47486091101E+02  0.40407650087E+03  0.43878393117E+03  0.16420415666E+03 0.  0.
        -24    2    3    3    0    0  0.18662536622E+01 -0.33687918022E+02  0.16694154064E+03  0.18806276737E+03  0.79748152061E+02 0.  0.
          6    2    1    2  501    0 -0.59653821892E+01 -0.47486091101E+02  0.65522777131E+03  0.67926563537E+03  0.17259158861E+03 0.  0.
         24    2    5    5    0    0 -0.41731723866E+02 -0.64423650646E+02  0.60863895514E+03  0.61795723535E+03  0.74416553738E+02 0.  0.
          5    1    5    5  501    0  0.35766341677E+02  0.16937559545E+02  0.46588816177E+02  0.61308400021E+02  0.47000000000E+01 0. -1.
        -11    1    6    6    0    0  0.55226708292E+01 -0.30228113767E+02  0.73725743995E+02  0.79873174987E+02  0.00000000000E+00 0.  1.
         12    1    6    6    0    0 -0.47254394696E+02 -0.34195536879E+02  0.53491321114E+03  0.53808406036E+03  0.00000000000E+00 0. -1.
         -5    1    3    3    0  503  0.40991285270E+01  0.81174009123E+02  0.23713496024E+03  0.25072116380E+03  0.47000000000E+01 0.  1.
         13    1    4    4    0    0  0.13048680888E+02 -0.33533706780E+01 -0.40290759804E+01  0.14062240969E+02  0.00000000000E+00 0. -1.
        -14    1    4    4    0    0 -0.11182427226E+02 -0.30334547344E+02  0.17097061662E+03  0.17400052640E+03  0.00000000000E+00 0.  1.
</event>
<event>
12    1  0.8728348E-002  0.1852783E+03  0.7818608E-02  0.1163222E+00
         21   -1    0    0  501  502  0.00000000000E+00  0.00000000000E+00  0.20940847965E+03  0.20940847965E+03  0.00000000000E+00 0. -1.
         21   -1    0    0  502  503 -0.00000000000E+00 -0.00000000000E+00 -0.26359423035E+03  0.26359423035E+03  0.00000000000E+00 0. -1.
         -6    2    1    2    0  503 -0.49481746014E+02 -0.36088580374E+02 -0.17361459823E+03  0.25256837351E+03  0.17291016672E+03 0.  0.
        -24    2    3    3    0    0 -0.59667259233E+02  0.30860646597E+02 -0.13579017819E+03  0.17485916928E+03  0.87316637893E+02 0.  0.
          6    2    1    2  501    0  0.49481746014E+02  0.36088580374E+02  0.11942884752E+03  0.22043433649E+03  0.17486342746E+03 0.  0.
         24    2    5    5    0    0  0.65213527716E+02 -0.32565042760E+02  0.45103419650E+02  0.11792985779E+03  0.80992880477E+02 0.  0.
          5    1    5    5  501    0 -0.15731781702E+02  0.68653623133E+02  0.74325427872E+02  0.10250447870E+03  0.47000000000E+01 0. -1.
        -13    1    6    6    0    0  0.44050617835E+02 -0.46140639504E+02 -0.27737421722E+01  0.63852244997E+02  0.00000000000E+00 0.  1.
         14    1    6    6    0    0  0.21162909882E+02  0.13575596745E+02  0.47877161823E+02  0.54077612797E+02  0.00000000000E+00 0. -1.
         -5    1    3    3    0  503  0.10185513219E+02 -0.66949226971E+02 -0.37824420035E+02  0.77709204233E+02  0.47000000000E+01 0.  1.
         11    1    4    4    0    0 -0.23208129789E+02 -0.25949444231E+02 -0.80137215394E+02  0.87372559968E+02  0.00000000000E+00 0. -1.
        -12    1    4    4    0    0 -0.36459129444E+02  0.56810090829E+02 -0.55652962801E+02  0.87486609308E+02  0.00000000000E+00 0.  1.
</event>
<event>
12    1  0.8728348E-002  0.1748182E+03  0.7818608E-02  0.1172975E+00
         21   -1    0    0  503  502  0.00000000000E+00  0.00000000000E+00  0.40672219965E+03  0.40672219965E+03  0.00000000000E+00 0. -1.
         21   -1    0    0  501  503 -0.00000000000E+00 -0.00000000000E+00 -0.85317646219E+02  0.85317646219E+02  0.00000000000E+00 0. -1.
          6    2    1    2  501    0  0.27417638147E+02 -0.16060423336E+02  0.75207950510E+02  0.19008924530E+03  0.17166252147E+03 0.  0.
         24    2    3    3    0    0 -0.33436079990E+02  0.34445998147E+02  0.26077717409E+02  0.96869379246E+02  0.79994568920E+02 0.  0.
         -6    2    1    2    0  502 -0.27417638147E+02  0.16060423336E+02  0.24619660292E+03  0.30195060057E+03  0.17190617736E+03 0.  0.
        -24    2    5    5    0    0 -0.50671274984E+02  0.67596490854E+02  0.15299643214E+03  0.19284029072E+03  0.81502182758E+02 0.  0.
          5    1    3    3  501    0  0.60853718137E+02 -0.50506421483E+02  0.49130233101E+02  0.93219866052E+02  0.47000000000E+01 0. -1.
        -13    1    4    4    0    0  0.18732527026E+02  0.35980590906E+02  0.16572987479E+02  0.43819794667E+02  0.00000000000E+00 0.  1.
         14    1    4    4    0    0 -0.52168607016E+02 -0.15345927591E+01  0.95047299298E+01  0.53049584578E+02  0.00000000000E+00 0. -1.
         -5    1    5    5    0  502  0.23253636837E+02 -0.51536067518E+02  0.93200170781E+02  0.10911030985E+03  0.47000000000E+01 0.  1.
         11    1    6    6    0    0 -0.11426017587E+02 -0.20068084084E+01  0.90916620943E+02  0.91653767635E+02  0.00000000000E+00 0. -1.
        -12    1    6    6    0    0 -0.39245257397E+02  0.69603299262E+02  0.62079811194E+02  0.10118652309E+03  0.00000000000E+00 0.  1.
</event>
<event>
12    1  0.8728348E-002  0.2428614E+03  0.7818608E-02  0.1117958E+00
         21   -1    0    0  503  502  0.00000000000E+00  0.00000000000E+00  0.14830935547E+03  0.14830935547E+03  0.00000000000E+00 0.  1.
         21   -1    0    0  501  503 -0.00000000000E+00 -0.00000000000E+00 -0.40413699143E+03  0.40413699143E+03  0.00000000000E+00 0.  1.
          6    2    1    2  501    0  0.10992658099E+01  0.17147196005E+03 -0.16438937862E+03  0.29326701689E+03  0.17198207443E+03 0.  0.
         24    2    3    3    0    0  0.59993419703E+02  0.60750831135E+02 -0.90205594926E+02  0.14748288362E+03  0.79525327501E+02 0.  0.
         -6    2    1    2    0  502 -0.10992658099E+01 -0.17147196005E+03 -0.91438257341E+02  0.25917933001E+03  0.17149089984E+03 0.  0.
        -24    2    5    5    0    0  0.50797058011E+01 -0.12514944118E+03 -0.12909335026E+03  0.19898006533E+03  0.85086939533E+02 0.  0.
          5    1    3    3  501    0 -0.58894153893E+02  0.11072112891E+03 -0.74183783699E+02  0.14578413327E+03  0.47000000000E+01 0. -1.
        -13    1    4    4    0    0  0.29422114655E+02  0.74104424022E+02 -0.79127386789E+02  0.11233107242E+03  0.00000000000E+00 0.  1.
         14    1    4    4    0    0  0.30571305048E+02 -0.13353592888E+02 -0.11078208137E+02  0.35151811204E+02  0.00000000000E+00 0. -1.
         -5    1    5    5    0  502 -0.61789716111E+01 -0.46322518868E+02  0.37655092921E+02  0.60199264675E+02  0.47000000000E+01 0.  1.
         13    1    6    6    0    0  0.28867859828E+02 -0.61405855098E+01 -0.32227107264E+02  0.43699503019E+02  0.00000000000E+00 0. -1.
        -14    1    6    6    0    0 -0.23788154027E+02 -0.11900885567E+03 -0.96866242998E+02  0.15528056231E+03  0.00000000000E+00 0.  1.
</event>
<event>
12    1  0.8728348E-002  0.2363571E+03  0.7818608E-02  0.1123392E+00
         21   -1    0    0  503  502  0.00000000000E+00  0.00000000000E+00  0.17384869316E+04  0.17384869316E+04  0.00000000000E+00 0. -1.
         21   -1    0    0  501  503 -0.00000000000E+00 -0.00000000000E+00 -0.20548629639E+03  0.20548629639E+03  0.00000000000E+00 0.  1.
          6    2    1    2  501    0  0.20098439668E+02 -0.16252391637E+03 -0.13021805420E+03  0.26404433377E+03  0.16107357911E+03 0.  0.
         24    2    3    3    0    0 -0.35240625332E+01 -0.17388624695E+03 -0.14001453621E+03  0.23566853024E+03  0.75410476050E+02 0.  0.
         -6    2    1    2    0  502 -0.20098439668E+02  0.16252391637E+03  0.16632186894E+04  0.16799288942E+04  0.17043095422E+03 0.  0.
        -24    2    5    5    0    0 -0.34501088659E+02  0.60933134517E+02  0.12382563780E+04  0.12427296497E+04  0.78708021684E+02 0.  0.
          5    1    3    3  501    0  0.23622502201E+02  0.11362330583E+02  0.97964820093E+01  0.28375803535E+02  0.47000000000E+01 0. -1.
        -11    1    4    4    0    0 -0.36529378678E+02 -0.53825372664E+02 -0.48481856714E+02  0.81129875382E+02  0.00000000000E+00 0.  1.
         12    1    4    4    0    0  0.33005316145E+02 -0.12006087429E+03 -0.91532679495E+02  0.15453865486E+03  0.00000000000E+00 0. -1.
         -5    1    5    5    0  502  0.14402648992E+02  0.10159078186E+03  0.42496231140E+03  0.43719924447E+03  0.47000000000E+01 0.  1.
         11    1    6    6    0    0 -0.46685719980E+02  0.68588362760E+02  0.81143886390E+03  0.81566963276E+03  0.00000000000E+00 0. -1.
        -12    1    6    6    0    0  0.12184631321E+02 -0.76552282433E+01  0.42681751407E+03  0.42706001695E+03  0.00000000000E+00 0.  1.
</event>
<event>
12    1  0.8728348E-002  0.2200602E+03  0.7818608E-02  0.1134040E+00
         21   -1    0    0  503  502  0.00000000000E+00  0.00000000000E+00  0.37271694064E+02  0.37271694064E+02  0.00000000000E+00 0.  1.
         21   -1    0    0  501  503 -0.00000000000E+00 -0.00000000000E+00 -0.13746188273E+04  0.13746188273E+04  0.00000000000E+00 0.  1.
          6    2    1    2  501    0  0.95259616030E+02  0.99734013010E+02 -0.83923424655E+03  0.86733294201E+03  0.17009128113E+03 0.  0.
         24    2    3    3    0    0  0.12168774812E+03  0.78982148177E+02 -0.79282217395E+03  0.80984158142E+03  0.78932247577E+02 0.  0.
         -6    2    1    2    0  502 -0.95259616030E+02 -0.99734013010E+02 -0.49811288667E+03  0.54455757934E+03  0.17147956598E+03 0.  0.
        -24    2    5    5    0    0 -0.77382033329E+02 -0.13955663287E+03 -0.41393146203E+03  0.44961522172E+03  0.73147518623E+02 0.  0.
          5    1    3    3  501    0 -0.26428132093E+02  0.20751864833E+02 -0.46412072597E+02  0.57491360592E+02  0.47000000000E+01 0. -1.
        -13    1    4    4    0    0  0.92393049133E+02  0.88083765985E+02 -0.52629340206E+03  0.54155329416E+03  0.00000000000E+00 0.  1.
         14    1    4    4    0    0  0.29294698991E+02 -0.91016178079E+01 -0.26652877189E+03  0.26828828726E+03  0.00000000000E+00 0. -1.
         -5    1    5    5    0  502 -0.17877582702E+02  0.39822619863E+02 -0.84181424638E+02  0.94942357618E+02  0.47000000000E+01 0.  1.
         11    1    6    6    0    0 -0.46136085264E+00 -0.63679769505E+01 -0.98266416324E+02  0.98473613529E+02  0.00000000000E+00 0. -1.
        -12    1    6    6    0    0 -0.76920672476E+02 -0.13318865592E+03 -0.31566504571E+03  0.35114160819E+03  0.00000000000E+00 0.  1.
</event>
<event>
12    1  0.8728348E-002  0.2048454E+03  0.7818608E-02  0.1146348E+00
         21   -1    0    0  503  502  0.00000000000E+00  0.00000000000E+00  0.85865989550E+02  0.85865989550E+02  0.00000000000E+00 0.  1.
         21   -1    0    0  501  503 -0.00000000000E+00 -0.00000000000E+00 -0.10208399059E+04  0.10208399059E+04  0.00000000000E+00 0.  1.
          6    2    1    2  501    0 -0.10264462584E+03 -0.46613985069E+02 -0.87140580066E+03  0.89515904605E+03  0.17103469087E+03 0.  0.
         24    2    3    3    0    0 -0.11994573358E+03 -0.80989750212E+02 -0.70508408043E+03  0.72437840844E+03  0.81450595498E+02 0.  0.
         -6    2    1    2    0  502  0.10264462584E+03  0.46613985069E+02 -0.63568115701E+02  0.21154684941E+03  0.16733912079E+03 0.  0.
        -24    2    5    5    0    0 -0.36894977708E+01  0.37707783400E+01 -0.45527006501E+00  0.80597212183E+02  0.80423082369E+02 0.  0.
          5    1    3    3  501    0  0.17301107747E+02  0.34375765142E+02 -0.16632172024E+03  0.17078063761E+03  0.47000000000E+01 0. -1.
        -11    1    4    4    0    0 -0.11162903525E+02 -0.17017523895E+02 -0.28555466778E+03  0.28627901569E+03  0.00000000000E+00 0.  1.
         12    1    4    4    0    0 -0.10878283006E+03 -0.63972226317E+02 -0.41952941264E+03  0.43809939275E+03  0.00000000000E+00 0. -1.
         -5    1    5    5    0  502  0.10633412361E+03  0.42843206729E+02 -0.63112845636E+02  0.13094963723E+03  0.47000000000E+01 0.  1.
         13    1    6    6    0    0  0.66287186702E+01  0.21954891561E+02 -0.34034943228E+02  0.41040644917E+02  0.00000000000E+00 0. -1.
        -14    1    6    6    0    0 -0.10318216441E+02 -0.18184113221E+02  0.33579673163E+02  0.39556567266E+02  0.00000000000E+00 0.  1.
</event>
<event>
12    1  0.8728348E-002  0.2055383E+03  0.7818608E-02  0.1145164E+00
         21   -1    0    0  503  502  0.00000000000E+00  0.00000000000E+00  0.16075042384E+03  0.16075042384E+03  0.00000000000E+00 0.  1.
         21   -1    0    0  501  503 -0.00000000000E+00 -0.00000000000E+00 -0.28518824559E+03  0.28518824559E+03  0.00000000000E+00 0.  1.
          6    2    1    2  501    0 -0.11222251446E+03  0.15570965895E+00 -0.12483254890E+03  0.24047690342E+03  0.17219773175E+03 0.  0.
         24    2    3    3    0    0  0.10842408717E+02  0.14893591565E+02 -0.48844852345E+02  0.95017629031E+02  0.79392400956E+02 0.  0.
         -6    2    1    2    0  502  0.11222251446E+03 -0.15570965895E+00  0.39472714708E+00  0.20546176601E+03  0.17210596877E+03 0.  0.
        -24    2    5    5    0    0  0.44104692848E+02 -0.42963595428E+01 -0.63618004217E+02  0.11177664244E+03  0.80517604889E+02 0.  0.
          5    1    3    3  501    0 -0.12306492317E+03 -0.14737881907E+02 -0.75987696554E+02  0.14545927439E+03  0.47000000000E+01 0. -1.
        -13    1    4    4    0    0 -0.32538840830E+02  0.14049265403E+02 -0.10115881640E+02  0.36857686882E+02  0.00000000000E+00 0.  1.
         14    1    4    4    0    0  0.43381249547E+02  0.84432616251E+00 -0.38728970705E+02  0.58159942149E+02  0.00000000000E+00 0. -1.
         -5    1    5    5    0  502  0.68117821607E+02  0.41406498839E+01  0.64012731364E+02  0.93685123572E+02  0.47000000000E+01 0.  1.
         11    1    6    6    0    0 -0.92297840525E+01  0.26828198681E+02 -0.30686755985E+02  0.41792560953E+02  0.00000000000E+00 0. -1.
        -12    1    6    6    0    0  0.53334476901E+02 -0.31124558223E+02 -0.32931248232E+02  0.69984081483E+02  0.00000000000E+00 0.  1.
</event>
<event>
12    1  0.8728348E-002  0.3116733E+03  0.7818608E-02  0.1079564E+00
         21   -1    0    0  503  502  0.00000000000E+00  0.00000000000E+00  0.14207851586E+03  0.14207851586E+03  0.00000000000E+00 0.  1.
         21   -1    0    0  501  503 -0.00000000000E+00 -0.00000000000E+00 -0.15102202867E+04  0.15102202867E+04  0.00000000000E+00 0. -1.
          6    2    1    2  501    0 -0.71242404255E+02 -0.24911892570E+03 -0.72854543184E+02  0.32007506062E+03  0.17321818802E+03 0.  0.
         24    2    3    3    0    0 -0.11400265508E+03 -0.15963317122E+03 -0.43386377237E+02  0.21650574996E+03  0.80703205127E+02 0.  0.
         -6    2    1    2    0  502  0.71242404255E+02  0.24911892570E+03 -0.12952872277E+04  0.13322237419E+04  0.17296062320E+03 0.  0.
        -24    2    5    5    0    0  0.90417719954E+02  0.10912577396E+03 -0.56123828621E+03  0.58468396796E+03  0.82359758681E+02 0.  0.
          5    1    3    3  501    0  0.42760250823E+02 -0.89485754481E+02 -0.29468165947E+02  0.10356931066E+03  0.47000000000E+01 0. -1.
        -11    1    4    4    0    0 -0.17220088857E+02 -0.65972572663E+02  0.14835500329E+02  0.69778247857E+02  0.00000000000E+00 0.  1.
         12    1    4    4    0    0 -0.96782566221E+02 -0.93660598559E+02 -0.58221877566E+02  0.14672750211E+03  0.00000000000E+00 0. -1.
         -5    1    5    5    0  502 -0.19175315698E+02  0.13999315174E+03 -0.73404894144E+03  0.74753977399E+03  0.47000000000E+01 0.  1.
         11    1    6    6    0    0  0.14208340145E+02  0.55396234219E+02 -0.33720656563E+03  0.34202176480E+03  0.00000000000E+00 0. -1.
        -12    1    6    6    0    0  0.76209379809E+02  0.53729539743E+02 -0.22403172058E+03  0.24266220315E+03  0.00000000000E+00 0.  1.
</event>
<event>
12    1  0.8728348E-002  0.2087498E+03  0.7818608E-02  0.1142760E+00
         21   -1    0    0  501  502  0.00000000000E+00  0.00000000000E+00  0.41902452870E+03  0.41902452870E+03  0.00000000000E+00 0. -1.
         21   -1    0    0  502  503 -0.00000000000E+00 -0.00000000000E+00 -0.11616559940E+03  0.11616559940E+03  0.00000000000E+00 0. -1.
         -6    2    1    2    0  503 -0.51861033177E+02 -0.10473155884E+03  0.62739606774E+02  0.21701759135E+03  0.17176178422E+03 0.  0.
        -24    2    3    3    0    0 -0.70187297640E+01 -0.14488766861E+02 -0.24013626537E+02  0.83965694826E+02  0.78831444966E+02 0.  0.
          6    2    1    2  501    0  0.51861033177E+02  0.10473155884E+03  0.24011932252E+03  0.31817253674E+03  0.17296880618E+03 0.  0.
         24    2    5    5    0    0 -0.14237469704E+02  0.11426171969E+03  0.14026831361E+03  0.19795544133E+03  0.79074084376E+02 0.  0.
          5    1    5    5  501    0  0.66098502881E+02 -0.95301608472E+01  0.99851008909E+02  0.12021709541E+03  0.47000000000E+01 0. -1.
        -11    1    6    6    0    0 -0.49295913040E+01  0.51191498402E+02  0.92559168333E+01  0.52254591908E+02  0.00000000000E+00 0.  1.
         12    1    6    6    0    0 -0.93078784004E+01  0.63070221287E+02  0.13101239678E+03  0.14570084942E+03  0.00000000000E+00 0. -1.
         -5    1    3    3    0  503 -0.44842303412E+02 -0.90242791981E+02  0.86753233312E+02  0.13305189653E+03  0.47000000000E+01 0.  1.
         13    1    4    4    0    0 -0.13769458349E+02 -0.40766488290E+02 -0.34221079993E+02  0.54978058047E+02  0.00000000000E+00 0. -1.
        -14    1    4    4    0    0  0.67507285854E+01  0.26277721430E+02  0.10207453455E+02  0.28987636779E+02  0.00000000000E+00 0.  1.
</event>
<event>
12    1  0.8728348E-002  0.2303336E+03  0.7818608E-02  0.1126442E+00
         21   -1    0    0  503  502  0.00000000000E+00  0.00000000000E+00  0.56127887594E+03  0.56127887594E+03  0.00000000000E+00 0.  1.
         21   -1    0    0  501  503 -0.00000000000E+00 -0.00000000000E+00 -0.12728412471E+03  0.12728412471E+03  0.00000000000E+00 0. -1.
          6    2    1    2  501    0 -0.10655756753E+03 -0.11017862398E+03  0.42173968391E+02  0.23416274007E+03  0.17192934842E+03 0.  0.
         24    2    3    3    0    0 -0.96891615846E+02 -0.93148164111E+02  0.91622875735E+02  0.18077030968E+03  0.78858023093E+02 0.  0.
         -6    2    1    2    0  502  0.10655756753E+03  0.11017862398E+03  0.39182078283E+03  0.45440026058E+03  0.17164564247E+03 0.  0.
        -24    2    5    5    0    0  0.40325454760E+02 -0.12026981272E+02  0.11588549629E+03  0.14539657925E+03  0.77070918170E+02 0.  0.
          5    1    3    3  501    0 -0.96659516817E+01 -0.17030459870E+02 -0.49448907344E+02  0.53392430388E+02  0.47000000000E+01 0. -1.
        -11    1    4    4    0    0 -0.92255959696E+02 -0.59807718817E+02  0.97077242916E+02  0.14667009382E+03  0.00000000000E+00 0.  1.
         12    1    4    4    0    0 -0.46356561493E+01 -0.33340445294E+02 -0.54543671813E+01  0.34100215860E+02  0.00000000000E+00 0. -1.
         -5    1    5    5    0  502  0.66232112767E+02  0.12220560525E+03  0.27593528654E+03  0.30900368133E+03  0.47000000000E+01 0.  1.
         13    1    6    6    0    0  0.45355256991E+02  0.23828655787E+02  0.74386496610E+02  0.90323059355E+02  0.00000000000E+00 0. -1.
        -14    1    6    6    0    0 -0.50298022307E+01 -0.35855637059E+02  0.41498999680E+02  0.55073519897E+02  0.00000000000E+00 0.  1.
</event>
<event>
12    1  0.8728348E-002  0.2157371E+03  0.7818608E-02  0.1137332E+00
         21   -1    0    0  503  502  0.00000000000E+00  0.00000000000E+00  0.28023819518E+03  0.28023819518E+03  0.00000000000E+00 0. -1.
         21   -1    0    0  501  503 -0.00000000000E+00 -0.00000000000E+00 -0.16680917055E+03  0.16680917055E+03  0.00000000000E+00 0. -1.
          6    2    1    2  501    0  0.86645824736E+02 -0.97245627812E+02  0.34634678073E+02  0.21849956978E+03  0.17198340035E+03 0.  0.
         24    2    3    3    0    0 -0.19778520747E+02 -0.48770602474E+02  0.36481075275E+02  0.10144629740E+03  0.78681134041E+02 0.  0.
         -6    2    1    2    0  502 -0.86645824736E+02  0.97245627812E+02  0.78794346558E+02  0.22854779594E+03  0.17047385403E+03 0.  0.
        -24    2    5    5    0    0 -0.81882368569E+02  0.12380344366E+03  0.98005838409E+02  0.19509365544E+03  0.80152199518E+02 0.  0.
          5    1    3    3  501    0  0.10642434548E+03 -0.48475025338E+02 -0.18463972024E+01  0.11705327238E+03  0.47000000000E+01 0. -1.
        -11    1    4    4    0    0 -0.82488838349E+01 -0.70001969694E+02  0.27914800112E+02  0.75812636881E+02  0.00000000000E+00 0.  1.
         12    1    4    4    0    0 -0.11529636912E+02  0.21231367220E+02  0.85662751634E+01  0.25633660517E+02  0.00000000000E+00 0. -1.
         -5    1    5    5    0  502 -0.47634561665E+01 -0.26557815850E+02 -0.19211491851E+02  0.33454140499E+02  0.47000000000E+01 0.  1.
         11    1    6    6    0    0 -0.56713069246E+02  0.50887258784E+02  0.80913622326E+01  0.76624770620E+02  0.00000000000E+00 0. -1.
        -12    1    6    6    0    0 -0.25169299323E+02  0.72916184878E+02  0.89914476176E+02  0.11846888482E+03  0.00000000000E+00 0.  1.
</event>
<event>
12    1  0.8728348E-002  0.2014468E+03  0.7818608E-02  0.1148888E+00
         21   -1    0    0  501  502  0.00000000000E+00  0.00000000000E+00  0.14491191719E+02  0.14491191719E+02  0.00000000000E+00 0.  1.
         21   -1    0    0  502  503 -0.00000000000E+00 -0.00000000000E+00 -0.33884086704E+04  0.33884086704E+04  0.00000000000E+00 0. -1.
         -6    2    1    2    0  503 -0.99788985121E+02  0.25586953532E+02 -0.24041287110E+04  0.24124095356E+04  0.17109171465E+03 0.  0.
        -24    2    3    3    0    0 -0.60797296507E+02  0.76029859715E+01 -0.22521007295E+04  0.22543640611E+04  0.80283917352E+02 0.  0.
          6    2    1    2  501    0  0.99788985121E+02 -0.25586953532E+02 -0.96978876765E+03  0.99049032646E+03  0.17311354423E+03 0.  0.
         24    2    5    5    0    0  0.55629734454E+02  0.49500278520E+02 -0.46296994081E+03  0.47621846734E+03  0.83053703190E+02 0.  0.
          5    1    5    5  501    0  0.44159250667E+02 -0.75087232051E+02 -0.50681882684E+03  0.51427185911E+03  0.47000000000E+01 0. -1.
        -11    1    6    6    0    0 -0.79384352819E-01 -0.20049108463E+02 -0.52752355002E+02  0.56433890618E+02  0.00000000000E+00 0.  1.
         12    1    6    6    0    0  0.55709118807E+02  0.69549386983E+02 -0.41021758581E+03  0.41978457672E+03  0.00000000000E+00 0. -1.
         -5    1    3    3    0  503 -0.38991688614E+02  0.17983967560E+02 -0.15202798150E+03  0.15804547456E+03  0.47000000000E+01 0.  1.
         11    1    4    4    0    0 -0.65565032210E+02 -0.22630643349E+02 -0.14058247369E+04  0.14075347635E+04  0.00000000000E+00 0. -1.
        -12    1    4    4    0    0  0.47677357033E+01  0.30233629320E+02 -0.84627599256E+03  0.84682929758E+03  0.00000000000E+00 0.  1.
</event>
<event>
12    1  0.8728348E-002  0.2066475E+03  0.7818608E-02  0.1144366E+00
         21   -1    0    0  501  502  0.00000000000E+00  0.00000000000E+00  0.12735324986E+04  0.12735324986E+04  0.00000000000E+00 0. -1.
         21   -1    0    0  502  503 -0.00000000000E+00 -0.00000000000E+00 -0.38874740309E+02  0.38874740309E+02  0.00000000000E+00 0. -1.
         -6    2    1    2    0  503  0.82455828408E+02 -0.79938916444E+02  0.37266291234E+03  0.42612301808E+03  0.17179635125E+03 0.  0.
        -24    2    3    3    0    0 -0.21220510461E+02 -0.38672332615E+02  0.12400155080E+03  0.15353124104E+03  0.79054399007E+02 0.  0.
          6    2    1    2  501    0 -0.82455828408E+02  0.79938916444E+02  0.86199484600E+03  0.88628422088E+03  0.17110058927E+03 0.  0.
         24    2    5    5    0    0 -0.75336706214E+02  0.11943830489E+03  0.61134450417E+03  0.63239730225E+03  0.79013398504E+02 0.  0.
          5    1    5    5  501    0 -0.71191221931E+01 -0.39499388449E+02  0.25065034183E+03  0.25388691862E+03  0.47000000000E+01 0. -1.
        -11    1    6    6    0    0 -0.18124905932E+02 -0.83688582704E+01  0.49688270099E+02  0.53548801940E+02  0.00000000000E+00 0.  1.
         12    1    6    6    0    0 -0.57211800282E+02  0.12780716316E+03  0.56165623407E+03  0.57884850031E+03  0.00000000000E+00 0. -1.
         -5    1    3    3    0  503  0.10367633887E+03 -0.41266583829E+02  0.24866136154E+03  0.27259177703E+03  0.47000000000E+01 0.  1.
         11    1    4    4    0    0  0.13339991213E+01 -0.22458712109E+02 -0.37377425976E+01  0.22806666196E+02  0.00000000000E+00 0. -1.
        -12    1    4    4    0    0 -0.22554509583E+02 -0.16213620506E+02  0.12773929339E+03  0.13072457485E+03  0.00000000000E+00 0.  1.
</event>
<event>
12    1  0.8728348E-002  0.2034204E+03  0.7818608E-02  0.1148827E+00
         21   -1    0    0  503  502  0.00000000000E+00  0.00000000000E+00  0.88211254280E+03  0.88211254280E+03  0.00000000000E+00 0. -1.
         21   -1    0    0  501  503 -0.00000000000E+00 -0.00000000000E+00 -0.64806461960E+02  0.64806461960E+02  0.00000000000E+00 0. -1.
          6    2    1    2  501    0 -0.85470315934E+02  0.41314986889E+02  0.13921957507E+03  0.23897749744E+03  0.16945811032E+03 0.  0.
         24    2    3    3    0    0 -0.89628708684E+02  0.66678809238E+02  0.15598493039E+03  0.20793264516E+03  0.80158077512E+02 0.  0.
         -6    2    1    2    0  502  0.85470315934E+02 -0.41314986889E+02  0.67808650577E+03  0.70794150732E+03  0.17991043727E+03 0.  0.
        -24    2    5    5    0    0  0.10215377256E+03 -0.72121141359E+01  0.30874649599E+03  0.33662563575E+03  0.86631472469E+02 0.  0.
          5    1    3    3  501    0  0.41583927492E+01 -0.25363822349E+02 -0.16765355319E+02  0.31044852284E+02  0.47000000000E+01 0. -1.
        -11    1    4    4    0    0  0.39076333948E+01 -0.13648134145E+02  0.15653188776E+02  0.21132048723E+02  0.00000000000E+00 0.  1.
         12    1    4    4    0    0 -0.93536342078E+02  0.80326943383E+02  0.14033174162E+03  0.18680059643E+03  0.00000000000E+00 0. -1.
         -5    1    5    5    0  502 -0.16683456627E+02 -0.34102872753E+02  0.36934000978E+03  0.37131587157E+03  0.47000000000E+01 0.  1.
         11    1    6    6    0    0  0.39597763934E+02 -0.17943507979E+02  0.23648612002E+03  0.24044882481E+03  0.00000000000E+00 0. -1.
        -12    1    6    6    0    0  0.62556008627E+02  0.10731393844E+02  0.72260375965E+02  0.96176810946E+02  0.00000000000E+00 0.  1.
</event>
<event>
12    1  0.8728348E-002  0.2117023E+03  0.7818608E-02  0.1141056E+00
         21   -1    0    0  503  502  0.00000000000E+00  0.00000000000E+00  0.74333453946E+03  0.74333453946E+03  0.00000000000E+00 0.  1.
         21   -1    0    0  501  503 -0.00000000000E+00 -0.00000000000E+00 -0.64808013444E+02  0.64808013444E+02  0.00000000000E+00 0. -1.
          6    2    1    2  501    0  0.10614000138E+02 -0.11999297473E+03  0.22248914802E+03  0.30711442495E+03  0.17408870739E+03 0.  0.
         24    2    3    3    0    0 -0.17848408351E+02 -0.14407670874E+03  0.14303688005E+03  0.21922308393E+03  0.80762291882E+02 0.  0.
         -6    2    1    2    0  502 -0.10614000138E+02  0.11999297473E+03  0.45603737800E+03  0.50102812796E+03  0.16896190072E+03 0.  0.
        -24    2    5    5    0    0 -0.19762025083E+02 -0.61442520802E+01  0.19393946938E+03  0.20997540069E+03  0.77774427958E+02 0.  0.
          5    1    3    3  501    0  0.28462408489E+02  0.24083734008E+02  0.79452267966E+02  0.87891341017E+02  0.47000000000E+01 0. -1.
        -11    1    4    4    0    0  0.30912788524E+02 -0.74613903410E+02  0.61286043313E+02  0.10138448689E+03  0.00000000000E+00 0.  1.
         12    1    4    4    0    0 -0.48761196876E+02 -0.69462805328E+02  0.81750836740E+02  0.11783859704E+03  0.00000000000E+00 0. -1.
         -5    1    5    5    0  502  0.91480249453E+01  0.12613722681E+03  0.26209790862E+03  0.29105272727E+03  0.47000000000E+01 0.  1.
         13    1    6    6    0    0  0.29472306631E+02 -0.37892981341E+01  0.54407069622E+02  0.61992780735E+02  0.00000000000E+00 0. -1.
        -14    1    6    6    0    0 -0.49234331714E+02 -0.23549539461E+01  0.13953239975E+03  0.14798261996E+03  0.00000000000E+00 0.  1.
</event>
<event>
12    1  0.8728348E-002  0.1963449E+03  0.7818608E-02  0.1154247E+00
         21   -1    0    0  501  502  0.00000000000E+00  0.00000000000E+00  0.10265415774E+03  0.10265415774E+03  0.00000000000E+00 0.  1.
         21   -1    0    0  502  503 -0.00000000000E+00 -0.00000000000E+00 -0.39225650546E+03  0.39225650546E+03  0.00000000000E+00 0. -1.
         -6    2    1    2    0  503 -0.42223504021E+00 -0.92715952433E+02 -0.20951251005E+03  0.28285950928E+03  0.16588424882E+03 0.  0.
        -24    2    3    3    0    0  0.55236933469E+02 -0.49157034578E+02 -0.16909979249E+03  0.20130829774E+03  0.80391280939E+02 0.  0.
          6    2    1    2  501    0  0.42223504021E+00  0.92715952433E+02 -0.80089837675E+02  0.21205115391E+03  0.17307479210E+03 0.  0.
         24    2    5    5    0    0 -0.60329186534E+01  0.12996560319E+03 -0.41770418244E+02  0.15801715169E+03  0.79354888110E+02 0.  0.
          5    1    5    5  501    0  0.64551536936E+01 -0.37249650759E+02 -0.38319419431E+02  0.54034002225E+02  0.47000000000E+01 0. -1.
        -13    1    6    6    0    0  0.20075588350E+02  0.10100870658E+01 -0.10924374209E+02  0.22877750662E+02  0.00000000000E+00 0.  1.
         14    1    6    6    0    0 -0.26108507004E+02  0.12895551613E+03 -0.30846044035E+02  0.13513940103E+03  0.00000000000E+00 0. -1.
         -5    1    3    3    0  503 -0.55659168510E+02 -0.43558917855E+02 -0.40412717559E+02  0.81551211544E+02  0.47000000000E+01 0.  1.
         13    1    4    4    0    0 -0.27314279818E+01 -0.50850208097E+02 -0.86646233583E+02  0.10050260771E+03  0.00000000000E+00 0. -1.
        -14    1    4    4    0    0  0.57968361451E+02  0.16931735190E+01 -0.82453558904E+02  0.10080569003E+03  0.00000000000E+00 0.  1.
</event>
<event>
12    1  0.8728348E-002  0.1836907E+03  0.7818608E-02  0.1164565E+00
         21   -1    0    0  501  502  0.00000000000E+00  0.00000000000E+00  0.39658589923E+02  0.39658589923E+02  0.00000000000E+00 0. -1.
         21   -1    0    0  502  503 -0.00000000000E+00 -0.00000000000E+00 -0.89036108720E+03  0.89036108720E+03  0.00000000000E+00 0. -1.
         -6    2    1    2    0  503  0.42327842227E+02  0.47106642452E+02 -0.53141258765E+03  0.56226470309E+03  0.17242846643E+03 0.  0.
        -24    2    3    3    0    0  0.62975207132E+02  0.90080935968E+02 -0.40127414556E+03  0.42358807316E+03  0.79532786226E+02 0.  0.
          6    2    1    2  501    0 -0.42327842227E+02 -0.47106642452E+02 -0.31928990963E+03  0.36775497404E+03  0.17113442829E+03 0.  0.
         24    2    5    5    0    0 -0.94068523669E+02 -0.49094004748E+02 -0.23943638493E+03  0.27246739283E+03  0.75163749780E+02 0.  0.
          5    1    5    5  501    0  0.51740681442E+02  0.19873622958E+01 -0.79853524701E+02  0.95287581206E+02  0.47000000000E+01 0. -1.
        -11    1    6    6    0    0  0.12205235367E+02 -0.60025458763E+01 -0.41946345993E+02  0.44096420144E+02  0.00000000000E+00 0.  1.
         12    1    6    6    0    0 -0.10627375904E+03 -0.43091458871E+02 -0.19749003893E+03  0.22837097268E+03  0.00000000000E+00 0. -1.
         -5    1    3    3    0  503 -0.20647364904E+02 -0.42974293516E+02 -0.13013844209E+03  0.13867662994E+03  0.47000000000E+01 0.  1.
         13    1    4    4    0    0  0.21464887412E+02  0.24823471665E+02 -0.26395095374E+03  0.26598318014E+03  0.00000000000E+00 0. -1.
        -14    1    4    4    0    0  0.41510319720E+02  0.65257464302E+02 -0.13732319183E+03  0.15760489302E+03  0.00000000000E+00 0.  1.
</event>
<event>
12    1  0.8728348E-002  0.2608958E+03  0.7818608E-02  0.1106610E+00
         21   -1    0    0  501  502  0.00000000000E+00  0.00000000000E+00  0.66499925829E+02  0.66499925829E+02  0.00000000000E+00 0. -1.
         21   -1    0    0  502  503 -0.00000000000E+00 -0.00000000000E+00 -0.12900836436E+04  0.12900836436E+04  0.00000000000E+00 0. -1.
         -6    2    1    2    0  503  0.14092533783E+03 -0.13603219916E+03 -0.30345817401E+03  0.40019177884E+03  0.17234235240E+03 0.  0.
        -24    2    3    3    0    0  0.11521227924E+03 -0.15332684464E+03 -0.18860435322E+03  0.28113819304E+03  0.81756290001E+02 0.  0.
          6    2    1    2  501    0 -0.14092533783E+03  0.13603219916E+03 -0.92012554373E+03  0.95639179055E+03  0.17230650238E+03 0.  0.
         24    2    5    5    0    0 -0.81324458172E+02  0.50477483876E+01 -0.50273442328E+03  0.51486418255E+03  0.75525352434E+02 0.  0.
          5    1    5    5  501    0 -0.59600879659E+02  0.13098445077E+03 -0.41739112045E+03  0.44152760801E+03  0.47000000000E+01 0. -1.
        -11    1    6    6    0    0  0.12518333936E+02 -0.48296907724E+01 -0.11649790637E+03  0.11726805526E+03  0.00000000000E+00 0.  1.
         12    1    6    6    0    0 -0.93842792108E+02  0.98774391600E+01 -0.38623651691E+03  0.39759612728E+03  0.00000000000E+00 0. -1.
         -5    1    3    3    0  503  0.25713058594E+02  0.17294645482E+02 -0.11485382079E+03  0.11905358581E+03  0.47000000000E+01 0.  1.
         13    1    4    4    0    0  0.59048523936E+02 -0.13060765315E+03 -0.15776947838E+03  0.21315791223E+03  0.00000000000E+00 0. -1.
        -14    1    4    4    0    0  0.56163755301E+02 -0.22719191493E+02 -0.30834874848E+02  0.67980280806E+02  0.00000000000E+00 0.  1.
</event>
<event>
12    1  0.8728348E-002  0.2103504E+03  0.7818608E-02  0.1141762E+00
         21   -1    0    0  501  502  0.00000000000E+00  0.00000000000E+00  0.20933734481E+03  0.20933734481E+03  0.00000000000E+00 0.  1.
         21   -1    0    0  502  503 -0.00000000000E+00 -0.00000000000E+00 -0.29161851624E+03  0.29161851624E+03  0.00000000000E+00 0.  1.
         -6    2    1    2    0  503 -0.72557264042E+02  0.96711943535E+02 -0.17430494920E+03  0.27135695444E+03  0.16921768470E+03 0.  0.
        -24    2    3    3    0    0 -0.81013853850E+02  0.60450238003E+02 -0.44777010137E+02  0.13650146809E+03  0.80063689418E+02 0.  0.
          6    2    1    2  501    0  0.72557264042E+02 -0.96711943535E+02  0.92023777780E+02  0.22959890662E+03  0.17213229114E+03 0.  0.
         24    2    5    5    0    0  0.83453923825E+02 -0.12701508814E+03  0.96841187854E+02  0.19670034727E+03  0.78837940963E+02 0.  0.
          5    1    5    5  501    0 -0.10896659783E+02  0.30303144601E+02 -0.48174100736E+01  0.32898559345E+02  0.47000000000E+01 0. -1.
        -13    1    6    6    0    0  0.34037688233E+02 -0.16925474779E+02  0.59089770041E+02  0.70261204375E+02  0.00000000000E+00 0.  1.
         14    1    6    6    0    0  0.49416235592E+02 -0.11008961336E+03  0.37751417813E+02  0.12643914290E+03  0.00000000000E+00 0. -1.
         -5    1    3    3    0  503  0.84565898073E+01  0.36261705532E+02 -0.12952793907E+03  0.13485548635E+03  0.47000000000E+01 0.  1.
         13    1    4    4    0    0 -0.52545567037E+02  0.31236779387E+01 -0.49585019272E+02  0.72315061469E+02  0.00000000000E+00 0. -1.
        -14    1    4    4    0    0 -0.28468286813E+02  0.57326560064E+02  0.48080091347E+01  0.64186406620E+02  0.00000000000E+00 0.  1.
</event>
<event>
12    1  0.8728348E-002  0.1886725E+03  0.7818608E-02  0.1160195E+00
         21   -1    0    0  503  502  0.00000000000E+00  0.00000000000E+00  0.40450853832E+03  0.40450853832E+03  0.00000000000E+00 0. -1.
         21   -1    0    0  501  503 -0.00000000000E+00 -0.00000000000E+00 -0.86934835835E+02  0.86934835835E+02  0.00000000000E+00 0. -1.
          6    2    1    2  501    0  0.50239937236E+02 -0.58787812262E+02  0.16052363231E+03  0.24596012389E+03  0.16955379042E+03 0.  0.
         24    2    3    3    0    0  0.63454284588E+02 -0.75545517715E+02  0.54623159134E+02  0.13782853790E+03  0.79242948374E+02 0.  0.
         -6    2    1    2    0  502 -0.50239937236E+02  0.58787812262E+02  0.15705007017E+03  0.24548325027E+03  0.17209661083E+03 0.  0.
        -24    2    5    5    0    0 -0.37160543224E+02  0.97795222349E+02  0.69723645889E+02  0.14883624841E+03  0.79661976870E+02 0.  0.
          5    1    3    3  501    0 -0.13214347351E+02  0.16757705453E+02  0.10590047318E+03  0.10813158598E+03  0.47000000000E+01 0. -1.
        -11    1    4    4    0    0  0.12361260191E+02 -0.49632997916E+02 -0.93032559175E+01  0.51988323750E+02  0.00000000000E+00 0.  1.
         12    1    4    4    0    0  0.51093024396E+02 -0.25912519799E+02  0.63926415052E+02  0.85840214152E+02  0.00000000000E+00 0. -1.
         -5    1    5    5    0  502 -0.13079394012E+02 -0.39007410087E+02  0.87326424284E+02  0.96647001856E+02  0.47000000000E+01 0.  1.
         11    1    6    6    0    0  0.11403019381E+02  0.68176840172E+02  0.59153896840E+02  0.90979634524E+02  0.00000000000E+00 0. -1.
        -12    1    6    6    0    0 -0.48563562606E+02  0.29618382178E+02  0.10569749048E+02  0.57856613889E+02  0.00000000000E+00 0.  1.
</event>
<event>
12    1  0.8728348E-002  0.1858320E+03  0.7818608E-02  0.1162337E+00
         21   -1    0    0  503  502  0.00000000000E+00  0.00000000000E+00  0.20578217152E+02  0.20578217152E+02  0.00000000000E+00 0.  1.
         21   -1    0    0  501  503 -0.00000000000E+00 -0.00000000000E+00 -0.17074010697E+04  0.17074010697E+04  0.00000000000E+00 0. -1.
          6    2    1    2  501    0 -0.27546051926E+02 -0.64271904418E+02 -0.96164462803E+03  0.97943552044E+03  0.17217399747E+03 0.  0.
         24    2    3    3    0    0 -0.22961319778E+02 -0.99616159404E+02 -0.88826118386E+03  0.89771981811E+03  0.80264186598E+02 0.  0.
         -6    2    1    2    0  502  0.27546051926E+02  0.64271904418E+02 -0.72517822456E+03  0.74854376646E+03  0.17188557312E+03 0.  0.
        -24    2    5    5    0    0  0.76555581771E+02  0.64552218917E+02 -0.40814321931E+03  0.42770845489E+03  0.79535456550E+02 0.  0.
          5    1    3    3  501    0 -0.45847321481E+01  0.35344254986E+02 -0.73383444167E+02  0.81715702330E+02  0.47000000000E+01 0. -1.
        -13    1    4    4    0    0  0.29369003222E+02 -0.25566992871E+02 -0.29848314466E+03  0.30101228732E+03  0.00000000000E+00 0.  1.
         14    1    4    4    0    0 -0.52330323000E+02 -0.74049166533E+02 -0.58977803920E+03  0.59670753078E+03  0.00000000000E+00 0. -1.
         -5    1    5    5    0  502 -0.49009529845E+02 -0.28031449890E+00 -0.31703500526E+03  0.32083531157E+03  0.47000000000E+01 0.  1.
         13    1    6    6    0    0  0.32259319686E+02 -0.88667301740E+01 -0.19695943300E+03  0.19978063184E+03  0.00000000000E+00 0. -1.
        -14    1    6    6    0    0  0.44296262085E+02  0.73418949091E+02 -0.21118378630E+03  0.22792782305E+03  0.00000000000E+00 0.  1.
</event>
<event>
12    1  0.8728348E-002  0.1900913E+03  0.7818608E-02  0.1158943E+00
         21   -1    0    0  503  502  0.00000000000E+00  0.00000000000E+00  0.11702822585E+04  0.11702822585E+04  0.00000000000E+00 0.  1.
         21   -1    0    0  501  503 -0.00000000000E+00 -0.00000000000E+00 -0.31067550384E+02  0.31067550384E+02  0.00000000000E+00 0.  1.
          6    2    1    2  501    0  0.73432844895E+02 -0.31568786626E+02  0.49028618310E+03  0.52584716118E+03  0.17246948885E+03 0.  0.
         24    2    3    3    0    0  0.62063327150E+02  0.25453583764E+02  0.16114852909E+03  0.19158004951E+03  0.78957744636E+02 0.  0.
         -6    2    1    2    0  502 -0.73432844895E+02  0.31568786626E+02  0.64892852505E+03  0.67550264774E+03  0.16972514686E+03 0.  0.
        -24    2    5    5    0    0 -0.20934736682E+02 -0.32585339113E+02  0.20661299187E+03  0.22546162282E+03  0.81510413021E+02 0.  0.
          5    1    3    3  501    0  0.11369517745E+02 -0.57022370390E+02  0.32913765401E+03  0.33426711167E+03  0.47000000000E+01 0. -1.
        -13    1    4    4    0    0  0.36184267186E+02 -0.51767632559E+01  0.14294130305E+03  0.14754089666E+03  0.00000000000E+00 0.  1.
         14    1    4    4    0    0  0.25879059964E+02  0.30630347020E+02  0.18207226034E+02  0.44039152842E+02  0.00000000000E+00 0. -1.
         -5    1    5    5    0  502 -0.52498108213E+02  0.64154125738E+02  0.44231553318E+03  0.45004102491E+03  0.47000000000E+01 0.  1.
         13    1    6    6    0    0  0.68188634187E+01  0.24903929853E+02  0.71698250153E+02  0.76205916407E+02  0.00000000000E+00 0. -1.
        -14    1    6    6    0    0 -0.27753600101E+02 -0.57489268965E+02  0.13491474172E+03  0.14925570642E+03  0.00000000000E+00 0.  1.
</event>
<event>
12    1  0.8728348E-002  0.2053349E+03  0.7818608E-02  0.1145549E+00
         21   -1    0    0  501  502  0.00000000000E+00  0.00000000000E+00  0.10582496061E+03  0.10582496061E+03  0.00000000000E+00 0. -1.
         21   -1    0    0  502  503 -0.00000000000E+00 -0.00000000000E+00 -0.40424418198E+03  0.40424418198E+03  0.00000000000E+00 0. -1.
         -6    2    1    2    0  503 -0.89032198237E+02  0.65847928092E+02 -0.11362539405E+03  0.23467672695E+03  0.17291545344E+03 0.  0.
        -24    2    3    3    0    0 -0.53072863049E+02  0.63144956506E+02 -0.14586577061E+03  0.18607722362E+03  0.80894349565E+02 0.  0.
          6    2    1    2  501    0  0.89032198237E+02 -0.65847928092E+02 -0.18479382732E+03  0.27539241565E+03  0.17155040665E+03 0.  0.
         24    2    5    5    0    0  0.81577381312E+02 -0.24395725215E+02 -0.37227930950E+02  0.12186182198E+03  0.78831239133E+02 0.  0.
          5    1    5    5  501    0  0.74548169250E+01 -0.41452202877E+02 -0.14756589637E+03  0.15353059366E+03  0.47000000000E+01 0. -1.
        -13    1    6    6    0    0  0.18155051312E+02 -0.44073156901E+02 -0.46386531803E+01  0.47891190742E+02  0.00000000000E+00 0.  1.
         14    1    6    6    0    0  0.63422330000E+02  0.19677431686E+02 -0.32589277770E+02  0.73970631240E+02  0.00000000000E+00 0. -1.
         -5    1    3    3    0  503 -0.35959335188E+02  0.27029715857E+01  0.32240376557E+02  0.48599503322E+02  0.47000000000E+01 0.  1.
         13    1    4    4    0    0 -0.24626544652E+02  0.23926113344E+02 -0.21365296409E+01  0.34401894718E+02  0.00000000000E+00 0. -1.
        -14    1    4    4    0    0 -0.28446318397E+02  0.39218843162E+02 -0.14372924097E+03  0.15167532891E+03  0.00000000000E+00 0.  1.
</event>
<event>
12    1  0.8728348E-002  0.1741791E+03  0.7818608E-02  0.1173641E+00
         21   -1    0    0  503  502  0.00000000000E+00  0.00000000000E+00  0.82008527063E+03  0.82008527063E+03  0.00000000000E+00 0. -1.
         21   -1    0    0  501  503 -0.00000000000E+00 -0.00000000000E+00 -0.13460240251E+03  0.13460240251E+03  0.00000000000E+00 0. -1.
          6    2    1    2  501    0  0.20545775771E+01 -0.19579390060E+02 -0.63979651772E+02  0.18525124855E+03  0.17273405989E+03 0.  0.
         24    2    3    3    0    0  0.19381529730E+01 -0.63685900172E+02 -0.87672716109E+02  0.13496358519E+03  0.80430180031E+02 0.  0.
         -6    2    1    2    0  502 -0.20545775771E+01  0.19579390060E+02  0.74946251990E+03  0.76943642459E+03  0.17306290460E+03 0.  0.
        -24    2    5    5    0    0  0.22806179061E+02  0.30720084592E+02  0.13907820253E+03  0.15842637787E+03  0.65515840737E+02 0.  0.
          5    1    3    3  501    0  0.11642460412E+00  0.44106510112E+02  0.23693064337E+02  0.50287663364E+02  0.47000000000E+01 0. -1.
        -11    1    4    4    0    0  0.34420893464E+02 -0.75973666611E+01 -0.17217330326E+02  0.39229508671E+02  0.00000000000E+00 0.  1.
         12    1    4    4    0    0 -0.32482740491E+02 -0.56088533511E+02 -0.70455385783E+02  0.95734076519E+02  0.00000000000E+00 0. -1.
         -5    1    5    5    0  502 -0.24860756638E+02 -0.11140694532E+02  0.61038431737E+03  0.61101004671E+03  0.47000000000E+01 0.  1.
         13    1    6    6    0    0  0.37236032431E+01  0.37046240729E+02  0.13194000070E+03  0.13709286254E+03  0.00000000000E+00 0. -1.
        -14    1    6    6    0    0  0.19082575818E+02 -0.63261561376E+01  0.71382018235E+01  0.21333515336E+02  0.00000000000E+00 0.  1.
</event>
<event>
12    1  0.8728348E-002  0.1864726E+03  0.7818608E-02  0.1161950E+00
         21   -1    0    0  503  502  0.00000000000E+00  0.00000000000E+00  0.11587254603E+03  0.11587254603E+03  0.00000000000E+00 0. -1.
         21   -1    0    0  501  503 -0.00000000000E+00 -0.00000000000E+00 -0.32232423995E+03  0.32232423995E+03  0.00000000000E+00 0. -1.
          6    2    1    2  501    0 -0.58239209467E+02  0.43676336533E+02 -0.16342812238E+03  0.24795319969E+03  0.17167588695E+03 0.  0.
         24    2    3    3    0    0 -0.39757650119E+02  0.88541100338E+02 -0.15467600662E+03  0.19842437377E+03  0.77636124894E+02 0.  0.
         -6    2    1    2    0  502  0.58239209467E+02 -0.43676336533E+02 -0.43023571540E+02  0.19024358629E+03  0.17041762386E+03 0.  0.
        -24    2    5    5    0    0  0.92369071129E+02  0.75719360729E+01 -0.20119927391E+02  0.12438085162E+03  0.80476116055E+02 0.  0.
          5    1    3    3  501    0 -0.18481559349E+02 -0.44864763805E+02 -0.87521157636E+01  0.49528825926E+02  0.47000000000E+01 0. -1.
        -13    1    4    4    0    0 -0.16144446786E+02 -0.14389680064E+01  0.18779579966E+01  0.16316878292E+02  0.00000000000E+00 0.  1.
         14    1    4    4    0    0 -0.23613203333E+02  0.89980068344E+02 -0.15655396462E+03  0.18210749548E+03  0.00000000000E+00 0. -1.
         -5    1    5    5    0  502 -0.34129861662E+02 -0.51248272606E+02 -0.22903644148E+02  0.65862734664E+02  0.47000000000E+01 0.  1.
         11    1    6    6    0    0  0.68020452925E+01 -0.26901628147E+02 -0.16017069997E+02  0.32039225153E+02  0.00000000000E+00 0. -1.
        -12    1    6    6    0    0  0.85567025837E+02  0.34473564220E+02 -0.41028573946E+01  0.92341626471E+02  0.00000000000E+00 0.  1.
</event>
<event>
12    1  0.8728348E-002  0.3298101E+03  0.7818608E-02  0.1071508E+00
         21   -1    0    0  501  502  0.00000000000E+00  0.00000000000E+00  0.62210199305E+03  0.62210199305E+03  0.00000000000E+00 0. -1.
         21   -1    0    0  502  503 -0.00000000000E+00 -0.00000000000E+00 -0.25295295346E+03  0.25295295346E+03  0.00000000000E+00 0.  1.
         -6    2    1    2    0  503 -0.99930525250E+02 -0.26257248854E+03 -0.60162734141E+02  0.33525256171E+03  0.17275504026E+03 0.  0.
        -24    2    3    3    0    0  0.50068512050E+01 -0.13637361103E+03  0.58216870671E+01  0.15829481673E+03  0.80003291316E+02 0.  0.
          6    2    1    2  501    0  0.99930525250E+02  0.26257248854E+03  0.42931177373E+03  0.53980238480E+03  0.16777244694E+03 0.  0.
         24    2    5    5    0    0  0.85409124445E+02  0.14138968438E+03  0.15815300140E+03  0.24240481769E+03  0.80386332181E+02 0.  0.
          5    1    5    5  501    0  0.14521400805E+02  0.12118280416E+03  0.27115877233E+03  0.29739756710E+03  0.47000000000E+01 0. -1.
        -13    1    6    6    0    0  0.20985293779E+02 -0.21218117919E+01  0.27335339153E+01  0.21268682328E+02  0.00000000000E+00 0.  1.
         14    1    6    6    0    0  0.64423830666E+02  0.14351149618E+03  0.15541946748E+03  0.22113613537E+03  0.00000000000E+00 0. -1.
         -5    1    3    3    0  503 -0.10493737646E+03 -0.12619887752E+03 -0.65984421208E+02  0.17695774497E+03  0.47000000000E+01 0.  1.
         13    1    4    4    0    0  0.31996339797E+02 -0.23745606837E+02  0.13892183479E+02  0.42197302831E+02  0.00000000000E+00 0. -1.
        -14    1    4    4    0    0 -0.26989488592E+02 -0.11262800419E+03 -0.80704964124E+01  0.11609751390E+03  0.00000000000E+00 0.  1.
</event>
<event>
12    1  0.8728348E-002  0.2163074E+03  0.7818608E-02  0.1137058E+00
         21   -1    0    0  503  502  0.00000000000E+00  0.00000000000E+00  0.62917773465E+03  0.62917773465E+03  0.00000000000E+00 0. -1.
         21   -1    0    0  501  503 -0.00000000000E+00 -0.00000000000E+00 -0.74517281323E+02  0.74517281323E+02  0.00000000000E+00 0.  1.
          6    2    1    2  501    0  0.12973758276E+03 -0.22052229050E+02  0.24098163505E+03  0.32382256030E+03  0.17167050108E+03 0.  0.
         24    2    3    3    0    0  0.14454142036E+03  0.23009940942E+02  0.17138680387E+03  0.23947042163E+03  0.80938042415E+02 0.  0.
         -6    2    1    2    0  502 -0.12973758276E+03  0.22052229050E+02  0.31367881827E+03  0.37987245567E+03  0.16908737491E+03 0.  0.
        -24    2    5    5    0    0 -0.10914137686E+03 -0.38874820492E+02  0.17768261423E+03  0.22936210195E+03  0.87251192535E+02 0.  0.
          5    1    3    3  501    0 -0.14803837602E+02 -0.45062169992E+02  0.69594831179E+02  0.84352138675E+02  0.47000000000E+01 0. -1.
        -13    1    4    4    0    0  0.73755617394E+02  0.58998565322E+01  0.28867488429E+02  0.79423115605E+02  0.00000000000E+00 0.  1.
         14    1    4    4    0    0  0.70785802970E+02  0.17110084410E+02  0.14251931544E+03  0.16004730602E+03  0.00000000000E+00 0. -1.
         -5    1    5    5    0  502 -0.20596205906E+02  0.60927049542E+02  0.13599620404E+03  0.15051035372E+03  0.47000000000E+01 0.  1.
         11    1    6    6    0    0  0.59507415068E+01 -0.28501675856E+02  0.42531327053E+02  0.51542900888E+02  0.00000000000E+00 0. -1.
        -12    1    6    6    0    0 -0.11509211836E+03 -0.10373144636E+02  0.13515128718E+03  0.17781920106E+03  0.00000000000E+00 0.  1.
</event>
<event>
12    1  0.8728348E-002  0.1914109E+03  0.7818608E-02  0.1158785E+00
         21   -1    0    0  501  502  0.00000000000E+00  0.00000000000E+00  0.23081340790E+03  0.23081340790E+03  0.00000000000E+00 0.  1.
         21   -1    0    0  502  503 -0.00000000000E+00 -0.00000000000E+00 -0.19393076697E+03  0.19393076697E+03  0.00000000000E+00 0. -1.
         -6    2    1    2    0  503  0.52732407232E+02 -0.64565420055E+02 -0.79380654532E+02  0.20079042193E+03  0.16451779535E+03 0.  0.
        -24    2    3    3    0    0 -0.25260024553E+02 -0.66443835359E+02 -0.49632539968E+02  0.11716394179E+03  0.78810837677E+02 0.  0.
          6    2    1    2  501    0 -0.52732407232E+02  0.64565420055E+02  0.11626329546E+03  0.22395375295E+03  0.17230417681E+03 0.  0.
         24    2    5    5    0    0 -0.81176757693E+02 -0.31894447557E+01  0.87530403073E+02  0.14491280227E+03  0.82087211260E+02 0.  0.
          5    1    5    5  501    0  0.28444350462E+02  0.67754864811E+02  0.28732892392E+02  0.79040950677E+02  0.47000000000E+01 0. -1.
        -11    1    6    6    0    0 -0.20358942796E+02 -0.22933408848E+02  0.73228560580E+02  0.79390489845E+02  0.00000000000E+00 0.  1.
         12    1    6    6    0    0 -0.60817814897E+02  0.19743964093E+02  0.14301842492E+02  0.65522312426E+02  0.00000000000E+00 0. -1.
         -5    1    3    3    0  503  0.77992431785E+02  0.18784153038E+01 -0.29748114564E+02  0.83626480135E+02  0.47000000000E+01 0.  1.
         11    1    4    4    0    0 -0.52565448935E+02 -0.51490897407E+02 -0.25863866014E+02  0.77996015941E+02  0.00000000000E+00 0. -1.
        -12    1    4    4    0    0  0.27305424382E+02 -0.14952937952E+02 -0.23768673954E+02  0.39167925853E+02  0.00000000000E+00 0.  1.
</event>
<event>
12    1  0.8728348E-002  0.1946815E+03  0.7818608E-02  0.1154355E+00
         21   -1    0    0  501  502  0.00000000000E+00  0.00000000000E+00  0.52721241259E+02  0.52721241259E+02  0.00000000000E+00 0. -1.
         21   -1    0    0  502  503 -0.00000000000E+00 -0.00000000000E+00 -0.71851990226E+03  0.71851990226E+03  0.00000000000E+00 0. -1.
         -6    2    1    2    0  503  0.82445574559E+02  0.38213693891E+02 -0.32337379698E+03  0.37745394381E+03  0.17217232054E+03 0.  0.
        -24    2    3    3    0    0 -0.26330850258E+02  0.30580006703E+01 -0.13314111884E+03  0.15546566665E+03  0.75765103704E+02 0.  0.
          6    2    1    2  501    0 -0.82445574559E+02 -0.38213693891E+02 -0.34242486402E+03  0.39378719971E+03  0.17191862025E+03 0.  0.
         24    2    5    5    0    0 -0.85445829449E+01  0.36481170562E+02 -0.13726805145E+03  0.16323983563E+03  0.80005251615E+02 0.  0.
          5    1    5    5  501    0 -0.73900991614E+02 -0.74694864453E+02 -0.20515681258E+03  0.23054736408E+03  0.47000000000E+01 0. -1.
        -11    1    6    6    0    0  0.17346760961E+02 -0.16149355574E+02 -0.70450409361E+02  0.74330155256E+02  0.00000000000E+00 0.  1.
         12    1    6    6    0    0 -0.25891343906E+02  0.52630526136E+02 -0.66817642084E+02  0.88909680374E+02  0.00000000000E+00 0. -1.
         -5    1    3    3    0  503  0.10877642482E+03  0.35155693220E+02 -0.19023267814E+03  0.22198827716E+03  0.47000000000E+01 0.  1.
         13    1    4    4    0    0  0.14379663170E+02 -0.55981565962E+01  0.55500631736E+00  0.15440922970E+02  0.00000000000E+00 0. -1.
        -14    1    4    4    0    0 -0.40710513428E+02  0.86561572665E+01 -0.13369612516E+03  0.14002474368E+03  0.00000000000E+00 0.  1.
</event>
<event>
12    1  0.8728348E-002  0.1998393E+03  0.7818608E-02  0.1149988E+00
         21   -1    0    0  503  502  0.00000000000E+00  0.00000000000E+00  0.18359557367E+02  0.18359557367E+02  0.00000000000E+00 0.  1.
         21   -1    0    0  501  503 -0.00000000000E+00 -0.00000000000E+00 -0.22622078240E+04  0.22622078240E+04  0.00000000000E+00 0.  1.
          6    2    1    2  501    0  0.97396048503E+02  0.26219788733E+02 -0.89239626475E+03  0.91449813083E+03  0.17251744941E+03 0.  0.
         24    2    3    3    0    0  0.23399044829E+02  0.46014009266E+02 -0.71633776911E+03  0.72244071335E+03  0.78204734533E+02 0.  0.
         -6    2    1    2    0  502 -0.97396048503E+02 -0.26219788733E+02 -0.13514520018E+04  0.13660692505E+04  0.17189885488E+03 0.  0.
        -24    2    5    5    0    0 -0.11477957353E+03 -0.66594702962E+02 -0.10860738478E+04  0.10970339828E+04  0.79485542837E+02 0.  0.
          5    1    3    3  501    0  0.73997003675E+02 -0.19794220534E+02 -0.17605849565E+03  0.19205741748E+03  0.47000000000E+01 0. -1.
        -11    1    4    4    0    0  0.44428079523E+02  0.16152576524E+02 -0.23430887058E+03  0.23903013788E+03  0.00000000000E+00 0.  1.
         12    1    4    4    0    0 -0.21029034694E+02  0.29861432743E+02 -0.48202889852E+03  0.48341057547E+03  0.00000000000E+00 0. -1.
         -5    1    5    5    0  502  0.17383525026E+02  0.40374914229E+02 -0.26537815401E+03  0.26903526770E+03  0.47000000000E+01 0.  1.
         11    1    6    6    0    0  0.23622923471E+01 -0.17462375427E+02 -0.32125020194E+03  0.32173313045E+03  0.00000000000E+00 0. -1.
        -12    1    6    6    0    0 -0.11714186588E+03 -0.49132327535E+02 -0.76482364588E+03  0.77530085235E+03  0.00000000000E+00 0.  1.
</event>
<event>
12    1  0.8728348E-002  0.1828847E+03  0.7818608E-02  0.1165068E+00
         21   -1    0    0  501  502  0.00000000000E+00  0.00000000000E+00  0.12271654563E+03  0.12271654563E+03  0.00000000000E+00 0.  1.
         21   -1    0    0  502  503 -0.00000000000E+00 -0.00000000000E+00 -0.30235452176E+03  0.30235452176E+03  0.00000000000E+00 0.  1.
         -6    2    1    2    0  503 -0.58620111157E+02  0.18490267743E+02 -0.15671625707E+03  0.24075556850E+03  0.17211929322E+03 0.  0.
        -24    2    3    3    0    0 -0.61875328834E+02  0.69479787121E+02 -0.73241109325E+02  0.14277231574E+03  0.79772657663E+02 0.  0.
          6    2    1    2  501    0  0.58620111157E+02 -0.18490267743E+02 -0.22921719051E+02  0.18431549889E+03  0.17224572707E+03 0.  0.
         24    2    5    5    0    0  0.10018639821E+03 -0.36136698278E+02  0.25387217158E+01  0.13226286424E+03  0.78382681754E+02 0.  0.
          5    1    5    5  501    0 -0.41566287057E+02  0.17646430536E+02 -0.25460440767E+02  0.52052634654E+02  0.47000000000E+01 0. -1.
        -13    1    6    6    0    0  0.66992975657E+02 -0.57410343975E+02 -0.14324546740E+02  0.89382319404E+02  0.00000000000E+00 0.  1.
         14    1    6    6    0    0  0.33193422557E+02  0.21273645697E+02  0.16863268456E+02  0.42880544834E+02  0.00000000000E+00 0. -1.
         -5    1    3    3    0  503  0.32552176768E+01 -0.50989519379E+02 -0.83475147749E+02  0.97983252754E+02  0.47000000000E+01 0.  1.
         13    1    4    4    0    0 -0.24489119114E+02  0.81729434113E+01 -0.65675715481E+02  0.70567794092E+02  0.00000000000E+00 0. -1.
        -14    1    4    4    0    0 -0.37386209719E+02  0.61306843710E+02 -0.75653938444E+01  0.72204521651E+02  0.00000000000E+00 0.  1.
</event>
<event>
12    1  0.8728348E-002  0.1829252E+03  0.7818608E-02  0.1165187E+00
         21   -1    0    0  501  502  0.00000000000E+00  0.00000000000E+00  0.95097443705E+02  0.95097443705E+02  0.00000000000E+00 0. -1.
         21   -1    0    0  502  503 -0.00000000000E+00 -0.00000000000E+00 -0.35608219648E+03  0.35608219648E+03  0.00000000000E+00 0. -1.
         -6    2    1    2    0  503  0.58557491447E+02  0.14632928202E+02 -0.10218554174E+03  0.20953163944E+03  0.17268040014E+03 0.  0.
        -24    2    3    3    0    0  0.63683761723E+02 -0.53016823346E+02 -0.55152774392E+02  0.12684585628E+03  0.78623391351E+02 0.  0.
          6    2    1    2  501    0 -0.58557491447E+02 -0.14632928202E+02 -0.15879921103E+03  0.24164800075E+03  0.17185303154E+03 0.  0.
         24    2    5    5    0    0 -0.30336733341E+02 -0.33915310239E+02 -0.17886699815E+03  0.20173525185E+03  0.81444110617E+02 0.  0.
          5    1    5    5  501    0 -0.28220758105E+02  0.19282382037E+02  0.20067787115E+02  0.39912748900E+02  0.47000000000E+01 0. -1.
        -11    1    6    6    0    0 -0.35451835953E+02 -0.31361393447E+02 -0.37857503763E+02  0.60609902347E+02  0.00000000000E+00 0.  1.
         12    1    6    6    0    0  0.51151026112E+01 -0.25539167914E+01 -0.14100949438E+03  0.14112534950E+03  0.00000000000E+00 0. -1.
         -5    1    3    3    0  503 -0.51262702758E+01  0.67649751548E+02 -0.47032767353E+02  0.82685783157E+02  0.47000000000E+01 0.  1.
         11    1    4    4    0    0  0.54663194923E+01 -0.55611406311E+02 -0.24725851375E+02  0.61105457096E+02  0.00000000000E+00 0. -1.
        -12    1    4    4    0    0  0.58217442230E+02  0.25945829657E+01 -0.30426923017E+02  0.65740399184E+02  0.00000000000E+00 0.  1.
</event>
<event>
12    1  0.8728348E-002  0.1925799E+03  0.7818608E-02  0.1156314E+00
         21   -1    0    0  503  502  0.00000000000E+00  0.00000000000E+00  0.33115814074E+03  0.33115814074E+03  0.00000000000E+00 0.  1.
         21   -1    0    0  501  503 -0.00000000000E+00 -0.00000000000E+00 -0.21009650678E+03  0.21009650678E+03  0.00000000000E+00 0.  1.
          6    2    1    2  501    0 -0.79685474392E+02  0.36355747695E+02 -0.12473167024E+03  0.22944495772E+03  0.17150942786E+03 0.  0.
         24    2    3    3    0    0 -0.69125113759E+02  0.82647363707E+01 -0.15430105152E+03  0.18705316083E+03  0.79583184501E+02 0.  0.
         -6    2    1    2    0  502  0.79685474392E+02 -0.36355747695E+02  0.24579330419E+03  0.31180968980E+03  0.17070272127E+03 0.  0.
        -24    2    5    5    0    0  0.25407454259E+02  0.38575113756E+02  0.78926885778E+02  0.12095050333E+03  0.79158024380E+02 0.  0.
          5    1    3    3  501    0 -0.10560360633E+02  0.28091011324E+02  0.29569381289E+02  0.42391796892E+02  0.47000000000E+01 0. -1.
        -11    1    4    4    0    0 -0.73752542929E+02  0.32459044889E+02 -0.12565862380E+03  0.14927530579E+03  0.00000000000E+00 0.  1.
         12    1    4    4    0    0  0.46274291702E+01 -0.24194308518E+02 -0.28642427725E+02  0.37777855039E+02  0.00000000000E+00 0. -1.
         -5    1    5    5    0  502  0.54278020133E+02 -0.74930861451E+02  0.16686641841E+03  0.19085918647E+03  0.47000000000E+01 0.  1.
         11    1    6    6    0    0 -0.26820406159E+02  0.19919857567E+02  0.44606729444E+02  0.55730559155E+02  0.00000000000E+00 0. -1.
        -12    1    6    6    0    0  0.52227860418E+02  0.18655256189E+02  0.34320156334E+02  0.65219944175E+02  0.00000000000E+00 0.  1.
</event>
<event>
12    1  0.8728348E-002  0.2066374E+03  0.7818608E-02  0.1144687E+00
         21   -1    0    0  501  502  0.00000000000E+00  0.00000000000E+00  0.54900374027E+03  0.54900374027E+03  0.00000000000E+00 0. -1.
         21   -1    0    0  502  503 -0.00000000000E+00 -0.00000000000E+00 -0.24761344643E+03  0.24761344643E+03  0.00000000000E+00 0. -1.
         -6    2    1    2    0  503  0.11433113684E+03  0.47858195613E+01 -0.17970869158E+03  0.27385077630E+03  0.17205964354E+03 0.  0.
        -24    2    3    3    0    0  0.34509020801E+02 -0.16040682205E+02 -0.16804487961E+03  0.19040350017E+03  0.81032310308E+02 0.  0.
          6    2    1    2  501    0 -0.11433113684E+03 -0.47858195613E+01  0.48109898542E+03  0.52276641040E+03  0.16951098240E+03 0.  0.
         24    2    5    5    0    0 -0.11807736291E+03  0.32869405559E+02  0.26016839417E+03  0.29856925088E+03  0.80208121737E+02 0.  0.
          5    1    5    5  501    0  0.37462260722E+01 -0.37655225120E+02  0.22093059125E+03  0.22419715952E+03  0.47000000000E+01 0. -1.
        -13    1    6    6    0    0 -0.65858832563E+01  0.46880861638E+01 -0.50228928271E+01  0.95174294059E+01  0.00000000000E+00 0.  1.
         14    1    6    6    0    0 -0.11149147965E+03  0.28181319395E+02  0.26519128700E+03  0.28905182148E+03  0.00000000000E+00 0. -1.
         -5    1    3    3    0  503  0.79822116035E+02  0.20826501766E+02 -0.11663811971E+02  0.83447276132E+02  0.47000000000E+01 0.  1.
         13    1    4    4    0    0  0.53780335408E+02  0.11605396526E+02 -0.11622266239E+03  0.12858739035E+03  0.00000000000E+00 0. -1.
        -14    1    4    4    0    0 -0.19271314607E+02 -0.27646078731E+02 -0.51822217221E+02  0.61816109822E+02  0.00000000000E+00 0.  1.
</event>
<event>
12    1  0.8728348E-002  0.2014875E+03  0.7818608E-02  0.1150875E+00
         21   -1    0    0  503  502  0.00000000000E+00  0.00000000000E+00  0.10003402130E+03  0.10003402130E+03  0.00000000000E+00 0.  1.
         21   -1    0    0  501  503 -0.00000000000E+00 -0.00000000000E+00 -0.39218878126E+03  0.39218878126E+03  0.00000000000E+00 0. -1.
          6    2    1    2  501    0 -0.11764551005E+02 -0.81953443064E+02 -0.18603952559E+03  0.27424058872E+03  0.18369111010E+03 0.  0.
         24    2    3    3    0    0  0.37264157756E+02 -0.92803733799E+02 -0.65806263581E+02  0.14385780463E+03  0.79771255271E+02 0.  0.
         -6    2    1    2    0  502  0.11764551005E+02  0.81953443064E+02 -0.10611523437E+03  0.21798221384E+03  0.17146728870E+03 0.  0.
        -24    2    5    5    0    0  0.50271807018E+01  0.35732961392E+02 -0.13637178021E+03  0.16213175592E+03  0.79920753028E+02 0.  0.
          5    1    3    3  501    0 -0.49028708760E+02  0.10850290735E+02 -0.12023326201E+03  0.13038278408E+03  0.47000000000E+01 0. -1.
        -11    1    4    4    0    0 -0.12871448083E+02  0.42508058303E+01 -0.22663646157E+02  0.26408036335E+02  0.00000000000E+00 0.  1.
         12    1    4    4    0    0  0.50135605838E+02 -0.97054539629E+02 -0.43142617424E+02  0.11744976830E+03  0.00000000000E+00 0. -1.
         -5    1    5    5    0  502  0.67373703029E+01  0.46220481672E+02  0.30256545834E+02  0.55850457925E+02  0.47000000000E+01 0.  1.
         13    1    6    6    0    0  0.27053808769E+02  0.51521643058E+02 -0.10929961732E+03  0.12382566220E+03  0.00000000000E+00 0. -1.
        -14    1    6    6    0    0 -0.22026628067E+02 -0.15788681666E+02 -0.27072162886E+02  0.38306093720E+02  0.00000000000E+00 0.  1.
</event>
<event>
12    1  0.8728348E-002  0.2063958E+03  0.7818608E-02  0.1144917E+00
         21   -1    0    0  501  502  0.00000000000E+00  0.00000000000E+00  0.62244882513E+02  0.62244882513E+02  0.00000000000E+00 0. -1.
         21   -1    0    0  502  503 -0.00000000000E+00 -0.00000000000E+00 -0.70258523786E+03  0.70258523786E+03  0.00000000000E+00 0. -1.
         -6    2    1    2    0  503  0.14443571552E+02 -0.11161771871E+03 -0.24868413614E+03  0.32317648230E+03  0.17300898027E+03 0.  0.
        -24    2    3    3    0    0  0.16318531845E+02 -0.14869060560E+03 -0.19123715569E+03  0.25461876952E+03  0.76706436489E+02 0.  0.
          6    2    1    2  501    0 -0.14443571552E+02  0.11161771871E+03 -0.39165621921E+03  0.44165363808E+03  0.17028273575E+03 0.  0.
         24    2    5    5    0    0 -0.42121714265E+02  0.13813238456E+03 -0.32972826763E+03  0.36867235092E+03  0.79647833495E+02 0.  0.
          5    1    5    5  501    0  0.27678142713E+02 -0.26514665850E+02 -0.61927951571E+02  0.72981287156E+02  0.47000000000E+01 0. -1.
        -11    1    6    6    0    0 -0.28027755870E+02  0.96532689007E+02 -0.13085464501E+03  0.16500622190E+03  0.00000000000E+00 0.  1.
         12    1    6    6    0    0 -0.14093958395E+02  0.41599695550E+02 -0.19887362263E+03  0.20366612902E+03  0.00000000000E+00 0. -1.
         -5    1    3    3    0  503 -0.18749602934E+01  0.37072886892E+02 -0.57446980455E+02  0.68557712782E+02  0.47000000000E+01 0.  1.
         11    1    4    4    0    0 -0.10526124407E+02 -0.74665037334E+02 -0.43095085134E+02  0.86849602520E+02  0.00000000000E+00 0. -1.
        -12    1    4    4    0    0  0.26844656252E+02 -0.74025568266E+02 -0.14814207056E+03  0.16776916700E+03  0.00000000000E+00 0.  1.
</event>
<event>
12    1  0.8728348E-002  0.2328529E+03  0.7818608E-02  0.1125675E+00
         21   -1    0    0  503  502  0.00000000000E+00  0.00000000000E+00  0.51716041223E+03  0.51716041223E+03  0.00000000000E+00 0.  1.
         21   -1    0    0  501  503 -0.00000000000E+00 -0.00000000000E+00 -0.10249110401E+03  0.10249110401E+03  0.00000000000E+00 0. -1.
          6    2    1    2  501    0 -0.13611566785E+02 -0.15302388693E+03  0.18892320350E+03  0.29533408233E+03  0.16711869628E+03 0.  0.
         24    2    3    3    0    0  0.35024022193E+02 -0.97587690289E+02  0.17697223779E+03  0.22047749949E+03  0.80877162458E+02 0.  0.
         -6    2    1    2    0  502  0.13611566785E+02  0.15302388693E+03  0.22574610472E+03  0.32431743391E+03  0.17498259748E+03 0.  0.
        -24    2    5    5    0    0  0.29576139817E+02  0.95987110446E+02  0.23137549945E+03  0.26463626813E+03  0.80059098448E+02 0.  0.
          5    1    3    3  501    0 -0.48635588978E+02 -0.55436196643E+02  0.11950965707E+02  0.74856582842E+02  0.47000000000E+01 0. -1.
        -11    1    4    4    0    0  0.29041966498E+02 -0.49798180747E+02  0.15890333735E+03  0.16903717119E+03  0.00000000000E+00 0.  1.
         12    1    4    4    0    0  0.59820556948E+01 -0.47789509542E+02  0.18068900443E+02  0.51440328302E+02  0.00000000000E+00 0. -1.
         -5    1    5    5    0  502 -0.15964573032E+02  0.57036776486E+02 -0.56293947335E+01  0.59681165782E+02  0.47000000000E+01 0.  1.
         13    1    6    6    0    0  0.56893206442E+02  0.68856178035E+02  0.14928327244E+03  0.17396409291E+03  0.00000000000E+00 0. -1.
        -14    1    6    6    0    0 -0.27317066625E+02  0.27130932410E+02  0.82092227013E+02  0.90672175216E+02  0.00000000000E+00 0.  1.
</event>
<event>
12    1  0.8728348E-002  0.1766821E+03  0.7818608E-02  0.1171593E+00
         21   -1    0    0  503  502  0.00000000000E+00  0.00000000000E+00  0.18156550737E+03  0.18156550737E+03  0.00000000000E+00 0.  1.
         21   -1    0    0  501  503 -0.00000000000E+00 -0.00000000000E+00 -0.17456443057E+03  0.17456443057E+03  0.00000000000E+00 0.  1.
          6    2    1    2  501    0  0.13938282053E+02 -0.37454498266E+02 -0.25843364034E+02  0.17642099083E+03  0.16988046208E+03 0.  0.
         24    2    3    3    0    0  0.25498417697E+02 -0.10550678980E+02  0.47235991949E+02  0.97553161530E+02  0.80770627440E+02 0.  0.
         -6    2    1    2    0  502 -0.13938282053E+02  0.37454498266E+02  0.32844440833E+02  0.17970894711E+03  0.17210297275E+03 0.  0.
        -24    2    5    5    0    0  0.57395240095E+02  0.33085350201E+02  0.12162534846E+02  0.10516102915E+03  0.80759276957E+02 0.  0.
          5    1    3    3  501    0 -0.11560135644E+02 -0.26903819286E+02 -0.73079355983E+02  0.78867829304E+02  0.47000000000E+01 0. -1.
        -13    1    4    4    0    0 -0.13957576593E+02 -0.26474171393E+02 -0.48277178996E+01  0.30315054930E+02  0.00000000000E+00 0.  1.
         14    1    4    4    0    0  0.39455994290E+02  0.15923492413E+02  0.52063709848E+02  0.67238106600E+02  0.00000000000E+00 0. -1.
         -5    1    5    5    0  502 -0.71333522148E+02  0.43691480652E+01  0.20681905987E+02  0.74547917959E+02  0.47000000000E+01 0.  1.
         11    1    6    6    0    0  0.19552642745E+02 -0.19358475634E+02  0.27279978647E+02  0.38746014662E+02  0.00000000000E+00 0. -1.
        -12    1    6    6    0    0  0.37842597349E+02  0.52443825835E+02 -0.15117443801E+02  0.66415014488E+02  0.00000000000E+00 0.  1.
</event>
<event>
12    1  0.8728348E-002  0.1851994E+03  0.7818608E-02  0.1163205E+00
         21   -1    0    0  501  502  0.00000000000E+00  0.00000000000E+00  0.54209718563E+03  0.54209718563E+03  0.00000000000E+00 0.  1.
         21   -1    0    0  502  503 -0.00000000000E+00 -0.00000000000E+00 -0.89870017997E+02  0.89870017997E+02  0.00000000000E+00 0.  1.
         -6    2    1    2    0  503 -0.64646419001E+02  0.12463341853E+02  0.51983108907E+02  0.19095232556E+03  0.17154023622E+03 0.  0.
        -24    2    3    3    0    0 -0.25677679539E+02 -0.58660505212E+02  0.35444762383E+02  0.10805014716E+03  0.79486508436E+02 0.  0.
          6    2    1    2  501    0  0.64646419001E+02 -0.12463341853E+02  0.40024405873E+03  0.44101487808E+03  0.17310205590E+03 0.  0.
         24    2    5    5    0    0  0.37056860416E+02 -0.51128211720E+02  0.12487478209E+03  0.16153950452E+03  0.80709326485E+02 0.  0.
          5    1    5    5  501    0  0.27589558585E+02  0.38664869867E+02  0.27536927664E+03  0.27947537356E+03  0.47000000000E+01 0. -1.
        -13    1    6    6    0    0 -0.15100746850E+02 -0.24969497130E+02  0.87521108799E+02  0.92257535344E+02  0.00000000000E+00 0.  1.
         14    1    6    6    0    0  0.52157607266E+02 -0.26158714590E+02  0.37353673286E+02  0.69281969174E+02  0.00000000000E+00 0. -1.
         -5    1    3    3    0  503 -0.38968739462E+02  0.71123847065E+02  0.16538346525E+02  0.82902178393E+02  0.47000000000E+01 0.  1.
         13    1    4    4    0    0 -0.26759364395E+02 -0.48446202433E+01  0.45772567962E+02  0.53241543046E+02  0.00000000000E+00 0. -1.
        -14    1    4    4    0    0  0.10816848558E+01 -0.53815884969E+02 -0.10327805579E+02  0.54808604116E+02  0.00000000000E+00 0.  1.
</event>
<event>
12    1  0.8728348E-002  0.1926801E+03  0.7818608E-02  0.1156508E+00
         21   -1    0    0  503  502  0.00000000000E+00  0.00000000000E+00  0.64606200261E+02  0.64606200261E+02  0.00000000000E+00 0.  1.
         21   -1    0    0  501  503 -0.00000000000E+00 -0.00000000000E+00 -0.11337076728E+04  0.11337076728E+04  0.00000000000E+00 0. -1.
          6    2    1    2  501    0 -0.54411816825E+02  0.64617362463E+02 -0.95890245461E+03  0.97806929333E+03  0.17317498592E+03 0.  0.
         24    2    3    3    0    0 -0.62400545198E+02  0.50768026400E+02 -0.32370674949E+03  0.34265502083E+03  0.78454974914E+02 0.  0.
         -6    2    1    2    0  502  0.54411816825E+02 -0.64617362463E+02 -0.11019901789E+03  0.22024457970E+03  0.17096140500E+03 0.  0.
        -24    2    5    5    0    0 -0.21972624033E+02  0.10081765249E+02 -0.47896743999E+02  0.96477840149E+02  0.80183772402E+02 0.  0.
          5    1    3    3  501    0  0.79887283731E+01  0.13849336064E+02 -0.63519570512E+03  0.63541427250E+03  0.47000000000E+01 0. -1.
        -13    1    4    4    0    0 -0.88173800406E+01 -0.75455556372E+01 -0.25551108941E+01  0.11883189485E+02  0.00000000000E+00 0.  1.
         14    1    4    4    0    0 -0.53583165157E+02  0.58313582037E+02 -0.32115163860E+03  0.33077183134E+03  0.00000000000E+00 0. -1.
         -5    1    5    5    0  502  0.76384440858E+02 -0.74699127713E+02 -0.62302273893E+02  0.12376673955E+03  0.47000000000E+01 0.  1.
         11    1    6    6    0    0 -0.10748048187E+02  0.23653773090E+02 -0.66176518634E+02  0.71093974004E+02  0.00000000000E+00 0. -1.
        -12    1    6    6    0    0 -0.11224575845E+02 -0.13572007841E+02  0.18279774635E+02  0.25383866145E+02  0.00000000000E+00 0.  1.
</event>
<event>
12    1  0.8728348E-002  0.1765386E+03  0.7818608E-02  0.1173835E+00
         21   -1    0    0  503  502  0.00000000000E+00  0.00000000000E+00  0.11876582603E+03  0.11876582603E+03  0.00000000000E+00 0. -1.
         21   -1    0    0  501  503 -0.00000000000E+00 -0.00000000000E+00 -0.32612352879E+03  0.32612352879E+03  0.00000000000E+00 0. -1.
          6    2    1    2  501    0 -0.27212573711E+02  0.31156847245E+02 -0.21534356839E+03  0.27845774298E+03  0.17162339258E+03 0.  0.
         24    2    3    3    0    0 -0.63288268392E+02  0.29489637989E+02 -0.64169079204E+02  0.12295838120E+03  0.78269081481E+02 0.  0.
         -6    2    1    2    0  502  0.27212573711E+02 -0.31156847245E+02  0.79858656262E+01  0.16643161184E+03  0.16101066447E+03 0.  0.
        -24    2    5    5    0    0  0.33162831297E+02 -0.72350710537E+02 -0.21729391843E+02  0.11507573131E+03  0.80223804278E+02 0.  0.
          5    1    3    3  501    0  0.36075694682E+02  0.16672092561E+01 -0.15117448919E+03  0.15549936178E+03  0.47000000000E+01 0. -1.
        -13    1    4    4    0    0 -0.17143048972E+02  0.50616824523E+02 -0.39956490896E+02  0.66726817829E+02  0.00000000000E+00 0.  1.
         14    1    4    4    0    0 -0.46145219420E+02 -0.21127186534E+02 -0.24212588308E+02  0.56231563368E+02  0.00000000000E+00 0. -1.
         -5    1    5    5    0  502 -0.59502575864E+01  0.41193863292E+02  0.29715257469E+02  0.51355880527E+02  0.47000000000E+01 0.  1.
         13    1    6    6    0    0  0.50924312847E+02 -0.16472766287E+02 -0.17415222853E+02  0.56284346448E+02  0.00000000000E+00 0. -1.
        -14    1    6    6    0    0 -0.17761481549E+02 -0.55877944250E+02 -0.43141689899E+01  0.58791384867E+02  0.00000000000E+00 0.  1.
</event>
<event>
12    1  0.8728348E-002  0.1915386E+03  0.7818608E-02  0.1157467E+00
         21   -1    0    0  503  502  0.00000000000E+00  0.00000000000E+00  0.66219806063E+03  0.66219806063E+03  0.00000000000E+00 0. -1.
         21   -1    0    0  501  503 -0.00000000000E+00 -0.00000000000E+00 -0.10631812571E+03  0.10631812571E+03  0.00000000000E+00 0. -1.
          6    2    1    2  501    0 -0.18742131063E+02 -0.79389919242E+02  0.10082980990E+02  0.19008610448E+03  0.17139729828E+03 0.  0.
         24    2    3    3    0    0 -0.39322367314E+02  0.38420400171E+01  0.42442099865E+02  0.98323869654E+02  0.79405551821E+02 0.  0.
         -6    2    1    2    0  502  0.18742131063E+02  0.79389919242E+02  0.54579695394E+03  0.57843008186E+03  0.17330036908E+03 0.  0.
        -24    2    5    5    0    0  0.56733364479E+02  0.46811959016E+02  0.18600035792E+03  0.21513909957E+03  0.79238026638E+02 0.  0.
          5    1    3    3  501    0  0.20580236251E+02 -0.83231959259E+02 -0.32359118875E+02  0.91762234828E+02  0.47000000000E+01 0. -1.
        -13    1    4    4    0    0 -0.22952703748E+02  0.39893109908E+02  0.99103360270E+01  0.47079736487E+02  0.00000000000E+00 0.  1.
         14    1    4    4    0    0 -0.16369663566E+02 -0.36051069891E+02  0.32531763838E+02  0.51244133167E+02  0.00000000000E+00 0. -1.
         -5    1    5    5    0  502 -0.37991233416E+02  0.32577960225E+02  0.35979659602E+03  0.36329098229E+03  0.47000000000E+01 0.  1.
         11    1    6    6    0    0  0.46619760382E+02  0.68752968103E+02  0.15478268774E+03  0.17566460402E+03  0.00000000000E+00 0. -1.
        -12    1    6    6    0    0  0.10113604097E+02 -0.21941009087E+02  0.31217670181E+02  0.39474495553E+02  0.00000000000E+00 0.  1.
</event>
<event>
12    1  0.8728348E-002  0.1744164E+03  0.7818608E-02  0.1173979E+00
         21   -1    0    0  501  502  0.00000000000E+00  0.00000000000E+00  0.13437862125E+03  0.13437862125E+03  0.00000000000E+00 0.  1.
         21   -1    0    0  502  503 -0.00000000000E+00 -0.00000000000E+00 -0.68670760841E+03  0.68670760841E+03  0.00000000000E+00 0.  1.
         -6    2    1    2    0  503  0.41085287329E+01 -0.28609918466E+02 -0.61418489872E+03  0.63847018622E+03  0.17200488781E+03 0.  0.
        -24    2    3    3    0    0  0.81146799430E+01 -0.32668528982E+02 -0.14678882374E+03  0.17101569381E+03  0.81032881832E+02 0.  0.
          6    2    1    2  501    0 -0.41085287329E+01  0.28609918466E+02  0.61855911554E+02  0.18261604344E+03  0.16937254230E+03 0.  0.
         24    2    5    5    0    0 -0.20870006675E+02 -0.35534703952E+02  0.71112011252E+02  0.11550982085E+03  0.81162357073E+02 0.  0.
          5    1    5    5  501    0  0.16761477942E+02  0.64144622418E+02 -0.92560996978E+01  0.67106222585E+02  0.47000000000E+01 0. -1.
        -11    1    6    6    0    0 -0.15826043884E+02 -0.21989227338E+02  0.88699583795E+02  0.92744843249E+02  0.00000000000E+00 0.  1.
         12    1    6    6    0    0 -0.50439627909E+01 -0.13545476613E+02 -0.17587572543E+02  0.22764977603E+02  0.00000000000E+00 0. -1.
         -5    1    3    3    0  503 -0.40061512101E+01  0.40586105159E+01 -0.46739607498E+03  0.46745449241E+03  0.47000000000E+01 0.  1.
         11    1    4    4    0    0 -0.48301517222E+01  0.25021555634E+02 -0.67193893006E+02  0.71863953894E+02  0.00000000000E+00 0. -1.
        -12    1    4    4    0    0  0.12944831665E+02 -0.57690084616E+02 -0.79594930735E+02  0.99151739917E+02  0.00000000000E+00 0.  1.
</event>
<event>
12    1  0.8728348E-002  0.2184499E+03  0.7818608E-02  0.1135215E+00
         21   -1    0    0  503  502  0.00000000000E+00  0.00000000000E+00  0.57423359972E+02  0.57423359972E+02  0.00000000000E+00 0. -1.
         21   -1    0    0  501  503 -0.00000000000E+00 -0.00000000000E+00 -0.87311499868E+03  0.87311499868E+03  0.00000000000E+00 0. -1.
          6    2    1    2  501    0 -0.13304106694E+03 -0.97714176944E+01 -0.51490614664E+03  0.55932880912E+03  0.17298835444E+03 0.  0.
         24    2    3    3    0    0 -0.15299797462E+03 -0.42786091452E+02 -0.44619963341E+03  0.48039262092E+03  0.80274077533E+02 0.  0.
         -6    2    1    2    0  502  0.13304106694E+03  0.97714176944E+01 -0.30078549207E+03  0.37120954953E+03  0.17184065679E+03 0.  0.
        -24    2    5    5    0    0  0.75595549808E+02 -0.49844712985E+02 -0.23904762536E+03  0.26782809731E+03  0.79930844852E+02 0.  0.
          5    1    3    3  501    0  0.19956907676E+02  0.33014673758E+02 -0.68706513227E+02  0.78936188197E+02  0.47000000000E+01 0. -1.
        -13    1    4    4    0    0 -0.52254966021E+02 -0.25337284263E+02 -0.27433942847E+03  0.28041876089E+03  0.00000000000E+00 0.  1.
         14    1    4    4    0    0 -0.10074300860E+03 -0.17448807189E+02 -0.17186020494E+03  0.19997386003E+03  0.00000000000E+00 0. -1.
         -5    1    5    5    0  502  0.57445517135E+02  0.59616130679E+02 -0.61737866717E+02  0.10338145222E+03  0.47000000000E+01 0.  1.
         11    1    6    6    0    0  0.72660357402E+02 -0.18366481281E+01 -0.14376985544E+03  0.16109833068E+03  0.00000000000E+00 0. -1.
        -12    1    6    6    0    0  0.29351924059E+01 -0.48008064857E+02 -0.95277769914E+02  0.10672976663E+03  0.00000000000E+00 0.  1.
</event>
<event>
12    1  0.8728348E-002  0.1739141E+03  0.7818608E-02  0.1173886E+00
         21   -1    0    0  501  502  0.00000000000E+00  0.00000000000E+00  0.21884158260E+03  0.21884158260E+03  0.00000000000E+00 0. -1.
         21   -1    0    0  502  503 -0.00000000000E+00 -0.00000000000E+00 -0.43658437306E+03  0.43658437306E+03  0.00000000000E+00 0. -1.
         -6    2    1    2    0  503  0.19420931716E+02 -0.15497238496E+02 -0.37985278318E+03  0.41767448819E+03  0.17189096602E+03 0.  0.
        -24    2    3    3    0    0  0.61326253303E+02 -0.45832726987E+02 -0.32029532754E+03  0.33864614921E+03  0.78933955435E+02 0.  0.
          6    2    1    2  501    0 -0.19420931716E+02  0.15497238496E+02  0.16210999272E+03  0.23775146748E+03  0.17213010648E+03 0.  0.
         24    2    5    5    0    0  0.53890040833E+02 -0.19394106873E+00  0.73265756211E+02  0.12140672040E+03  0.80421058251E+02 0.  0.
          5    1    5    5  501    0 -0.73310972549E+02  0.15691179565E+02  0.88844236511E+02  0.11634474708E+03  0.47000000000E+01 0. -1.
        -11    1    6    6    0    0  0.54570181029E+02 -0.71367667527E+01  0.88746962404E+02  0.10442634454E+03  0.00000000000E+00 0.  1.
         12    1    6    6    0    0 -0.68014019608E+00  0.69428256840E+01 -0.15481206193E+02  0.16980375860E+02  0.00000000000E+00 0. -1.
         -5    1    3    3    0  503 -0.41905321587E+02  0.30335488491E+02 -0.59557455637E+02  0.79028338976E+02  0.47000000000E+01 0.  1.
         13    1    4    4    0    0 -0.14171684505E+02 -0.27262748652E+01 -0.11214642648E+03  0.11307117312E+03  0.00000000000E+00 0. -1.
        -14    1    4    4    0    0  0.75497937808E+02 -0.43106452122E+02 -0.20814890106E+03  0.22557497609E+03  0.00000000000E+00 0.  1.
</event>
<event>
12    1  0.8728348E-002  0.2490240E+03  0.7818608E-02  0.1114391E+00
         21   -1    0    0  501  502  0.00000000000E+00  0.00000000000E+00  0.23998060300E+03  0.23998060300E+03  0.00000000000E+00 0. -1.
         21   -1    0    0  502  503 -0.00000000000E+00 -0.00000000000E+00 -0.26261770924E+03  0.26261770924E+03  0.00000000000E+00 0. -1.
         -6    2    1    2    0  503 -0.17178875682E+03 -0.36164126349E+02 -0.53100577669E+02  0.25462255732E+03  0.17661753691E+03 0.  0.
        -24    2    3    3    0    0 -0.52547767468E+02  0.42838925860E+02 -0.19204366579E+02  0.10754795405E+03  0.81248466390E+02 0.  0.
          6    2    1    2  501    0  0.17178875682E+03  0.36164126349E+02  0.30463471432E+02  0.24797575492E+03  0.17246660817E+03 0.  0.
         24    2    5    5    0    0  0.55561662343E+02 -0.26064934757E+02 -0.26190463802E+02  0.10440364094E+03  0.80297575929E+02 0.  0.
          5    1    5    5  501    0  0.11622709448E+03  0.62229061106E+02  0.56653935234E+02  0.14357211399E+03  0.47000000000E+01 0. -1.
        -11    1    6    6    0    0  0.41829294340E+01  0.26440194678E+02 -0.11566234558E+01  0.26794002521E+02  0.00000000000E+00 0.  1.
         12    1    6    6    0    0  0.51378732909E+02 -0.52505129435E+02 -0.25033840346E+02  0.77609638415E+02  0.00000000000E+00 0. -1.
         -5    1    3    3    0  503 -0.11924098935E+03 -0.79003052210E+02 -0.33896211090E+02  0.14707460327E+03  0.47000000000E+01 0.  1.
         13    1    4    4    0    0 -0.69602507711E+02  0.48398094206E+02 -0.54624461524E+01  0.84951297344E+02  0.00000000000E+00 0. -1.
        -14    1    4    4    0    0  0.17054740243E+02 -0.55591683453E+01 -0.13741920427E+02  0.22596656710E+02  0.00000000000E+00 0.  1.
</event>
<event>
12    1  0.8728348E-002  0.1892746E+03  0.7818608E-02  0.1159143E+00
         21   -1    0    0  503  502  0.00000000000E+00  0.00000000000E+00  0.47446688723E+03  0.47446688723E+03  0.00000000000E+00 0. -1.
         21   -1    0    0  501  503 -0.00000000000E+00 -0.00000000000E+00 -0.17513512667E+03  0.17513512667E+03  0.00000000000E+00 0. -1.
          6    2    1    2  501    0  0.73682027633E+02 -0.26707471126E+02 -0.95385026724E+02  0.21185070623E+03  0.17216296987E+03 0.  0.
         24    2    3    3    0    0  0.53663761874E+02 -0.78561361505E+02 -0.34324582102E+02  0.12914626373E+03  0.80305003823E+02 0.  0.
         -6    2    1    2    0  502 -0.73682027633E+02  0.26707471126E+02  0.39471678729E+03  0.43775130767E+03  0.17228620081E+03 0.  0.
        -24    2    5    5    0    0 -0.33825023151E+02 -0.23569463314E+02  0.34725328917E+03  0.35780617276E+03  0.75767794148E+02 0.  0.
          5    1    3    3  501    0  0.20018265759E+02  0.51853890378E+02 -0.61060444622E+02  0.82704442497E+02  0.47000000000E+01 0. -1.
        -13    1    4    4    0    0 -0.15429695990E+02 -0.35054003200E+02  0.48123073388E+01  0.38600737825E+02  0.00000000000E+00 0.  1.
         14    1    4    4    0    0  0.69093457865E+02 -0.43507358305E+02 -0.39136889441E+02  0.90545525905E+02  0.00000000000E+00 0. -1.
         -5    1    5    5    0  502 -0.39857004482E+02  0.50276934440E+02  0.47463498118E+02  0.79945134914E+02  0.47000000000E+01 0.  1.
         13    1    6    6    0    0 -0.30421435018E+02  0.21500342598E+02  0.21068089038E+03  0.21394897993E+03  0.00000000000E+00 0. -1.
        -14    1    6    6    0    0 -0.34035881329E+01 -0.45069805912E+02  0.13657239879E+03  0.14385719282E+03  0.00000000000E+00 0.  1.
</event>
<event>
12    1  0.8728348E-002  0.2099646E+03  0.7818608E-02  0.1141674E+00
         21   -1    0    0  503  502  0.00000000000E+00  0.00000000000E+00  0.10717544465E+03  0.10717544465E+03  0.00000000000E+00 0. -1.
         21   -1    0    0  501  503 -0.00000000000E+00 -0.00000000000E+00 -0.52493371685E+03  0.52493371685E+03  0.00000000000E+00 0. -1.
          6    2    1    2  501    0 -0.12531983636E+03 -0.71166814807E+01 -0.35625749232E+03  0.41332279955E+03  0.16781128463E+03 0.  0.
         24    2    3    3    0    0 -0.12505168501E+03  0.49622381553E+00 -0.16693046897E+03  0.22378430740E+03  0.81089238550E+02 0.  0.
         -6    2    1    2    0  502  0.12531983636E+03  0.71166814807E+01 -0.61500779880E+02  0.21878636196E+03  0.16831345078E+03 0.  0.
        -24    2    5    5    0    0 -0.42571425787E+00 -0.15351396153E+02 -0.36960338070E+02  0.88628452873E+02  0.79076478626E+02 0.  0.
          5    1    3    3  501    0 -0.26815135614E+00 -0.76129052962E+01 -0.18932702335E+03  0.18953849214E+03  0.47000000000E+01 0. -1.
        -11    1    4    4    0    0 -0.66666497459E+02 -0.13575574945E+01 -0.26615963475E+02  0.71796060877E+02  0.00000000000E+00 0.  1.
         12    1    4    4    0    0 -0.58385187550E+02  0.18537813100E+01 -0.14031450549E+03  0.15198824653E+03  0.00000000000E+00 0. -1.
         -5    1    5    5    0  502  0.12574555062E+03  0.22468077634E+02 -0.24540441811E+02  0.13015790909E+03  0.47000000000E+01 0.  1.
         11    1    6    6    0    0  0.31958107722E+02 -0.20358857626E+02  0.17233519200E+01  0.37931170227E+02  0.00000000000E+00 0. -1.
        -12    1    6    6    0    0 -0.32383821980E+02  0.50074614722E+01 -0.38683689990E+02  0.50697282645E+02  0.00000000000E+00 0.  1.
</event>
<event>
12    1  0.8728348E-002  0.2121088E+03  0.7818608E-02  0.1140807E+00
         21   -1    0    0  503  502  0.00000000000E+00  0.00000000000E+00  0.16243772135E+03  0.16243772135E+03  0.00000000000E+00 0. -1.
         21   -1    0    0  501  503 -0.00000000000E+00 -0.00000000000E+00 -0.47892863977E+03  0.47892863977E+03  0.00000000000E+00 0. -1.
          6    2    1    2  501    0  0.96625142807E+02 -0.79730864203E+02 -0.36853757644E+03  0.42296536530E+03  0.16548814477E+03 0.  0.
         24    2    3    3    0    0  0.10178352783E+03 -0.52844103586E+02 -0.37021277879E+03  0.39513726555E+03  0.76964740148E+02 0.  0.
         -6    2    1    2    0  502 -0.96625142807E+02  0.79730864203E+02  0.52046658026E+02  0.21840099582E+03  0.17116282142E+03 0.  0.
        -24    2    5    5    0    0 -0.81284480905E+02  0.12076876012E+03  0.52199429607E+02  0.17433788032E+03  0.80477672707E+02 0.  0.
          5    1    3    3  501    0 -0.51583850233E+01 -0.26886760617E+02  0.16752023467E+01  0.27828099745E+02  0.47000000000E+01 0. -1.
        -13    1    4    4    0    0  0.22338902756E+02  0.47109487370E+01 -0.16757144605E+02  0.28319984281E+02  0.00000000000E+00 0.  1.
         14    1    4    4    0    0  0.79444625074E+02 -0.57555052323E+02 -0.35345563418E+03  0.36681728127E+03  0.00000000000E+00 0. -1.
         -5    1    5    5    0  502 -0.15340661902E+02 -0.41037895919E+02 -0.15277158079E+00  0.44063115507E+02  0.47000000000E+01 0.  1.
         13    1    6    6    0    0 -0.80705485310E+02  0.56260751777E+02  0.48592851390E+02  0.10972653624E+03  0.00000000000E+00 0. -1.
        -14    1    6    6    0    0 -0.57899559536E+00  0.64508008344E+02  0.36065782166E+01  0.64611344073E+02  0.00000000000E+00 0.  1.
</event>
<event>
12    1  0.8728348E-002  0.3523765E+03  0.7818608E-02  0.1061660E+00
         21   -1    0    0  503  502  0.00000000000E+00  0.00000000000E+00  0.56789882276E+03  0.56789882276E+03  0.00000000000E+00 0. -1.
         21   -1    0    0  501  503 -0.00000000000E+00 -0.00000000000E+00 -0.35835415130E+03  0.35835415130E+03  0.00000000000E+00 0.  1.
          6    2    1    2  501    0  0.17075509582E+03  0.25567807071E+03 -0.18448649364E+03  0.39774928044E+03  0.17216458742E+03 0.  0.
         24    2    3    3    0    0  0.98666054366E+02  0.55291228402E+02 -0.55668213468E+02  0.14881564315E+03  0.79088781963E+02 0.  0.
         -6    2    1    2    0  502 -0.17075509582E+03 -0.25567807071E+03  0.39403116510E+03  0.52850369363E+03  0.17183427050E+03 0.  0.
        -24    2    5    5    0    0 -0.18858740708E+03 -0.22420565837E+03  0.38634191965E+03  0.49122476447E+03  0.78792785207E+02 0.  0.
          5    1    3    3  501    0  0.72089041451E+02  0.20038684231E+03 -0.12881828018E+03  0.24893363729E+03  0.47000000000E+01 0. -1.
        -13    1    4    4    0    0  0.41070691517E+02  0.30262131760E+02 -0.67806365700E+02  0.84854590623E+02  0.00000000000E+00 0.  1.
         14    1    4    4    0    0  0.57595362850E+02  0.25029096642E+02  0.12138152232E+02  0.63961052525E+02  0.00000000000E+00 0. -1.
         -5    1    5    5    0  502  0.17832311259E+02 -0.31472412338E+02  0.76892454510E+01  0.37278929154E+02  0.47000000000E+01 0.  1.
         13    1    6    6    0    0 -0.64953134266E+02 -0.98142098134E+02  0.21544915290E+03  0.24549769563E+03  0.00000000000E+00 0. -1.
        -14    1    6    6    0    0 -0.12363427281E+03 -0.12606356024E+03  0.17089276675E+03  0.24572706884E+03  0.00000000000E+00 0.  1.
</event>
<event>
12    1  0.8728348E-002  0.2573768E+03  0.7818608E-02  0.1108767E+00
         21   -1    0    0  501  502  0.00000000000E+00  0.00000000000E+00  0.67255253298E+03  0.67255253298E+03  0.00000000000E+00 0.  1.
         21   -1    0    0  502  503 -0.00000000000E+00 -0.00000000000E+00 -0.99456839197E+02  0.99456839197E+02  0.00000000000E+00 0.  1.
         -6    2    1    2    0  503 -0.18997975550E+03  0.22002802010E+02  0.24692403823E+03  0.35667111739E+03  0.17223929439E+03 0.  0.
        -24    2    3    3    0    0 -0.14776164780E+03  0.77621413675E+02  0.15543328392E+03  0.24148237356E+03  0.79345085356E+02 0.  0.
          6    2    1    2  501    0  0.18997975550E+03 -0.22002802010E+02  0.32617165556E+03  0.41533825478E+03  0.17187636895E+03 0.  0.
         24    2    5    5    0    0  0.20596683358E+03 -0.42280245663E+02  0.25480308651E+03  0.33929666068E+03  0.77379941491E+02 0.  0.
          5    1    5    5  501    0 -0.15987078079E+02  0.20277443653E+02  0.71368569044E+02  0.76041594105E+02  0.47000000000E+01 0. -1.
        -13    1    6    6    0    0  0.95761864350E+02 -0.19833908869E+02  0.17803653952E+03  0.20312736893E+03  0.00000000000E+00 0.  1.
         14    1    6    6    0    0  0.11020496923E+03 -0.22446336795E+02  0.76766546988E+02  0.13616929175E+03  0.00000000000E+00 0. -1.
         -5    1    3    3    0  503 -0.42218107702E+02 -0.55618611665E+02  0.91490754310E+02  0.11518874383E+03  0.47000000000E+01 0.  1.
         11    1    4    4    0    0 -0.47454928113E+02 -0.12076316009E+02  0.29405208759E+02  0.57118069931E+02  0.00000000000E+00 0. -1.
        -12    1    4    4    0    0 -0.10030671968E+03  0.89697729684E+02  0.12602807516E+03  0.18436430363E+03  0.00000000000E+00 0.  1.
</event>
<event>
12    1  0.8728348E-002  0.2197784E+03  0.7818608E-02  0.1134077E+00
         21   -1    0    0  501  502  0.00000000000E+00  0.00000000000E+00  0.11689087347E+03  0.11689087347E+03  0.00000000000E+00 0.  1.
         21   -1    0    0  502  503 -0.00000000000E+00 -0.00000000000E+00 -0.43924710906E+03  0.43924710906E+03  0.00000000000E+00 0.  1.
         -6    2    1    2    0  503  0.44571770325E+02 -0.12780379253E+03 -0.22918262466E+03  0.31742501962E+03  0.17295524144E+03 0.  0.
        -24    2    3    3    0    0  0.47257992318E+02 -0.16108613691E+03 -0.19238683806E+03  0.26751560020E+03  0.79811274557E+02 0.  0.
          6    2    1    2  501    0 -0.44571770325E+02  0.12780379253E+03 -0.93173610931E+02  0.23871296291E+03  0.17315341404E+03 0.  0.
         24    2    5    5    0    0 -0.73297206358E+02  0.14557169973E+03 -0.93355218796E+02  0.20461058495E+03  0.81158452258E+02 0.  0.
          5    1    5    5  501    0  0.28725436033E+02 -0.17767907204E+02  0.18160786514E+00  0.34102377968E+02  0.47000000000E+01 0. -1.
        -13    1    6    6    0    0 -0.17801233607E+02  0.31410414363E+02 -0.65293139516E+02  0.74610268169E+02  0.00000000000E+00 0.  1.
         14    1    6    6    0    0 -0.55495972751E+02  0.11416128537E+03 -0.28062079280E+02  0.13000031678E+03  0.00000000000E+00 0. -1.
         -5    1    3    3    0  503 -0.26862219926E+01  0.33282344380E+02 -0.36795786599E+02  0.49909419426E+02  0.47000000000E+01 0.  1.
         11    1    4    4    0    0 -0.22632675755E+02 -0.43145531048E+02 -0.53619362076E+02  0.72448677356E+02  0.00000000000E+00 0. -1.
        -12    1    4    4    0    0  0.69890668073E+02 -0.11794060586E+03 -0.13876747599E+03  0.19506692284E+03  0.00000000000E+00 0.  1.
</event>
<event>
12    1  0.8728348E-002  0.1890102E+03  0.7818608E-02  0.1160055E+00
         21   -1    0    0  501  502  0.00000000000E+00  0.00000000000E+00  0.11560414923E+03  0.11560414923E+03  0.00000000000E+00 0.  1.
         21   -1    0    0  502  503 -0.00000000000E+00 -0.00000000000E+00 -0.32078867665E+03  0.32078867665E+03  0.00000000000E+00 0.  1.
         -6    2    1    2    0  503  0.58456096440E+02  0.49489651695E+02 -0.15162145304E+03  0.23993965856E+03  0.16945687915E+03 0.  0.
        -24    2    3    3    0    0  0.26543187079E+01  0.38554390498E+02 -0.15110903553E+02  0.91984805795E+02  0.82093718739E+02 0.  0.
          6    2    1    2  501    0 -0.58456096440E+02 -0.49489651695E+02 -0.53563074375E+02  0.19645316732E+03  0.17279613184E+03 0.  0.
         24    2    5    5    0    0 -0.30862170859E+02 -0.18832814830E+02 -0.87752217313E+02  0.14267348835E+03  0.10652757451E+03 0.  0.
          5    1    5    5  501    0 -0.27593925581E+02 -0.30656836865E+02  0.34189142938E+02  0.53779678972E+02  0.47000000000E+01 0. -1.
        -13    1    6    6    0    0 -0.69337231913E+02  0.43755660892E+00 -0.50844435553E+02  0.85982555277E+02  0.00000000000E+00 0.  1.
         14    1    6    6    0    0  0.38475061054E+02 -0.19270371439E+02 -0.36907781760E+02  0.56690933075E+02  0.00000000000E+00 0. -1.
         -5    1    3    3    0  503  0.55801777732E+02  0.10935261197E+02 -0.13651054949E+03  0.14795485277E+03  0.47000000000E+01 0.  1.
         11    1    4    4    0    0  0.86851016781E+01  0.63940378777E+02 -0.12849647332E+02  0.65794501791E+02  0.00000000000E+00 0. -1.
        -12    1    4    4    0    0 -0.60307829701E+01 -0.25385988279E+02 -0.22612562208E+01  0.26190304004E+02  0.00000000000E+00 0.  1.
</event>
<event>
12    1  0.8728348E-002  0.1945534E+03  0.7818608E-02  0.1154820E+00
         21   -1    0    0  501  502  0.00000000000E+00  0.00000000000E+00  0.37375287692E+03  0.37375287692E+03  0.00000000000E+00 0. -1.
         21   -1    0    0  502  503 -0.00000000000E+00 -0.00000000000E+00 -0.19742707942E+03  0.19742707942E+03  0.00000000000E+00 0. -1.
         -6    2    1    2    0  503 -0.17275771850E+02  0.86875232122E+02 -0.11233809411E+03  0.22307382191E+03  0.17116169075E+03 0.  0.
        -24    2    3    3    0    0 -0.32310201693E+02  0.54789016374E+02 -0.14330238214E+03  0.17578284544E+03  0.79487424014E+02 0.  0.
          6    2    1    2  501    0  0.17275771850E+02 -0.86875232122E+02  0.28866389161E+03  0.34810613444E+03  0.17322032290E+03 0.  0.
         24    2    5    5    0    0 -0.94968919281E+01 -0.28892051008E+02  0.48828488933E+02  0.99868475741E+02  0.81636692410E+02 0.  0.
          5    1    5    5  501    0  0.26772663778E+02 -0.57983181114E+02  0.23983540268E+03  0.24823765870E+03  0.47000000000E+01 0. -1.
        -11    1    6    6    0    0  0.62572762644E+01  0.13487345327E+02 -0.15345426770E+02  0.21366892918E+02  0.00000000000E+00 0.  1.
         12    1    6    6    0    0 -0.15754168193E+02 -0.42379396336E+02  0.64173915702E+02  0.78501582824E+02  0.00000000000E+00 0. -1.
         -5    1    3    3    0  503  0.15034429843E+02  0.32086215749E+02  0.30964288028E+02  0.47290976463E+02  0.47000000000E+01 0.  1.
         11    1    4    4    0    0  0.53425835029E+01  0.32818821509E+02 -0.12350782409E+03  0.12790543716E+03  0.00000000000E+00 0. -1.
        -12    1    4    4    0    0 -0.37652785196E+02  0.21970194864E+02 -0.19794558049E+02  0.47877408282E+02  0.00000000000E+00 0.  1.
</event>
<event>
12    1  0.8728348E-002  0.1784860E+03  0.7818608E-02  0.1170377E+00
         21   -1    0    0  503  502  0.00000000000E+00  0.00000000000E+00  0.91521970047E+03  0.91521970047E+03  0.00000000000E+00 0. -1.
         21   -1    0    0  501  503 -0.00000000000E+00 -0.00000000000E+00 -0.96270349172E+02  0.96270349172E+02  0.00000000000E+00 0. -1.
          6    2    1    2  501    0  0.74429834839E+01  0.24222956536E+02  0.43857857890E+01  0.17853987226E+03  0.17667795913E+03 0.  0.
         24    2    3    3    0    0  0.27371647980E+02  0.82374592725E+02 -0.16129573016E+01  0.11659764612E+03  0.77830770334E+02 0.  0.
         -6    2    1    2    0  502 -0.74429834839E+01 -0.24222956536E+02  0.81456356551E+03  0.83295017738E+03  0.17219188749E+03 0.  0.
        -24    2    5    5    0    0  0.37593018852E+02 -0.98788204869E+01  0.73440546680E+03  0.73977611160E+03  0.80040486430E+02 0.  0.
          5    1    3    3  501    0 -0.19928664496E+02 -0.58151636189E+02  0.59987430905E+01  0.61942226136E+02  0.47000000000E+01 0. -1.
        -13    1    4    4    0    0  0.40861718565E+02  0.37596272113E+02  0.27031210832E+02  0.61756344451E+02  0.00000000000E+00 0.  1.
         14    1    4    4    0    0 -0.13490070585E+02  0.44778320612E+02 -0.28644168134E+02  0.54841301674E+02  0.00000000000E+00 0. -1.
         -5    1    5    5    0  502 -0.45036002336E+02 -0.14344136049E+02  0.80158098706E+02  0.93174065778E+02  0.47000000000E+01 0.  1.
         13    1    6    6    0    0  0.22416788479E+01  0.31152204101E+02  0.17594896420E+03  0.17869953259E+03  0.00000000000E+00 0. -1.
        -14    1    6    6    0    0  0.35351340004E+02 -0.41031024588E+02  0.55845650261E+03  0.56107657902E+03  0.00000000000E+00 0.  1.
</event>
<event>
12    1  0.8728348E-002  0.2352306E+03  0.7818608E-02  0.1123322E+00
         21   -1    0    0  503  502  0.00000000000E+00  0.00000000000E+00  0.39717400143E+02  0.39717400143E+02  0.00000000000E+00 0.  1.
         21   -1    0    0  501  503 -0.00000000000E+00 -0.00000000000E+00 -0.17267229503E+04  0.17267229503E+04  0.00000000000E+00 0.  1.
          6    2    1    2  501    0  0.15838235429E+03  0.21877434618E+02 -0.12352525207E+04  0.12571130973E+04  0.17006162729E+03 0.  0.
         24    2    3    3    0    0  0.12831354951E+02 -0.19800660088E+02 -0.39266110319E+03  0.40101465440E+03  0.77931388244E+02 0.  0.
         -6    2    1    2    0  502 -0.15838235429E+03 -0.21877434618E+02 -0.45175302947E+03  0.50932725321E+03  0.17253944167E+03 0.  0.
        -24    2    5    5    0    0 -0.58640119280E+02  0.87684033398E+01 -0.34847522324E+03  0.36243928199E+03  0.80073113035E+02 0.  0.
          5    1    3    3  501    0  0.14555099934E+03  0.41678094706E+02 -0.84259141754E+03  0.85609844288E+03  0.47000000000E+01 0. -1.
        -11    1    4    4    0    0 -0.23329464079E+01 -0.39866111860E+02 -0.34330344310E+03  0.34561829170E+03  0.00000000000E+00 0.  1.
         12    1    4    4    0    0  0.15164301359E+02  0.20065451771E+02 -0.49357660088E+02  0.55396362695E+02  0.00000000000E+00 0. -1.
         -5    1    5    5    0  502 -0.99742235010E+02 -0.30645837958E+02 -0.10327780623E+03  0.14688797122E+03  0.47000000000E+01 0.  1.
         11    1    6    6    0    0  0.40748043178E+01  0.63123323779E+01  0.81283185197E+00  0.75571334445E+01  0.00000000000E+00 0. -1.
        -12    1    6    6    0    0 -0.62714923598E+02  0.24560709619E+01 -0.34928805509E+03  0.35488214855E+03  0.00000000000E+00 0.  1.
</event>
<event>
12    1  0.8728348E-002  0.2186255E+03  0.7818608E-02  0.1135805E+00
         21   -1    0    0  501  502  0.00000000000E+00  0.00000000000E+00  0.21258398092E+03  0.21258398092E+03  0.00000000000E+00 0.  1.
         21   -1    0    0  502  503 -0.00000000000E+00 -0.00000000000E+00 -0.22599523587E+03  0.22599523587E+03  0.00000000000E+00 0.  1.
         -6    2    1    2    0  503  0.11374082116E+03  0.49191829250E+02 -0.42384032093E+02  0.22269604909E+03  0.18011194753E+03 0.  0.
        -24    2    3    3    0    0  0.84797295219E+02  0.10392946208E+03 -0.34381463270E+02  0.16008560868E+03  0.80333073669E+02 0.  0.
          6    2    1    2  501    0 -0.11374082116E+03 -0.49191829250E+02  0.28972777148E+02  0.21588316770E+03  0.17438265343E+03 0.  0.
         24    2    5    5    0    0 -0.14083779917E+03 -0.28191541936E+02 -0.77825553088E+01  0.16540245110E+03  0.81653866719E+02 0.  0.
          5    1    5    5  501    0  0.27096978010E+02 -0.21000287314E+02  0.36755332457E+02  0.50480716601E+02  0.47000000000E+01 0. -1.
        -11    1    6    6    0    0 -0.94569321328E+02 -0.48422641562E+02 -0.29751439908E+02  0.11033248356E+03  0.00000000000E+00 0.  1.
         12    1    6    6    0    0 -0.46268477842E+02  0.20231099626E+02  0.21968884599E+02  0.55069967536E+02  0.00000000000E+00 0. -1.
         -5    1    3    3    0  503  0.28943525941E+02 -0.54737632827E+02 -0.80025688226E+01  0.62610440416E+02  0.47000000000E+01 0.  1.
         11    1    4    4    0    0 -0.51214109922E+01  0.22100806451E+02  0.16742656412E+02  0.28195585471E+02  0.00000000000E+00 0. -1.
        -12    1    4    4    0    0  0.89918706211E+02  0.81828655626E+02 -0.51124119682E+02  0.13189002321E+03  0.00000000000E+00 0.  1.
</event>
<event>
12    1  0.8728348E-002  0.1944863E+03  0.7818608E-02  0.1154532E+00
         21   -1    0    0  503  502  0.00000000000E+00  0.00000000000E+00  0.20426800976E+03  0.20426800976E+03  0.00000000000E+00 0.  1.
         21   -1    0    0  501  503 -0.00000000000E+00 -0.00000000000E+00 -0.20604581741E+03  0.20604581741E+03  0.00000000000E+00 0.  1.
          6    2    1    2  501    0 -0.63514604240E+01  0.92642781029E+02 -0.66567932258E+02  0.20531950919E+03  0.17059245389E+03 0.  0.
         24    2    3    3    0    0 -0.54392286936E+02  0.41070250573E+02 -0.79247002285E+02  0.13355255492E+03  0.83131890351E+02 0.  0.
         -6    2    1    2    0  502  0.63514604240E+01 -0.92642781029E+02  0.64790124611E+02  0.20499431798E+03  0.17088558813E+03 0.  0.
        -24    2    5    5    0    0 -0.66525785320E+01 -0.88635581828E+02  0.10712273432E+03  0.16028075718E+03  0.79461423017E+02 0.  0.
          5    1    3    3  501    0  0.48040826512E+02  0.51572530456E+02  0.12679070027E+02  0.71766954278E+02  0.47000000000E+01 0. -1.
        -13    1    4    4    0    0 -0.51081372721E+02  0.50066652208E+02 -0.21032867664E+02  0.74554395072E+02  0.00000000000E+00 0.  1.
         14    1    4    4    0    0 -0.33109142149E+01 -0.89964016354E+01 -0.58214134621E+02  0.58998159844E+02  0.00000000000E+00 0. -1.
         -5    1    5    5    0  502  0.13004038956E+02 -0.40071992012E+01 -0.42332609707E+02  0.44713560798E+02  0.47000000000E+01 0.  1.
         11    1    6    6    0    0 -0.26171813840E+02  0.11062243538E+01  0.33793241909E+02  0.42757113686E+02  0.00000000000E+00 0. -1.
        -12    1    6    6    0    0  0.19519235307E+02 -0.89741806182E+02  0.73329492409E+02  0.11752364350E+03  0.00000000000E+00 0.  1.
</event>
<event>
12    1  0.8728348E-002  0.1775174E+03  0.7818608E-02  0.1170568E+00
         21   -1    0    0  503  502  0.00000000000E+00  0.00000000000E+00  0.13451405976E+03  0.13451405976E+03  0.00000000000E+00 0.  1.
         21   -1    0    0  501  503 -0.00000000000E+00 -0.00000000000E+00 -0.11441763701E+04  0.11441763701E+04  0.00000000000E+00 0.  1.
          6    2    1    2  501    0 -0.38177720343E+02 -0.23935705567E+02 -0.10751468756E+04  0.10894798251E+04  0.17027926732E+03 0.  0.
         24    2    3    3    0    0 -0.48545760987E+02 -0.75460008934E+02 -0.83495582673E+03  0.84356097658E+03  0.79956142749E+02 0.  0.
         -6    2    1    2    0  502  0.38177720343E+02  0.23935705567E+02  0.65484565256E+02  0.18921060474E+03  0.17170314013E+03 0.  0.
        -24    2    5    5    0    0  0.75343412660E+02  0.46089833487E+02  0.79325011000E+02  0.14354068020E+03  0.80688084128E+02 0.  0.
          5    1    3    3  501    0  0.10368040644E+02  0.51524303367E+02 -0.24019104887E+03  0.24591884852E+03  0.47000000000E+01 0. -1.
        -13    1    4    4    0    0  0.15090910086E+02 -0.48906988244E+02 -0.34420621163E+03  0.34799072573E+03  0.00000000000E+00 0.  1.
         14    1    4    4    0    0 -0.63636671073E+02 -0.26553020690E+02 -0.49074961510E+03  0.49557025086E+03  0.00000000000E+00 0. -1.
         -5    1    5    5    0  502 -0.37165692317E+02 -0.22154127920E+02 -0.13840445744E+02  0.45669924542E+02  0.47000000000E+01 0.  1.
         11    1    6    6    0    0 -0.75550484017E+01  0.30842419675E+02  0.70955354711E+01  0.32537366694E+02  0.00000000000E+00 0. -1.
        -12    1    6    6    0    0  0.82898461062E+02  0.15247413813E+02  0.72229475529E+02  0.11100331351E+03  0.00000000000E+00 0.  1.
</event>
<event>
12    1  0.8728348E-002  0.1972514E+03  0.7818608E-02  0.1152126E+00
         21   -1    0    0  503  502  0.00000000000E+00  0.00000000000E+00  0.13949899253E+04  0.13949899253E+04  0.00000000000E+00 0. -1.
         21   -1    0    0  501  503 -0.00000000000E+00 -0.00000000000E+00 -0.46640341376E+02  0.46640341376E+02  0.00000000000E+00 0. -1.
          6    2    1    2  501    0 -0.89019244129E+02  0.36592838066E+02  0.21656157529E+03  0.29278205456E+03  0.17192717631E+03 0.  0.
         24    2    3    3    0    0 -0.67439495810E+02  0.84134692627E+02  0.10574795426E+03  0.17019468947E+03  0.78465727521E+02 0.  0.
         -6    2    1    2    0  502  0.89019244129E+02 -0.36592838066E+02  0.11317880086E+04  0.11488482121E+04  0.17217623641E+03 0.  0.
        -24    2    5    5    0    0 -0.21455295328E+02 -0.17384745690E+02  0.65349542262E+03  0.65756472724E+03  0.67620588906E+02 0.  0.
          5    1    3    3  501    0 -0.21579748319E+02 -0.47541854560E+02  0.11081362103E+03  0.12258736509E+03  0.47000000000E+01 0. -1.
        -13    1    4    4    0    0 -0.29792982047E+02  0.14195775829E+02  0.80256351882E+02  0.86776862400E+02  0.00000000000E+00 0.  1.
         14    1    4    4    0    0 -0.37646513763E+02  0.69938916798E+02  0.25491602377E+02  0.83417827070E+02  0.00000000000E+00 0. -1.
         -5    1    5    5    0  502  0.11047453946E+03 -0.19208092377E+02  0.47829258599E+03  0.49128348486E+03  0.47000000000E+01 0.  1.
         11    1    6    6    0    0 -0.18087726704E+02 -0.40325724052E+02  0.53497447714E+03  0.53679700174E+03  0.00000000000E+00 0. -1.
        -12    1    6    6    0    0 -0.33675686243E+01  0.22940978363E+02  0.11852094547E+03  0.12076772550E+03  0.00000000000E+00 0.  1.
</event>
<event>
12    1  0.8728348E-002  0.1985625E+03  0.7818608E-02  0.1151258E+00
         21   -1    0    0  503  502  0.00000000000E+00  0.00000000000E+00  0.67551925037E+02  0.67551925037E+02  0.00000000000E+00 0. -1.
         21   -1    0    0  501  503 -0.00000000000E+00 -0.00000000000E+00 -0.71354632993E+03  0.71354632993E+03  0.00000000000E+00 0. -1.
          6    2    1    2  501    0  0.96384935317E+02 -0.25036951446E+02 -0.49317849942E+03  0.53165034940E+03  0.17178520608E+03 0.  0.
         24    2    3    3    0    0 -0.25152653872E+02 -0.22989188458E+02 -0.13049746504E+03  0.14911250601E+03  0.63590819191E+02 0.  0.
         -6    2    1    2    0  502 -0.96384935317E+02  0.25036951446E+02 -0.15281590547E+03  0.24944790557E+03  0.17016066506E+03 0.  0.
        -24    2    5    5    0    0 -0.11364495950E+02 -0.43228731145E+02 -0.73318118988E+02  0.11442691985E+03  0.75631332459E+02 0.  0.
          5    1    3    3  501    0  0.12153758919E+03 -0.20477629884E+01 -0.36268103438E+03  0.38253784338E+03  0.47000000000E+01 0. -1.
        -11    1    4    4    0    0 -0.41376905629E+02  0.21339457655E+01 -0.86532933216E+02  0.95940349045E+02  0.00000000000E+00 0.  1.
         12    1    4    4    0    0  0.16224251757E+02 -0.25123134224E+02 -0.43964531824E+02  0.53172156969E+02  0.00000000000E+00 0. -1.
         -5    1    5    5    0  502 -0.85020439367E+02  0.68265682591E+02 -0.79497786484E+02  0.13502098572E+03  0.47000000000E+01 0.  1.
         11    1    6    6    0    0  0.11905534917E+02 -0.46320756945E+01  0.12260357498E+02  0.17706333694E+02  0.00000000000E+00 0. -1.
        -12    1    6    6    0    0 -0.23270030867E+02 -0.38596655451E+02 -0.85578476486E+02  0.96720586155E+02  0.00000000000E+00 0.  1.
</event>
<event>
12    1  0.8728348E-002  0.1863818E+03  0.7818608E-02  0.1163021E+00
         21   -1    0    0  503  502  0.00000000000E+00  0.00000000000E+00  0.89194734168E+02  0.89194734168E+02  0.00000000000E+00 0. -1.
         21   -1    0    0  501  503 -0.00000000000E+00 -0.00000000000E+00 -0.64758654363E+03  0.64758654363E+03  0.00000000000E+00 0. -1.
          6    2    1    2  501    0 -0.15691366795E+02  0.52820796470E+02 -0.51907614140E+03  0.55152352662E+03  0.17805028589E+03 0.  0.
         24    2    3    3    0    0 -0.22752071309E+01  0.10301320735E+03 -0.31897097029E+03  0.34473029424E+03  0.80495952838E+02 0.  0.
         -6    2    1    2    0  502  0.15691366795E+02 -0.52820796470E+02 -0.39315668062E+02  0.18525775119E+03  0.17244841863E+03 0.  0.
        -24    2    5    5    0    0  0.96154703478E+01 -0.10303921897E+03 -0.26373379292E+02  0.13283257293E+03  0.78989868848E+02 0.  0.
          5    1    3    3  501    0 -0.13416159664E+02 -0.50192410882E+02 -0.20010517111E+03  0.20679323237E+03  0.47000000000E+01 0. -1.
        -13    1    4    4    0    0 -0.41307103469E+02  0.56027123492E+02 -0.17516954805E+03  0.18849319863E+03  0.00000000000E+00 0.  1.
         14    1    4    4    0    0  0.39031896338E+02  0.46986083860E+02 -0.14380142224E+03  0.15623709562E+03  0.00000000000E+00 0. -1.
         -5    1    5    5    0  502  0.60758964473E+01  0.50218422501E+02 -0.12942288771E+02  0.52425178252E+02  0.47000000000E+01 0.  1.
         13    1    6    6    0    0  0.37240161988E+02 -0.29813722275E+02  0.61144136684E+01  0.48094425408E+02  0.00000000000E+00 0. -1.
        -14    1    6    6    0    0 -0.27624691641E+02 -0.73225496697E+02 -0.32487792960E+02  0.84738147526E+02  0.00000000000E+00 0.  1.
</event>
<event>
12    1  0.8728348E-002  0.2536768E+03  0.7818608E-02  0.1111774E+00
         21   -1    0    0  503  502  0.00000000000E+00  0.00000000000E+00  0.31500815544E+04  0.31500815544E+04  0.00000000000E+00 0. -1.
         21   -1    0    0  501  503 -0.00000000000E+00 -0.00000000000E+00 -0.79190034767E+02  0.79190034767E+02  0.00000000000E+00 0.  1.
          6    2    1    2  501    0  0.13744884464E+03  0.12577649067E+03  0.13613613221E+03  0.28357284632E+03  0.16482900891E+03 0.  0.
         24    2    3    3    0    0  0.13994953829E+03  0.14065157240E+03  0.86006090631E+02  0.23101209486E+03  0.81245321469E+02 0.  0.
         -6    2    1    2    0  502 -0.13744884464E+03 -0.12577649067E+03  0.29347553874E+04  0.29456987429E+04  0.17216268206E+03 0.  0.
        -24    2    5    5    0    0 -0.13711333813E+03 -0.10572795805E+03  0.28917492746E+04  0.28980157064E+04  0.79389538396E+02 0.  0.
          5    1    3    3  501    0 -0.25006936450E+01 -0.14875081737E+02  0.50130041575E+02  0.52560751457E+02  0.47000000000E+01 0. -1.
        -13    1    4    4    0    0  0.81508063407E+02  0.40070539611E+02  0.84836266320E+01  0.91220526560E+02  0.00000000000E+00 0.  1.
         14    1    4    4    0    0  0.58441474880E+02  0.10058103279E+03  0.77522464000E+02  0.13979156830E+03  0.00000000000E+00 0. -1.
         -5    1    5    5    0  502 -0.33550650754E+00 -0.20048532611E+02  0.43006112868E+02  0.47683036485E+02  0.47000000000E+01 0.  1.
         13    1    6    6    0    0 -0.73633421145E+02 -0.94720584275E+02  0.15068372512E+04  0.15116058916E+04  0.00000000000E+00 0. -1.
        -14    1    6    6    0    0 -0.63479916989E+02 -0.11007373779E+02  0.13849120233E+04  0.13864098148E+04  0.00000000000E+00 0.  1.
</event>
<event>
12    1  0.8728348E-002  0.2863164E+03  0.7818608E-02  0.1092422E+00
         21   -1    0    0  503  502  0.00000000000E+00  0.00000000000E+00  0.45724738773E+03  0.45724738773E+03  0.00000000000E+00 0. -1.
         21   -1    0    0  501  503 -0.00000000000E+00 -0.00000000000E+00 -0.22604316137E+03  0.22604316137E+03  0.00000000000E+00 0. -1.
          6    2    1    2  501    0 -0.11297714914E+03  0.19878665333E+03 -0.40668208360E+02  0.28919024184E+03  0.17232853228E+03 0.  0.
         24    2    3    3    0    0 -0.11107882878E+03  0.16328864333E+03 -0.87165436917E+02  0.23047231785E+03  0.80734061353E+02 0.  0.
         -6    2    1    2    0  502  0.11297714914E+03 -0.19878665333E+03  0.27187243472E+03  0.39410030725E+03  0.17064718470E+03 0.  0.
        -24    2    5    5    0    0  0.63702177804E+02 -0.20920758232E+03  0.23942766003E+03  0.33400561559E+03  0.80052276064E+02 0.  0.
          5    1    3    3  501    0 -0.18983203585E+01  0.35498010002E+02  0.46497228556E+02  0.58717923990E+02  0.47000000000E+01 0. -1.
        -13    1    4    4    0    0 -0.15908061554E+02  0.92180668977E+02 -0.49560265868E+02  0.10586105095E+03  0.00000000000E+00 0.  1.
         14    1    4    4    0    0 -0.95170767222E+02  0.71107974349E+02 -0.37605171049E+02  0.12461126690E+03  0.00000000000E+00 0. -1.
         -5    1    5    5    0  502  0.49274971331E+02  0.10420928989E+02  0.32444774690E+02  0.60094691657E+02  0.47000000000E+01 0.  1.
         11    1    6    6    0    0  0.54217770955E+02 -0.14333796463E+03  0.21300038678E+03  0.26240141684E+03  0.00000000000E+00 0. -1.
        -12    1    6    6    0    0  0.94844068489E+01 -0.65869617684E+02  0.26427273252E+02  0.71604198751E+02  0.00000000000E+00 0.  1.
</event>
<event>
12    1  0.8728348E-002  0.1783101E+03  0.7818608E-02  0.1169954E+00
         21   -1    0    0  503  502  0.00000000000E+00  0.00000000000E+00  0.63425602728E+03  0.63425602728E+03  0.00000000000E+00 0. -1.
         21   -1    0    0  501  503 -0.00000000000E+00 -0.00000000000E+00 -0.13319937187E+03  0.13319937187E+03  0.00000000000E+00 0. -1.
          6    2    1    2  501    0 -0.20502883852E+02 -0.26276161856E+02 -0.54092927616E+02  0.18437261351E+03  0.17307920402E+03 0.  0.
         24    2    3    3    0    0 -0.55070940032E+02  0.35567543109E+02 -0.18001918390E+02  0.10472184265E+03  0.79653855542E+02 0.  0.
         -6    2    1    2    0  502  0.20502883852E+02  0.26276161856E+02  0.55514958302E+03  0.58308278565E+03  0.17516754968E+03 0.  0.
        -24    2    5    5    0    0 -0.20060626297E+02  0.68476067809E+02  0.23866566816E+03  0.26119710907E+03  0.78557164149E+02 0.  0.
          5    1    3    3  501    0  0.34568056180E+02 -0.61843704965E+02 -0.36091009227E+02  0.79650770861E+02  0.47000000000E+01 0. -1.
        -13    1    4    4    0    0  0.14010947794E+02  0.13873540933E+02  0.15363266679E+02  0.24996234900E+02  0.00000000000E+00 0.  1.
         14    1    4    4    0    0 -0.69081887825E+02  0.21694002176E+02 -0.33365185069E+02  0.79725607747E+02  0.00000000000E+00 0. -1.
         -5    1    5    5    0  502  0.40563510148E+02 -0.42199905953E+02  0.31648391486E+03  0.32188567658E+03  0.47000000000E+01 0.  1.
         11    1    6    6    0    0 -0.19599204208E+02  0.83511705793E+02  0.22528795330E+03  0.24106637201E+03  0.00000000000E+00 0. -1.
        -12    1    6    6    0    0 -0.46142208826E+00 -0.15035637984E+02  0.13377714859E+02  0.20130737065E+02  0.00000000000E+00 0.  1.
</event>
<event>
12    1  0.8728348E-002  0.2400622E+03  0.7818608E-02  0.1119901E+00
         21   -1    0    0  501  502  0.00000000000E+00  0.00000000000E+00  0.46554547837E+03  0.46554547837E+03  0.00000000000E+00 0. -1.
         21   -1    0    0  502  503 -0.00000000000E+00 -0.00000000000E+00 -0.12425480389E+03  0.12425480389E+03  0.00000000000E+00 0. -1.
         -6    2    1    2    0  503 -0.12541322844E+02 -0.16670332168E+03  0.14485927871E+03  0.27961463346E+03  0.17103464672E+03 0.  0.
        -24    2    3    3    0    0  0.28535047749E+02 -0.17353641009E+03  0.12685686371E+03  0.23400612258E+03  0.87960598898E+02 0.  0.
          6    2    1    2  501    0  0.12541322844E+02  0.16670332168E+03  0.19643139577E+03  0.31018564880E+03  0.17228627699E+03 0.  0.
         24    2    5    5    0    0 -0.27092285915E+02  0.12875396904E+03  0.67382954645E+02  0.16987682347E+03  0.83702425754E+02 0.  0.
          5    1    5    5  501    0  0.39633608760E+02  0.37949352645E+02  0.12904844112E+03  0.14030882533E+03  0.47000000000E+01 0. -1.
        -13    1    6    6    0    0  0.19687713944E+02  0.18153369074E+02 -0.81718415657E+01  0.27998747894E+02  0.00000000000E+00 0.  1.
         14    1    6    6    0    0 -0.46779999859E+02  0.11060059996E+03  0.75554796211E+02  0.14187807558E+03  0.00000000000E+00 0. -1.
         -5    1    3    3    0  503 -0.41076370593E+02  0.68330884109E+01  0.18002414995E+02  0.45608510872E+02  0.47000000000E+01 0.  1.
         13    1    4    4    0    0 -0.60532300281E+01 -0.13403460041E+03  0.54989985889E+02  0.14500280772E+03  0.00000000000E+00 0. -1.
        -14    1    4    4    0    0  0.34588277777E+02 -0.39501809685E+02  0.71866877824E+02  0.89003314861E+02  0.00000000000E+00 0.  1.
</event>
<event>
12    1  0.8728348E-002  0.2802663E+03  0.7818608E-02  0.1095566E+00
         21   -1    0    0  501  502  0.00000000000E+00  0.00000000000E+00  0.18371470640E+03  0.18371470640E+03  0.00000000000E+00 0.  1.
         21   -1    0    0  502  503 -0.00000000000E+00 -0.00000000000E+00 -0.13576151536E+04  0.13576151536E+04  0.00000000000E+00 0. -1.
         -6    2    1    2    0  503 -0.12918767631E+03 -0.17918396731E+03 -0.12249618825E+04  0.12566148220E+04  0.17249013680E+03 0.  0.
        -24    2    3    3    0    0 -0.59886918402E+02 -0.12809033559E+03 -0.48061226736E+03  0.50728739431E+03  0.79741907529E+02 0.  0.
          6    2    1    2  501    0  0.12918767631E+03  0.17918396731E+03  0.51061435311E+02  0.28471503804E+03  0.17221798065E+03 0.  0.
         24    2    5    5    0    0  0.11697004150E+03  0.92428050437E+02  0.87218052979E+02  0.18981903858E+03  0.78735910019E+02 0.  0.
          5    1    5    5  501    0  0.12217634813E+02  0.86755916869E+02 -0.36156617668E+02  0.94895999459E+02  0.47000000000E+01 0. -1.
        -13    1    6    6    0    0  0.30690918933E+02 -0.55455015014E+01  0.40601266325E+02  0.51197147568E+02  0.00000000000E+00 0.  1.
         14    1    6    6    0    0  0.86279122566E+02  0.97973551938E+02  0.46616786654E+02  0.13862189101E+03  0.00000000000E+00 0. -1.
         -5    1    3    3    0  503 -0.69300757909E+02 -0.51093631720E+02 -0.74434961518E+03  0.74932742767E+03  0.47000000000E+01 0.  1.
         13    1    4    4    0    0 -0.76075996667E+02 -0.12405144498E+03 -0.43699845069E+03  0.46059088590E+03  0.00000000000E+00 0. -1.
        -14    1    4    4    0    0  0.16189078265E+02 -0.40388906066E+01 -0.43613816672E+02  0.46696508404E+02  0.00000000000E+00 0.  1.
</event>
<event>
12    1  0.8728348E-002  0.1870637E+03  0.7818608E-02  0.1161204E+00
         21   -1    0    0  503  502  0.00000000000E+00  0.00000000000E+00  0.25503379984E+02  0.25503379984E+02  0.00000000000E+00 0. -1.
         21   -1    0    0  501  503 -0.00000000000E+00 -0.00000000000E+00 -0.20926142114E+04  0.20926142114E+04  0.00000000000E+00 0. -1.
          6    2    1    2  501    0  0.73593914682E+02 -0.22955082648E+02 -0.16553911139E+04  0.16658942463E+04  0.17012025115E+03 0.  0.
         24    2    3    3    0    0  0.63327315912E+01 -0.52044884357E+02 -0.58670779653E+03  0.59469099477E+03  0.81746971029E+02 0.  0.
         -6    2    1    2    0  502 -0.73593914682E+02  0.22955082648E+02 -0.41171971753E+03  0.45222334508E+03  0.17044010072E+03 0.  0.
        -24    2    5    5    0    0 -0.33039267413E+02  0.77208951061E+02 -0.24313170018E+03  0.27047579696E+03  0.83614100443E+02 0.  0.
          5    1    3    3  501    0  0.67261183090E+02  0.29089801709E+02 -0.10686833174E+04  0.10712032516E+04  0.47000000000E+01 0. -1.
        -11    1    4    4    0    0  0.44114638204E+02 -0.27575933440E+02 -0.32635179033E+03  0.33047242617E+03  0.00000000000E+00 0.  1.
         12    1    4    4    0    0 -0.37781906613E+02 -0.24468950917E+02 -0.26035600620E+03  0.26421856860E+03  0.00000000000E+00 0. -1.
         -5    1    5    5    0  502 -0.40554647269E+02 -0.54253868413E+02 -0.16858801735E+03  0.18174754812E+03  0.47000000000E+01 0.  1.
         13    1    6    6    0    0 -0.20177963502E+02 -0.15094347068E+02 -0.47026792268E+02  0.53352682365E+02  0.00000000000E+00 0. -1.
        -14    1    6    6    0    0 -0.12861303911E+02  0.92303298129E+02 -0.19610490791E+03  0.21712311460E+03  0.00000000000E+00 0.  1.
</event>
<event>
12    1  0.8728348E-002  0.1958766E+03  0.7818608E-02  0.1153667E+00
         21   -1    0    0  503  502  0.00000000000E+00  0.00000000000E+00  0.16650713760E+03  0.16650713760E+03  0.00000000000E+00 0.  1.
         21   -1    0    0  501  503 -0.00000000000E+00 -0.00000000000E+00 -0.40370692441E+03  0.40370692441E+03  0.00000000000E+00 0. -1.
          6    2    1    2  501    0 -0.16564574435E+02 -0.85954832860E+02  0.69665885726E+02  0.20616163515E+03  0.17316658384E+03 0.  0.
         24    2    3    3    0    0  0.58823391912E+01 -0.12566103124E+03  0.55870003136E+02  0.15827779135E+03  0.78135173248E+02 0.  0.
         -6    2    1    2    0  502  0.16564574435E+02  0.85954832860E+02 -0.30686567254E+03  0.36405242685E+03  0.17522845116E+03 0.  0.
        -24    2    5    5    0    0 -0.51635454357E+02  0.76787511728E+02 -0.23168342693E+03  0.26202427506E+03  0.80105981679E+02 0.  0.
          5    1    3    3  501    0 -0.22446913626E+02  0.39706198378E+02  0.13795882590E+02  0.47883843803E+02  0.47000000000E+01 0. -1.
        -11    1    4    4    0    0 -0.18054864691E+02 -0.50665700312E+02  0.58555210933E+02  0.79509144471E+02  0.00000000000E+00 0.  1.
         12    1    4    4    0    0  0.23937203882E+02 -0.74995330926E+02 -0.26852077972E+01  0.78768646880E+02  0.00000000000E+00 0. -1.
         -5    1    5    5    0  502  0.68200028791E+02  0.91673211322E+01 -0.75182245603E+02  0.10202815179E+03  0.47000000000E+01 0.  1.
         11    1    6    6    0    0 -0.47093252847E+02  0.35367610465E+02 -0.20316996703E+03  0.21153410561E+03  0.00000000000E+00 0. -1.
        -12    1    6    6    0    0 -0.45422015096E+01  0.41419901263E+02 -0.28513459902E+02  0.50490169447E+02  0.00000000000E+00 0.  1.
</event>
<event>
12    1  0.8728348E-002  0.1791844E+03  0.7818608E-02  0.1168939E+00
         21   -1    0    0  503  502  0.00000000000E+00  0.00000000000E+00  0.11058401217E+04  0.11058401217E+04  0.00000000000E+00 0. -1.
         21   -1    0    0  501  503 -0.00000000000E+00 -0.00000000000E+00 -0.57917286675E+02  0.57917286675E+02  0.00000000000E+00 0. -1.
          6    2    1    2  501    0  0.46629179466E+01  0.45572521960E+02  0.11246018091E+03  0.21155221922E+03  0.17322947672E+03 0.  0.
         24    2    3    3    0    0 -0.51785533308E+02  0.23662463576E+02  0.11435140394E+03  0.15078919566E+03  0.80121684350E+02 0.  0.
         -6    2    1    2    0  502 -0.46629179466E+01 -0.45572521960E+02  0.93546265414E+03  0.95220518918E+03  0.17177237104E+03 0.  0.
        -24    2    5    5    0    0  0.48069386016E+02  0.86840583897E+01  0.64989896369E+03  0.65675099020E+03  0.81037777499E+02 0.  0.
          5    1    3    3  501    0  0.56448451254E+02  0.21910058384E+02 -0.18912230267E+01  0.60763023558E+02  0.47000000000E+01 0. -1.
        -11    1    4    4    0    0 -0.19222605921E+01  0.37658292491E+01  0.92867610925E+02  0.92963808628E+02  0.00000000000E+00 0.  1.
         12    1    4    4    0    0 -0.49863272716E+02  0.19896634327E+02  0.21483793016E+02  0.57825387035E+02  0.00000000000E+00 0. -1.
         -5    1    5    5    0  502 -0.52732303962E+02 -0.54256580350E+02  0.28556369046E+03  0.29545419899E+03  0.47000000000E+01 0.  1.
         11    1    6    6    0    0  0.23504720784E+02 -0.23186321272E+02  0.51298741504E+03  0.51404879670E+03  0.00000000000E+00 0. -1.
        -12    1    6    6    0    0  0.24564665232E+02  0.31870379662E+02  0.13691154864E+03  0.14270219350E+03  0.00000000000E+00 0.  1.
</event>
<event>
12    1  0.8728348E-002  0.2230361E+03  0.7818608E-02  0.1132012E+00
         21   -1    0    0  503  502  0.00000000000E+00  0.00000000000E+00  0.30859512990E+03  0.30859512990E+03  0.00000000000E+00 0. -1.
         21   -1    0    0  501  503 -0.00000000000E+00 -0.00000000000E+00 -0.34148388646E+03  0.34148388646E+03  0.00000000000E+00 0. -1.
          6    2    1    2  501    0 -0.39480535861E+02  0.13691164277E+03  0.22064824396E+03  0.31373677630E+03  0.17158556641E+03 0.  0.
         24    2    3    3    0    0 -0.20978838004E+02  0.54068037265E+02  0.27543421699E+02  0.10274640169E+03  0.80216698283E+02 0.  0.
         -6    2    1    2    0  502  0.39480535861E+02 -0.13691164277E+03 -0.25353700052E+03  0.33634224006E+03  0.16894253809E+03 0.  0.
        -24    2    5    5    0    0 -0.26356563377E+02 -0.11851679141E+03 -0.18325957278E+03  0.23818980228E+03  0.91702849536E+02 0.  0.
          5    1    3    3  501    0 -0.18501697857E+02  0.82843605507E+02  0.19310482226E+03  0.21099037461E+03  0.47000000000E+01 0. -1.
        -13    1    4    4    0    0 -0.37644114044E+02 -0.14773548691E+01  0.23954418734E+02  0.44643880616E+02  0.00000000000E+00 0.  1.
         14    1    4    4    0    0  0.16665276040E+02  0.55545392134E+02  0.35890029656E+01  0.58102521073E+02  0.00000000000E+00 0. -1.
         -5    1    5    5    0  502  0.65837099238E+02 -0.18394851360E+02 -0.70277427741E+02  0.98152437782E+02  0.47000000000E+01 0.  1.
         11    1    6    6    0    0 -0.32312728227E+02 -0.12548616015E+03 -0.12787618958E+03  0.18205276338E+03  0.00000000000E+00 0. -1.
        -12    1    6    6    0    0  0.59561648497E+01  0.69693687402E+01 -0.55383383208E+02  0.56137038895E+02  0.00000000000E+00 0.  1.
</event>
<event>
12    1  0.8728348E-002  0.1880323E+03  0.7818608E-02  0.1160351E+00
         21   -1    0    0  501  502  0.00000000000E+00  0.00000000000E+00  0.80332509368E+03  0.80332509368E+03  0.00000000000E+00 0. -1.
         21   -1    0    0  502  503 -0.00000000000E+00 -0.00000000000E+00 -0.16819234937E+03  0.16819234937E+03  0.00000000000E+00 0. -1.
         -6    2    1    2    0  503  0.26831496948E+02  0.71738174287E+02 -0.99902595388E+02  0.21292408315E+03  0.17172606599E+03 0.  0.
        -24    2    3    3    0    0  0.63765747772E+02  0.49166783918E+02 -0.11044752030E+02  0.11397251483E+03  0.79901842026E+02 0.  0.
          6    2    1    2  501    0 -0.26831496948E+02 -0.71738174287E+02  0.73503533970E+03  0.75859335990E+03  0.17123270774E+03 0.  0.
         24    2    5    5    0    0 -0.76560811112E+02 -0.76906683269E+02  0.57425256142E+03  0.59015075850E+03  0.82071418544E+02 0.  0.
          5    1    5    5  501    0  0.49729314164E+02  0.51685089815E+01  0.16078277829E+03  0.16844260140E+03  0.47000000000E+01 0. -1.
        -11    1    6    6    0    0  0.99778933367E+01 -0.37470845099E+02  0.21807443567E+03  0.22149510622E+03  0.00000000000E+00 0.  1.
         12    1    6    6    0    0 -0.86538704448E+02 -0.39435838170E+02  0.35617812574E+03  0.36865565228E+03  0.00000000000E+00 0. -1.
         -5    1    3    3    0  503 -0.36934250824E+02  0.22571390369E+02 -0.88857843357E+02  0.98951568321E+02  0.47000000000E+01 0.  1.
         11    1    4    4    0    0  0.60041664047E+02  0.32782444441E+02 -0.40908196009E+02  0.79706778795E+02  0.00000000000E+00 0. -1.
        -12    1    4    4    0    0  0.37240837246E+01  0.16384339477E+02  0.29863443979E+02  0.34265736034E+02  0.00000000000E+00 0.  1.
</event>
<event>
12    1  0.8728348E-002  0.2247832E+03  0.7818608E-02  0.1130510E+00
         21   -1    0    0  501  502  0.00000000000E+00  0.00000000000E+00  0.29597976972E+03  0.29597976972E+03  0.00000000000E+00 0. -1.
         21   -1    0    0  502  503 -0.00000000000E+00 -0.00000000000E+00 -0.18811443276E+03  0.18811443276E+03  0.00000000000E+00 0. -1.
         -6    2    1    2    0  503  0.14556015644E+03 -0.83252357015E+01  0.12872175329E+03  0.25834548128E+03  0.17004713827E+03 0.  0.
        -24    2    3    3    0    0  0.16712839323E+03  0.79758511365E+01  0.13576701080E+03  0.23001458076E+03  0.80489204957E+02 0.  0.
          6    2    1    2  501    0 -0.14556015644E+03  0.83252357015E+01 -0.20856416326E+02  0.22574872121E+03  0.17108602027E+03 0.  0.
         24    2    5    5    0    0 -0.61325288152E+02  0.53199649516E+02 -0.52344143601E+02  0.12513662939E+03  0.79550442932E+02 0.  0.
          5    1    5    5  501    0 -0.84234868288E+02 -0.44874413815E+02  0.31487727276E+02  0.10061209182E+03  0.47000000000E+01 0. -1.
        -11    1    6    6    0    0 -0.78100497925E+01 -0.17180707706E+00 -0.48855143364E+02  0.49475766073E+02  0.00000000000E+00 0.  1.
         12    1    6    6    0    0 -0.53515238360E+02  0.53371456594E+02 -0.34890002379E+01  0.75660863320E+02  0.00000000000E+00 0. -1.
         -5    1    3    3    0  503 -0.21568236792E+02 -0.16301086838E+02 -0.70452575162E+01  0.28330900513E+02  0.47000000000E+01 0.  1.
         11    1    4    4    0    0  0.65923186529E+02  0.33077977025E+02  0.24971539498E+02  0.77869100875E+02  0.00000000000E+00 0. -1.
        -12    1    4    4    0    0  0.10120520670E+03 -0.25102125889E+02  0.11079547131E+03  0.15214547989E+03  0.00000000000E+00 0.  1.
</event>
<event>
12    1  0.8728348E-002  0.3418599E+03  0.7818608E-02  0.1066031E+00
         21   -1    0    0  503  502  0.00000000000E+00  0.00000000000E+00  0.51359201070E+03  0.51359201070E+03  0.00000000000E+00 0.  1.
         21   -1    0    0  501  503 -0.00000000000E+00 -0.00000000000E+00 -0.37087488863E+03  0.37087488863E+03  0.00000000000E+00 0. -1.
          6    2    1    2  501    0  0.62049867368E+02  0.28870895048E+03 -0.20371991412E+03  0.39775672901E+03  0.17177184851E+03 0.  0.
         24    2    3    3    0    0  0.56469250169E+02  0.22215006016E+03 -0.77476295875E+02  0.25485546829E+03  0.80058152939E+02 0.  0.
         -6    2    1    2    0  502 -0.62049867368E+02 -0.28870895048E+03  0.34643703619E+03  0.48671017032E+03  0.17223566914E+03 0.  0.
        -24    2    5    5    0    0 -0.24416797516E+02 -0.14452420057E+03  0.13121583380E+03  0.22489392558E+03  0.10897824632E+03 0.  0.
          5    1    3    3  501    0  0.55806171987E+01  0.66558890319E+02 -0.12624361824E+03  0.14290126072E+03  0.47000000000E+01 0. -1.
        -11    1    4    4    0    0  0.73312451522E+02  0.16773614221E+03 -0.75043287945E+02  0.19784242219E+03  0.00000000000E+00 0.  1.
         12    1    4    4    0    0 -0.16843201352E+02  0.54413917945E+02 -0.24330079291E+01  0.57013046099E+02  0.00000000000E+00 0. -1.
         -5    1    5    5    0  502 -0.37633069852E+02 -0.14418474991E+03  0.21522120239E+03  0.26181624474E+03  0.47000000000E+01 0.  1.
         13    1    6    6    0    0  0.83126162796E+01 -0.14786283872E+03  0.11831899862E+03  0.18955712621E+03  0.00000000000E+00 0. -1.
        -14    1    6    6    0    0 -0.32729413796E+02  0.33386381460E+01  0.12896835181E+02  0.35336799371E+02  0.00000000000E+00 0.  1.
</event>
<event>
12    1  0.8728348E-002  0.2359669E+03  0.7818608E-02  0.1122539E+00
         21   -1    0    0  501  502  0.00000000000E+00  0.00000000000E+00  0.10702553079E+03  0.10702553079E+03  0.00000000000E+00 0. -1.
         21   -1    0    0  502  503 -0.00000000000E+00 -0.00000000000E+00 -0.52346489060E+03  0.52346489060E+03  0.00000000000E+00 0.  1.
         -6    2    1    2    0  503  0.10970553439E+03  0.11765108600E+03 -0.18217687218E+03  0.29810871955E+03  0.17263636234E+03 0.  0.
        -24    2    3    3    0    0  0.29890589972E+02  0.37374178528E+02 -0.10823362861E+02  0.92684956606E+02  0.78632559465E+02 0.  0.
          6    2    1    2  501    0 -0.10970553439E+03 -0.11765108600E+03 -0.23426248762E+03  0.33238170184E+03  0.17239953683E+03 0.  0.
         24    2    5    5    0    0 -0.83775644165E+02 -0.15199739017E+03 -0.20604516362E+03  0.28070641577E+03  0.78866451863E+02 0.  0.
          5    1    5    5  501    0 -0.25929890221E+02  0.34346304167E+02 -0.28217323994E+02  0.51675286067E+02  0.47000000000E+01 0. -1.
        -11    1    6    6    0    0 -0.47350306817E+02 -0.94699416953E+02 -0.17828678176E+03  0.20735526923E+03  0.00000000000E+00 0.  1.
         12    1    6    6    0    0 -0.36425337348E+02 -0.57297973213E+02 -0.27758381864E+02  0.73351146541E+02  0.00000000000E+00 0. -1.
         -5    1    3    3    0  503  0.79814944414E+02  0.80276907472E+02 -0.17135350932E+03  0.20542376295E+03  0.47000000000E+01 0.  1.
         13    1    4    4    0    0  0.51237739420E+02  0.35355004979E+01 -0.48703937950E+00  0.51361881897E+02  0.00000000000E+00 0. -1.
        -14    1    4    4    0    0 -0.21347149448E+02  0.33838678030E+02 -0.10336323481E+02  0.41323074710E+02  0.00000000000E+00 0.  1.
</event>
<event>
12    1  0.8728348E-002  0.1808060E+03  0.7818608E-02  0.1167225E+00
         21   -1    0    0  503  502  0.00000000000E+00  0.00000000000E+00  0.94884373609E+02  0.94884373609E+02  0.00000000000E+00 0.  1.
         21   -1    0    0  501  503 -0.00000000000E+00 -0.00000000000E+00 -0.34305768676E+03  0.34305768676E+03  0.00000000000E+00 0.  1.
          6    2    1    2  501    0 -0.15482582873E+02  0.56147798398E+02 -0.12063486476E+03  0.21735585065E+03  0.17116807407E+03 0.  0.
         24    2    3    3    0    0  0.20219875695E+00 -0.23007935022E+01 -0.13320239906E+03  0.15536969745E+03  0.79947040196E+02 0.  0.
         -6    2    1    2    0  502  0.15482582873E+02 -0.56147798398E+02 -0.12753844840E+03  0.22058620972E+03  0.17029367123E+03 0.  0.
        -24    2    5    5    0    0  0.26480681329E+02  0.28292049063E+02 -0.91858817064E+02  0.12814070090E+03  0.80500499572E+02 0.  0.
          5    1    3    3  501    0 -0.15684781630E+02  0.58448591900E+02  0.12567534303E+02  0.61986153198E+02  0.47000000000E+01 0. -1.
        -13    1    4    4    0    0 -0.25111934801E+02 -0.14788017206E+02 -0.13023163065E+02  0.31920173849E+02  0.00000000000E+00 0.  1.
         14    1    4    4    0    0  0.25314133558E+02  0.12487223704E+02 -0.12017923599E+03  0.12344952360E+03  0.00000000000E+00 0. -1.
         -5    1    5    5    0  502 -0.10998098456E+02 -0.84439847461E+02 -0.35679631334E+02  0.92445508820E+02  0.47000000000E+01 0.  1.
         11    1    6    6    0    0 -0.19479514997E+02  0.16509095244E+02 -0.72555849441E+02  0.76917832902E+02  0.00000000000E+00 0. -1.
        -12    1    6    6    0    0  0.45960196326E+02  0.11782953819E+02 -0.19302967623E+02  0.51222867999E+02  0.00000000000E+00 0.  1.
</event>
<event>
12    1  0.8728348E-002  0.2110092E+03  0.7818608E-02  0.1141390E+00
         21   -1    0    0  503  502  0.00000000000E+00  0.00000000000E+00  0.49669885560E+02  0.49669885560E+02  0.00000000000E+00 0.  1.
         21   -1    0    0  501  503 -0.00000000000E+00 -0.00000000000E+00 -0.88950036002E+03  0.88950036002E+03  0.00000000000E+00 0.  1.
          6    2    1    2  501    0 -0.10190862984E+03 -0.67209970073E+02 -0.45640041767E+03  0.50151344423E+03  0.16826123908E+03 0.  0.
         24    2    3    3    0    0 -0.82030928027E+01 -0.51702098015E+02 -0.12609109367E+03  0.15778744683E+03  0.79104467655E+02 0.  0.
         -6    2    1    2    0  502  0.10190862984E+03  0.67209970073E+02 -0.38343005679E+03  0.43765680135E+03  0.17211135467E+03 0.  0.
        -24    2    5    5    0    0  0.13069877852E+02  0.67320678481E+02 -0.12146956816E+03  0.16100228085E+03  0.80398899195E+02 0.  0.
          5    1    3    3  501    0 -0.93705537037E+02 -0.15507872059E+02 -0.33030932399E+03  0.34372599739E+03  0.47000000000E+01 0. -1.
        -11    1    4    4    0    0 -0.32775462726E+02 -0.52022456654E+02 -0.11586775169E+03  0.13117127290E+03  0.00000000000E+00 0.  1.
         12    1    4    4    0    0  0.24572369924E+02  0.32035863988E+00 -0.10223341986E+02  0.26616173930E+02  0.00000000000E+00 0. -1.
         -5    1    5    5    0  502  0.88838751988E+02 -0.11070840777E+00 -0.26196048863E+03  0.27665452050E+03  0.47000000000E+01 0.  1.
         11    1    6    6    0    0 -0.41909137865E+00  0.71076939272E+02 -0.12732823298E+03  0.14582381784E+03  0.00000000000E+00 0. -1.
        -12    1    6    6    0    0  0.13488969230E+02 -0.37562607913E+01  0.58586648201E+01  0.15178463015E+02  0.00000000000E+00 0.  1.
</event>
<event>
12    1  0.8728348E-002  0.2390818E+03  0.7818608E-02  0.1120489E+00
         21   -1    0    0  501  502  0.00000000000E+00  0.00000000000E+00  0.17975717173E+03  0.17975717173E+03  0.00000000000E+00 0. -1.
         21   -1    0    0  502  503 -0.00000000000E+00 -0.00000000000E+00 -0.85675192554E+03  0.85675192554E+03  0.00000000000E+00 0. -1.
         -6    2    1    2    0  503 -0.16118350212E+03 -0.35751527477E+02 -0.74985176193E+03  0.78704367821E+03  0.17292135056E+03 0.  0.
        -24    2    3    3    0    0 -0.38778545222E+02 -0.47921833936E+02 -0.47578391743E+03  0.48660006750E+03  0.81295829336E+02 0.  0.
          6    2    1    2  501    0  0.16118350212E+03  0.35751527477E+02  0.72857008117E+02  0.24946541905E+03  0.17223982872E+03 0.  0.
         24    2    5    5    0    0  0.61948577845E+02  0.67797998117E+02  0.26973703882E+01  0.12369176822E+03  0.82814146578E+02 0.  0.
          5    1    5    5  501    0  0.99234924272E+02 -0.32046470641E+02  0.70159637729E+02  0.12577365083E+03  0.47000000000E+01 0. -1.
        -11    1    6    6    0    0  0.68854049549E+02  0.61346682973E+02 -0.24067459314E+02  0.95307598065E+02  0.00000000000E+00 0.  1.
         12    1    6    6    0    0 -0.69054717049E+01  0.64513151449E+01  0.26764829702E+02  0.28384170158E+02  0.00000000000E+00 0. -1.
         -5    1    3    3    0  503 -0.12240495690E+03  0.12170306460E+02 -0.27406784450E+03  0.30044361072E+03  0.47000000000E+01 0.  1.
         13    1    4    4    0    0 -0.40946609849E+02 -0.14803545297E+02 -0.96513267446E+02  0.10588002930E+03  0.00000000000E+00 0. -1.
        -14    1    4    4    0    0  0.21680646277E+01 -0.33118288639E+02 -0.37927064998E+03  0.38072003820E+03  0.00000000000E+00 0.  1.
</event>
<event>
12    1  0.8728348E-002  0.2536277E+03  0.7818608E-02  0.1111055E+00
         21   -1    0    0  501  502  0.00000000000E+00  0.00000000000E+00  0.67176944922E+03  0.67176944922E+03  0.00000000000E+00 0. -1.
         21   -1    0    0  502  503 -0.00000000000E+00 -0.00000000000E+00 -0.13378712904E+03  0.13378712904E+03  0.00000000000E+00 0.  1.
         -6    2    1    2    0  503 -0.58478620242E+01  0.18625401250E+03  0.54046263192E+02  0.25918573092E+03  0.17184728652E+03 0.  0.
        -24    2    3    3    0    0 -0.36078173864E+02  0.46447750061E+02 -0.17414974923E+02  0.99221793344E+02  0.77991376496E+02 0.  0.
          6    2    1    2  501    0  0.58478620242E+01 -0.18625401250E+03  0.48393605699E+03  0.54637084734E+03  0.17205301770E+03 0.  0.
         24    2    5    5    0    0  0.84899419198E+01 -0.10419023261E+03  0.13544432002E+03  0.18830657197E+03  0.78654418422E+02 0.  0.
          5    1    5    5  501    0 -0.26420798956E+01 -0.82063779895E+02  0.34849173697E+03  0.35806427537E+03  0.47000000000E+01 0. -1.
        -11    1    6    6    0    0  0.14063078780E+02 -0.11589722995E+03  0.12843655804E+03  0.17356810634E+03  0.00000000000E+00 0.  1.
         12    1    6    6    0    0 -0.55731368600E+01  0.11706997346E+02  0.70077619752E+01  0.14738465633E+02  0.00000000000E+00 0. -1.
         -5    1    3    3    0  503  0.30230311840E+02  0.13980626244E+03  0.71461238115E+02  0.15996393757E+03  0.47000000000E+01 0.  1.
         13    1    4    4    0    0  0.19338301675E+02  0.12736337272E+02  0.14095363201E+02  0.27108365177E+02  0.00000000000E+00 0. -1.
        -14    1    4    4    0    0 -0.55416475539E+02  0.33711412788E+02 -0.31510338124E+02  0.72113428167E+02  0.00000000000E+00 0.  1.
</event>
<event>
12    1  0.8728348E-002  0.2108082E+03  0.7818608E-02  0.1141271E+00
         21   -1    0    0  503  502  0.00000000000E+00  0.00000000000E+00  0.15195477275E+04  0.15195477275E+04  0.00000000000E+00 0.  1.
         21   -1    0    0  501  503 -0.00000000000E+00 -0.00000000000E+00 -0.30174045256E+02  0.30174045256E+02  0.00000000000E+00 0.  1.
          6    2    1    2  501    0  0.11905608613E+03 -0.79071132725E+01  0.59516296195E+03  0.63139453892E+03  0.17379078919E+03 0.  0.
         24    2    3    3    0    0  0.12130869837E+03 -0.60968731809E+02  0.45860194490E+03  0.48479436497E+03  0.79226547809E+02 0.  0.
         -6    2    1    2    0  502 -0.11905608613E+03  0.79071132725E+01  0.89421072034E+03  0.91832723389E+03  0.17168349381E+03 0.  0.
        -24    2    5    5    0    0 -0.90797693785E+02  0.43731833038E+02  0.82730387375E+03  0.83720656202E+03  0.79538880711E+02 0.  0.
          5    1    3    3  501    0 -0.22526122416E+01  0.53061618536E+02  0.13656101705E+03  0.14660017395E+03  0.47000000000E+01 0. -1.
        -11    1    4    4    0    0  0.12313821093E+03 -0.63099087974E+02  0.35290260291E+03  0.37905772784E+03  0.00000000000E+00 0.  1.
         12    1    4    4    0    0 -0.18295125593E+01  0.21303561655E+01  0.10569934199E+03  0.10573663713E+03  0.00000000000E+00 0. -1.
         -5    1    5    5    0  502 -0.28258392347E+02 -0.35824719766E+02  0.66906846589E+02  0.81120671871E+02  0.47000000000E+01 0.  1.
         13    1    6    6    0    0  0.31380147293E+00  0.34386682389E+02  0.16055435065E+03  0.16419574267E+03  0.00000000000E+00 0. -1.
        -14    1    6    6    0    0 -0.91111495258E+02  0.93451506492E+01  0.66674952310E+03  0.67301081935E+03  0.00000000000E+00 0.  1.
</event>
<event>
12    1  0.8728348E-002  0.1751256E+03  0.7818608E-02  0.1172804E+00
         21   -1    0    0  503  502  0.00000000000E+00  0.00000000000E+00  0.97348872053E+02  0.97348872053E+02  0.00000000000E+00 0.  1.
         21   -1    0    0  501  503 -0.00000000000E+00 -0.00000000000E+00 -0.46057561389E+03  0.46057561389E+03  0.00000000000E+00 0.  1.
          6    2    1    2  501    0 -0.31877975247E+02  0.10749345889E+02 -0.33946496081E+03  0.38197570718E+03  0.17186397969E+03 0.  0.
         24    2    3    3    0    0  0.40342148203E+02 -0.19938988174E+02 -0.22841499694E+03  0.24591798210E+03  0.79228725356E+02 0.  0.
         -6    2    1    2    0  502  0.31877975247E+02 -0.10749345889E+02 -0.23761781024E+02  0.17594877876E+03  0.17106021386E+03 0.  0.
        -24    2    5    5    0    0  0.35118114902E+02  0.15425381527E+02 -0.76056466687E+02  0.11719131958E+03  0.80485991769E+02 0.  0.
          5    1    3    3  501    0 -0.72220123450E+02  0.30688334064E+02 -0.11104996387E+03  0.13605772508E+03  0.47000000000E+01 0. -1.
        -13    1    4    4    0    0  0.21764506763E+02 -0.91341599508E+01 -0.22233344868E+03  0.22358284602E+03  0.00000000000E+00 0.  1.
         14    1    4    4    0    0  0.18577641440E+02 -0.10804828224E+02 -0.60815482603E+01  0.22335136079E+02  0.00000000000E+00 0. -1.
         -5    1    5    5    0  502 -0.32401396551E+01 -0.26174727416E+02  0.52294685664E+02  0.58757459177E+02  0.47000000000E+01 0.  1.
         11    1    6    6    0    0 -0.99114314029E+01  0.26935683339E+02 -0.76692843358E+00  0.28711595020E+02  0.00000000000E+00 0. -1.
        -12    1    6    6    0    0  0.45029546305E+02 -0.11510301812E+02 -0.75289538254E+02  0.88479724563E+02  0.00000000000E+00 0.  1.
</event>
<event>
12    1  0.8728348E-002  0.3019718E+03  0.7818608E-02  0.1084267E+00
         21   -1    0    0  501  502  0.00000000000E+00  0.00000000000E+00  0.32886943887E+03  0.32886943887E+03  0.00000000000E+00 0. -1.
         21   -1    0    0  502  503 -0.00000000000E+00 -0.00000000000E+00 -0.19463990560E+04  0.19463990560E+04  0.00000000000E+00 0. -1.
         -6    2    1    2    0  503  0.15742718563E+03 -0.19262375200E+03 -0.18622863658E+04  0.18866100480E+04  0.17117165775E+03 0.  0.
        -24    2    3    3    0    0  0.39725171858E+02 -0.15294921840E+03 -0.12765890986E+04  0.12878686920E+04  0.62884722636E+02 0.  0.
          6    2    1    2  501    0 -0.15742718563E+03  0.19262375200E+03  0.24475674865E+03  0.38865844688E+03  0.17106225099E+03 0.  0.
         24    2    5    5    0    0 -0.10729086062E+03  0.71844555813E+02  0.19799084851E+03  0.24969656458E+03  0.80467566738E+02 0.  0.
          5    1    5    5  501    0 -0.50136325010E+02  0.12077919618E+03  0.46765900140E+02  0.13896188230E+03  0.47000000000E+01 0. -1.
        -11    1    6    6    0    0 -0.25193244960E+02 -0.42087377771E+01  0.41605802930E+01  0.25879016474E+02  0.00000000000E+00 0.  1.
         12    1    6    6    0    0 -0.82097615656E+02  0.76053293590E+02  0.19383026822E+03  0.22381754810E+03  0.00000000000E+00 0. -1.
         -5    1    3    3    0  503  0.11770201377E+03 -0.39674533599E+02 -0.58569726718E+03  0.59874135605E+03  0.47000000000E+01 0.  1.
         11    1    4    4    0    0  0.50062675423E+02 -0.85980184452E+02 -0.64065227992E+03  0.64833186514E+03  0.00000000000E+00 0. -1.
        -12    1    4    4    0    0 -0.10337503566E+02 -0.66969033946E+02 -0.63593681870E+03  0.63953682682E+03  0.00000000000E+00 0.  1.
</event>
<event>
12    1  0.8728348E-002  0.1956018E+03  0.7818608E-02  0.1154438E+00
         21   -1    0    0  503  502  0.00000000000E+00  0.00000000000E+00  0.20579290534E+03  0.20579290534E+03  0.00000000000E+00 0.  1.
         21   -1    0    0  501  503 -0.00000000000E+00 -0.00000000000E+00 -0.22059165636E+03  0.22059165636E+03  0.00000000000E+00 0.  1.
          6    2    1    2  501    0  0.63057942034E+02 -0.68521205429E+02 -0.96621516127E+02  0.21435853226E+03  0.16715981374E+03 0.  0.
         24    2    3    3    0    0  0.87654277570E+02 -0.77654747239E+02 -0.11582406506E+03  0.18150690836E+03  0.76262779834E+02 0.  0.
         -6    2    1    2    0  502 -0.63057942034E+02  0.68521205429E+02  0.81822765103E+02  0.21202602944E+03  0.17201340827E+03 0.  0.
        -24    2    5    5    0    0 -0.75919125025E+02  0.93371118835E+02  0.24992730334E+02  0.14850696871E+03  0.83353487081E+02 0.  0.
          5    1    3    3  501    0 -0.24596335536E+02  0.91335418097E+01  0.19202548936E+02  0.32851623908E+02  0.47000000000E+01 0. -1.
        -13    1    4    4    0    0  0.29066557456E+01  0.13741690518E+02 -0.56053624199E+01  0.15122922792E+02  0.00000000000E+00 0.  1.
         14    1    4    4    0    0  0.84747621824E+02 -0.91396437757E+02 -0.11021870264E+03  0.16638398556E+03  0.00000000000E+00 0. -1.
         -5    1    5    5    0  502  0.12861182991E+02 -0.24849913405E+02  0.56830034769E+02  0.63519060730E+02  0.47000000000E+01 0.  1.
         11    1    6    6    0    0  0.82169556814E+01  0.33030751632E+02 -0.15414011779E+02  0.37364965852E+02  0.00000000000E+00 0. -1.
        -12    1    6    6    0    0 -0.84136080706E+02  0.60340367203E+02  0.40406742113E+02  0.11114200286E+03  0.00000000000E+00 0.  1.
</event>
<event>
12    1  0.8728348E-002  0.1748762E+03  0.7818608E-02  0.1172960E+00
         21   -1    0    0  501  502  0.00000000000E+00  0.00000000000E+00  0.18480629193E+04  0.18480629193E+04  0.00000000000E+00 0. -1.
         21   -1    0    0  502  503 -0.00000000000E+00 -0.00000000000E+00 -0.23494962145E+02  0.23494962145E+02  0.00000000000E+00 0. -1.
         -6    2    1    2    0  503 -0.19088966244E+02  0.15464963720E+02  0.40276915862E+03  0.43909530754E+03  0.17314196553E+03 0.  0.
        -24    2    3    3    0    0 -0.40204347474E+02  0.56209476292E+02  0.15421260377E+03  0.18629414933E+03  0.78409745140E+02 0.  0.
          6    2    1    2  501    0  0.19088966244E+02 -0.15464963720E+02  0.14217987985E+04  0.14324625739E+04  0.17272419750E+03 0.  0.
         24    2    5    5    0    0  0.56478251815E+02 -0.24286447188E+02  0.65884871108E+03  0.66853148854E+03  0.95252835307E+02 0.  0.
          5    1    5    5  501    0 -0.37389285571E+02  0.88214834688E+01  0.76295008742E+03  0.76393108533E+03  0.47000000000E+01 0. -1.
        -13    1    6    6    0    0  0.28093726557E+02 -0.54475339811E+02  0.52089904047E+03  0.52449273635E+03  0.00000000000E+00 0.  1.
         14    1    6    6    0    0  0.28384525258E+02  0.30188892623E+02  0.13794967061E+03  0.14403875219E+03  0.00000000000E+00 0. -1.
         -5    1    3    3    0  503  0.21115381231E+02 -0.40744512572E+02  0.24855655486E+03  0.25280115821E+03  0.47000000000E+01 0.  1.
         11    1    4    4    0    0  0.17237429247E+02  0.24566842382E+02  0.88524072818E+02  0.93472831240E+02  0.00000000000E+00 0. -1.
        -12    1    4    4    0    0 -0.57441776721E+02  0.31642633909E+02  0.65688530949E+02  0.92821318089E+02  0.00000000000E+00 0.  1.
</event>
<event>
12    1  0.8728348E-002  0.1979496E+03  0.7818608E-02  0.1151972E+00
         21   -1    0    0  503  502  0.00000000000E+00  0.00000000000E+00  0.10103346337E+04  0.10103346337E+04  0.00000000000E+00 0. -1.
         21   -1    0    0  501  503 -0.00000000000E+00 -0.00000000000E+00 -0.39331254595E+02  0.39331254595E+02  0.00000000000E+00 0. -1.
          6    2    1    2  501    0 -0.27044847656E+01  0.93196768277E+02  0.57168460742E+03  0.60498540011E+03  0.17461698693E+03 0.  0.
         24    2    3    3    0    0 -0.40808062611E+02  0.12925485548E+02  0.41325381315E+03  0.42327748049E+03  0.80949028793E+02 0.  0.
         -6    2    1    2    0  502  0.27044847656E+01 -0.93196768277E+02  0.39931877170E+03  0.44468048821E+03  0.17202413581E+03 0.  0.
        -24    2    5    5    0    0  0.91017441208E+01 -0.10751104769E+03  0.40555214444E+03  0.42716568139E+03  0.79727726546E+02 0.  0.
          5    1    3    3  501    0  0.38103577845E+02  0.80271282729E+02  0.15843079427E+03  0.18170791961E+03  0.47000000000E+01 0. -1.
        -13    1    4    4    0    0 -0.34366502429E+02 -0.30513851225E+02  0.25170783757E+03  0.25586908195E+03  0.00000000000E+00 0.  1.
         14    1    4    4    0    0 -0.64415601821E+01  0.43439336773E+02  0.16154597558E+03  0.16740839854E+03  0.00000000000E+00 0. -1.
         -5    1    5    5    0  502 -0.63972593552E+01  0.14314279409E+02 -0.62333727323E+01  0.17514806818E+02  0.47000000000E+01 0.  1.
         11    1    6    6    0    0  0.18746041647E+02 -0.42098641218E+02  0.29321638915E+03  0.29681570130E+03  0.00000000000E+00 0. -1.
        -12    1    6    6    0    0 -0.96442975261E+01 -0.65412406468E+02  0.11233575528E+03  0.13034998009E+03  0.00000000000E+00 0.  1.
</event>
<event>
12    1  0.8728348E-002  0.1996477E+03  0.7818608E-02  0.1150082E+00
         21   -1    0    0  503  502  0.00000000000E+00  0.00000000000E+00  0.70408497830E+02  0.70408497830E+02  0.00000000000E+00 0.  1.
         21   -1    0    0  501  503 -0.00000000000E+00 -0.00000000000E+00 -0.56578162235E+03  0.56578162235E+03  0.00000000000E+00 0. -1.
          6    2    1    2  501    0 -0.45688445288E+02  0.91451211264E+02 -0.24045771028E+03  0.31239839085E+03  0.17123692971E+03 0.  0.
         24    2    3    3    0    0 -0.95559201109E+02  0.58053051442E+02 -0.15708771514E+03  0.20956271875E+03  0.82086936502E+02 0.  0.
         -6    2    1    2    0  502  0.45688445288E+02 -0.91451211264E+02 -0.25491541424E+03  0.32379172933E+03  0.17148894277E+03 0.  0.
        -24    2    5    5    0    0  0.46833288499E+02 -0.11013094081E+03 -0.11979468897E+03  0.18730017883E+03  0.80052535547E+02 0.  0.
          5    1    3    3  501    0  0.49870755820E+02  0.33398159822E+02 -0.83369995145E+02  0.10283567210E+03  0.47000000000E+01 0. -1.
        -13    1    4    4    0    0  0.47628596884E+01  0.27360378858E+02 -0.11374778444E+02  0.30011010452E+02  0.00000000000E+00 0.  1.
         14    1    4    4    0    0 -0.10032206080E+03  0.30692672584E+02 -0.14571293669E+03  0.17955170830E+03  0.00000000000E+00 0. -1.
         -5    1    5    5    0  502 -0.11448432107E+01  0.18679729548E+02 -0.13512072527E+03  0.13649155050E+03  0.47000000000E+01 0.  1.
         11    1    6    6    0    0  0.31589496444E+02 -0.12111820782E+03 -0.10521020192E+03  0.16351361760E+03  0.00000000000E+00 0. -1.
        -12    1    6    6    0    0  0.15243792055E+02  0.10987267011E+02 -0.14584487051E+02  0.23786561230E+02  0.00000000000E+00 0.  1.
</event>
<event>
12    1  0.8728348E-002  0.2544251E+03  0.7818608E-02  0.1111379E+00
         21   -1    0    0  501  502  0.00000000000E+00  0.00000000000E+00  0.62014477906E+03  0.62014477906E+03  0.00000000000E+00 0.  1.
         21   -1    0    0  502  503 -0.00000000000E+00 -0.00000000000E+00 -0.11745061781E+03  0.11745061781E+03  0.00000000000E+00 0. -1.
         -6    2    1    2    0  503 -0.82061441582E+02 -0.16113511707E+03  0.12074888447E+03  0.28162461705E+03  0.17897912080E+03 0.  0.
        -24    2    3    3    0    0 -0.11040954638E+03 -0.11588557868E+03  0.38073510479E+02  0.18309318432E+03  0.80335463328E+02 0.  0.
          6    2    1    2  501    0  0.82061441582E+02  0.16113511707E+03  0.38194527679E+03  0.45597077982E+03  0.17125580702E+03 0.  0.
         24    2    5    5    0    0  0.87862539303E+02  0.18675913073E+03  0.35306435913E+03  0.41664597574E+03  0.79628064711E+02 0.  0.
          5    1    5    5  501    0 -0.58010977214E+01 -0.25624013661E+02  0.28880917662E+02  0.39324804080E+02  0.47000000000E+01 0. -1.
        -11    1    6    6    0    0  0.14782798062E+02  0.28111819105E+01  0.67724894927E+02  0.69376474796E+02  0.00000000000E+00 0.  1.
         12    1    6    6    0    0  0.73079741242E+02  0.18394794882E+03  0.28533946420E+03  0.34726950094E+03  0.00000000000E+00 0. -1.
         -5    1    3    3    0  503  0.28348104803E+02 -0.45249538393E+02  0.82675373988E+02  0.98531432724E+02  0.47000000000E+01 0.  1.
         11    1    4    4    0    0 -0.51159842717E+02 -0.28302783171E+01  0.14957536133E+02  0.53376660343E+02  0.00000000000E+00 0. -1.
        -12    1    4    4    0    0 -0.59249703667E+02 -0.11305530036E+03  0.23115974345E+02  0.12971652398E+03  0.00000000000E+00 0.  1.
</event>
<event>
12    1  0.8728348E-002  0.1736147E+03  0.7818608E-02  0.1174636E+00
         21   -1    0    0  501  502  0.00000000000E+00  0.00000000000E+00  0.17622644022E+03  0.17622644022E+03  0.00000000000E+00 0. -1.
         21   -1    0    0  502  503 -0.00000000000E+00 -0.00000000000E+00 -0.30669918301E+03  0.30669918301E+03  0.00000000000E+00 0. -1.
         -6    2    1    2    0  503 -0.80050049965E+01 -0.12668238818E+02 -0.22676720039E+03  0.28439426722E+03  0.17097418424E+03 0.  0.
        -24    2    3    3    0    0  0.12587489025E+01 -0.65343587133E+01 -0.24761137573E+03  0.26031084415E+03  0.80037865397E+02 0.  0.
          6    2    1    2  501    0  0.80050049965E+01  0.12668238818E+02  0.96294457600E+02  0.19853135601E+03  0.17296679558E+03 0.  0.
         24    2    5    5    0    0 -0.58160675390E+02 -0.13800510307E+02  0.55485768601E+02  0.11627607631E+03  0.82875431566E+02 0.  0.
          5    1    5    5  501    0  0.66165680386E+02  0.26468749125E+02  0.40808688999E+02  0.82255279703E+02  0.47000000000E+01 0. -1.
        -13    1    6    6    0    0 -0.50643932734E+02 -0.45285033039E+02  0.26825953840E+02  0.73042275016E+02  0.00000000000E+00 0.  1.
         14    1    6    6    0    0 -0.75167426560E+01  0.31484522732E+02  0.28659814761E+02  0.43233801289E+02  0.00000000000E+00 0. -1.
         -5    1    3    3    0  503 -0.92637538989E+01 -0.61338801046E+01  0.20844175340E+02  0.24083423076E+02  0.47000000000E+01 0.  1.
         11    1    4    4    0    0  0.39186414582E+02 -0.14005644498E+02 -0.12408768170E+03  0.13087966196E+03  0.00000000000E+00 0. -1.
        -12    1    4    4    0    0 -0.37927665679E+02  0.74712857842E+01 -0.12352369403E+03  0.12943118218E+03  0.00000000000E+00 0.  1.
</event>
<event>
12    1  0.8728348E-002  0.2974770E+03  0.7818608E-02  0.1086627E+00
         21   -1    0    0  503  502  0.00000000000E+00  0.00000000000E+00  0.36261535890E+03  0.36261535890E+03  0.00000000000E+00 0.  1.
         21   -1    0    0  501  503 -0.00000000000E+00 -0.00000000000E+00 -0.24981057147E+03  0.24981057147E+03  0.00000000000E+00 0. -1.
          6    2    1    2  501    0  0.28406318173E+02 -0.24090024678E+03  0.10584042915E+03  0.31486744755E+03  0.17058565377E+03 0.  0.
         24    2    3    3    0    0  0.66664990587E+02 -0.23490328968E+03  0.83382474294E+02  0.26985479105E+03  0.79026544640E+02 0.  0.
         -6    2    1    2    0  502 -0.28406318173E+02  0.24090024678E+03  0.69643582862E+01  0.29755848281E+03  0.17219959522E+03 0.  0.
        -24    2    5    5    0    0 -0.64583310757E+02  0.12009678535E+03  0.46937622776E+02  0.16518702456E+03  0.80556630829E+02 0.  0.
          5    1    3    3  501    0 -0.38258672415E+02 -0.59969570992E+01  0.22457954853E+02  0.45012656504E+02  0.47000000000E+01 0. -1.
        -11    1    4    4    0    0 -0.17993150696E+02 -0.32175905023E+02  0.94883637336E+01  0.38066670230E+02  0.00000000000E+00 0.  1.
         12    1    4    4    0    0  0.84658141283E+02 -0.20272738466E+03  0.73894110561E+02  0.23178812082E+03  0.00000000000E+00 0. -1.
         -5    1    5    5    0  502  0.36176992584E+02  0.12080346143E+03 -0.39973264490E+02  0.13237145825E+03  0.47000000000E+01 0.  1.
         13    1    6    6    0    0 -0.33719748547E+02  0.30219003071E+02 -0.19434665008E+02  0.49273885503E+02  0.00000000000E+00 0. -1.
        -14    1    6    6    0    0 -0.30863562210E+02  0.89877782282E+02  0.66372287783E+02  0.11591313906E+03  0.00000000000E+00 0.  1.
</event>
<event>
12    1  0.8728348E-002  0.1772022E+03  0.7818608E-02  0.1170708E+00
         21   -1    0    0  501  502  0.00000000000E+00  0.00000000000E+00  0.85656062007E+03  0.85656062007E+03  0.00000000000E+00 0. -1.
         21   -1    0    0  502  503 -0.00000000000E+00 -0.00000000000E+00 -0.11401156498E+03  0.11401156498E+03  0.00000000000E+00 0.  1.
         -6    2    1    2    0  503 -0.28954185190E+02  0.26023674378E+02 -0.29045603942E+02  0.17889110281E+03  0.17217085435E+03 0.  0.
        -24    2    3    3    0    0 -0.14225932551E+02  0.64476019600E+02  0.28195272474E+02  0.10822206991E+03  0.80978446296E+02 0.  0.
          6    2    1    2  501    0  0.28954185190E+02 -0.26023674378E+02  0.77159465903E+03  0.79168108224E+03  0.17287290610E+03 0.  0.
         24    2    5    5    0    0  0.69881975149E+02  0.21884517593E+02  0.36565259658E+03  0.38085103598E+03  0.77351584698E+02 0.  0.
          5    1    5    5  501    0 -0.40927789959E+02 -0.47908191972E+02  0.40594206245E+03  0.41083004627E+03  0.47000000000E+01 0. -1.
        -13    1    6    6    0    0  0.25018338296E+02  0.45110180173E+02  0.23882309017E+03  0.24433033787E+03  0.00000000000E+00 0.  1.
         14    1    6    6    0    0  0.44863636852E+02 -0.23225662579E+02  0.12682950641E+03  0.13652069810E+03  0.00000000000E+00 0. -1.
         -5    1    3    3    0  503 -0.14728252639E+02 -0.38452345221E+02 -0.57240876416E+02  0.70669032905E+02  0.47000000000E+01 0.  1.
         13    1    4    4    0    0 -0.42150686047E+02  0.45728264208E+02  0.38378633720E+02  0.73079915215E+02  0.00000000000E+00 0. -1.
        -14    1    4    4    0    0  0.27924753496E+02  0.18747755392E+02 -0.10183361246E+02  0.35142154691E+02  0.00000000000E+00 0.  1.
</event>
<event>
12    1  0.8728348E-002  0.1875593E+03  0.7818608E-02  0.1161465E+00
         21   -1    0    0  503  502  0.00000000000E+00  0.00000000000E+00  0.41094390697E+03  0.41094390697E+03  0.00000000000E+00 0. -1.
         21   -1    0    0  501  503 -0.00000000000E+00 -0.00000000000E+00 -0.10141745346E+03  0.10141745346E+03  0.00000000000E+00 0.  1.
          6    2    1    2  501    0 -0.10656931094E+02  0.70636028676E+02  0.47635678978E+02  0.19023516398E+03  0.16975641660E+03 0.  0.
         24    2    3    3    0    0 -0.52894524364E+02  0.17750921630E+02  0.68252348086E+02  0.11932687196E+03  0.80421349317E+02 0.  0.
         -6    2    1    2    0  502  0.10656931094E+02 -0.70636028676E+02  0.26189077453E+03  0.32212619644E+03  0.17342286447E+03 0.  0.
        -24    2    5    5    0    0 -0.42013894278E+02 -0.28034527062E+02  0.22606988231E+03  0.24535165571E+03  0.80862483579E+02 0.  0.
          5    1    3    3  501    0  0.42237593270E+02  0.52885107046E+02 -0.20616669107E+02  0.70908292023E+02  0.47000000000E+01 0. -1.
        -11    1    4    4    0    0 -0.36311617260E+02 -0.15512866342E+02 -0.23312232555E+01  0.39555242030E+02  0.00000000000E+00 0.  1.
         12    1    4    4    0    0 -0.16582907104E+02  0.33263787972E+02  0.70583571341E+02  0.79771629929E+02  0.00000000000E+00 0. -1.
         -5    1    5    5    0  502  0.52670825372E+02 -0.42601501614E+02  0.35820892219E+02  0.76774540731E+02  0.47000000000E+01 0.  1.
         11    1    6    6    0    0 -0.18621942078E+02 -0.54975585668E+02  0.16097459432E+03  0.17111958323E+03  0.00000000000E+00 0. -1.
        -12    1    6    6    0    0 -0.23391952200E+02  0.26941058607E+02  0.65095287987E+02  0.74232072480E+02  0.00000000000E+00 0.  1.
</event>
<event>
12    1  0.8728348E-002  0.2669480E+03  0.7818608E-02  0.1103050E+00
         21   -1    0    0  503  502  0.00000000000E+00  0.00000000000E+00  0.68091987789E+03  0.68091987789E+03  0.00000000000E+00 0.  1.
         21   -1    0    0  501  503 -0.00000000000E+00 -0.00000000000E+00 -0.10501139422E+03  0.10501139422E+03  0.00000000000E+00 0.  1.
          6    2    1    2  501    0 -0.86608477594E+02  0.18497183480E+03  0.26406680700E+03  0.37543585374E+03  0.17177075901E+03 0.  0.
         24    2    3    3    0    0 -0.91008309980E+02  0.20595840341E+03  0.21224048390E+03  0.31915217623E+03  0.78171044304E+02 0.  0.
         -6    2    1    2    0  502  0.86608477594E+02 -0.18497183480E+03  0.31184167667E+03  0.41049541837E+03  0.17188847878E+03 0.  0.
        -24    2    5    5    0    0  0.37525522900E+02 -0.87615275279E+02  0.64587763395E+02  0.14022883932E+03  0.80049652504E+02 0.  0.
          5    1    3    3  501    0  0.43998323863E+01 -0.20986568613E+02  0.51826323101E+02  0.56283677504E+02  0.47000000000E+01 0. -1.
        -13    1    4    4    0    0 -0.61842580638E+02  0.17582823963E+03  0.13128973223E+03  0.22798479866E+03  0.00000000000E+00 0.  1.
         14    1    4    4    0    0 -0.29165729342E+02  0.30130163779E+02  0.80950751670E+02  0.91167377572E+02  0.00000000000E+00 0. -1.
         -5    1    5    5    0  502  0.49082954694E+02 -0.97356559517E+02  0.24725391327E+03  0.27026657905E+03  0.47000000000E+01 0.  1.
         13    1    6    6    0    0  0.73988767721E+01  0.15380768048E+02  0.10727826821E+02  0.20159307318E+02  0.00000000000E+00 0. -1.
        -14    1    6    6    0    0  0.30126646128E+02 -0.10299604333E+03  0.53859936574E+02  0.12006953200E+03  0.00000000000E+00 0.  1.
</event>
<event>
12    1  0.8728348E-002  0.2097680E+03  0.7818608E-02  0.1141862E+00
         21   -1    0    0  501  502  0.00000000000E+00  0.00000000000E+00  0.48062873891E+03  0.48062873891E+03  0.00000000000E+00 0. -1.
         21   -1    0    0  502  503 -0.00000000000E+00 -0.00000000000E+00 -0.93821711928E+02  0.93821711928E+02  0.00000000000E+00 0. -1.
         -6    2    1    2    0  503 -0.59966233306E+02 -0.10424398750E+03  0.14662441125E+03  0.25593227522E+03  0.17187161912E+03 0.  0.
        -24    2    3    3    0    0 -0.36842145700E+02 -0.25665172842E+02  0.29934951663E+01  0.90519810170E+02  0.78541901067E+02 0.  0.
          6    2    1    2  501    0  0.59966233306E+02  0.10424398750E+03  0.24018261573E+03  0.31851817561E+03  0.17118230408E+03 0.  0.
         24    2    5    5    0    0  0.35981921214E+02  0.50009123601E+02  0.38874946225E+02  0.10860501383E+03  0.80549217791E+02 0.  0.
          5    1    5    5  501    0  0.23984312092E+02  0.54234863899E+02  0.20130766951E+03  0.20991316179E+03  0.47000000000E+01 0. -1.
        -11    1    6    6    0    0  0.20424677095E+02  0.64524606966E+02  0.40584620210E+01  0.67801647860E+02  0.00000000000E+00 0.  1.
         12    1    6    6    0    0  0.15557244119E+02 -0.14515483365E+02  0.34816484204E+02  0.40803365967E+02  0.00000000000E+00 0. -1.
         -5    1    3    3    0  503 -0.23124087606E+02 -0.78578814658E+02  0.14363091608E+03  0.16541246505E+03  0.47000000000E+01 0.  1.
         13    1    4    4    0    0  0.63181114187E+01 -0.43026357921E+02  0.60092975670E+01  0.43900998452E+02  0.00000000000E+00 0. -1.
        -14    1    4    4    0    0 -0.43160257119E+02  0.17361185079E+02 -0.30158024007E+01  0.46618811718E+02  0.00000000000E+00 0.  1.
</event>
<event>
12    1  0.8728348E-002  0.1924265E+03  0.7818608E-02  0.1156461E+00
         21   -1    0    0  501  502  0.00000000000E+00  0.00000000000E+00  0.53881343600E+03  0.53881343600E+03  0.00000000000E+00 0. -1.
         21   -1    0    0  502  503 -0.00000000000E+00 -0.00000000000E+00 -0.89680353809E+02  0.89680353809E+02  0.00000000000E+00 0. -1.
         -6    2    1    2    0  503 -0.80732785958E+02 -0.95657614735E+01  0.71324262765E+02  0.20450387955E+03  0.17356670121E+03 0.  0.
        -24    2    3    3    0    0  0.95083286278E+01 -0.26595414345E+02 -0.60793924180E+01  0.84308689651E+02  0.79203988290E+02 0.  0.
          6    2    1    2  501    0  0.80732785958E+02  0.95657614735E+01  0.37780881943E+03  0.42398991027E+03  0.17440944197E+03 0.  0.
         24    2    5    5    0    0  0.43928403580E+02 -0.48046148089E+02  0.31332639709E+03  0.32989544987E+03  0.80121406295E+02 0.  0.
          5    1    5    5  501    0  0.36804382378E+02  0.57611909562E+02  0.64482422341E+02  0.94094460393E+02  0.47000000000E+01 0. -1.
        -13    1    6    6    0    0 -0.20527316705E+02 -0.29904249715E+02  0.11141997729E+03  0.11717527990E+03  0.00000000000E+00 0.  1.
         14    1    6    6    0    0  0.64455720284E+02 -0.18141898374E+02  0.20190641980E+03  0.21272016997E+03  0.00000000000E+00 0. -1.
         -5    1    3    3    0  503 -0.90241114586E+02  0.17029652872E+02  0.77403655183E+02  0.12019518990E+03  0.47000000000E+01 0.  1.
         11    1    4    4    0    0 -0.30476690236E+02 -0.26548875029E+02 -0.15397558111E+02  0.43252239350E+02  0.00000000000E+00 0. -1.
        -12    1    4    4    0    0  0.39985018863E+02 -0.46539316197E-01  0.93181656935E+01  0.41056450301E+02  0.00000000000E+00 0.  1.
</event>
<event>
12    1  0.8728348E-002  0.2306946E+03  0.7818608E-02  0.1126196E+00
         21   -1    0    0  503  502  0.00000000000E+00  0.00000000000E+00  0.88287894762E+02  0.88287894762E+02  0.00000000000E+00 0. -1.
         21   -1    0    0  501  503 -0.00000000000E+00 -0.00000000000E+00 -0.12430319211E+04  0.12430319211E+04  0.00000000000E+00 0. -1.
          6    2    1    2  501    0 -0.12339504304E+03 -0.92653947593E+02 -0.10555004503E+04  0.10804171489E+04  0.17149030429E+03 0.  0.
         24    2    3    3    0    0  0.70835833088E+01 -0.39375075424E+02 -0.41918314335E+03  0.42866173831E+03  0.80223466021E+02 0.  0.
         -6    2    1    2    0  502  0.12339504304E+03  0.92653947593E+02 -0.99243576048E+02  0.25090266694E+03  0.17114838661E+03 0.  0.
        -24    2    5    5    0    0  0.12332471483E+03  0.10702896627E+03 -0.34609738995E+02  0.18452293359E+03  0.78655540657E+02 0.  0.
          5    1    3    3  501    0 -0.13047862635E+03 -0.53278872169E+02 -0.63631730693E+03  0.65175541061E+03  0.47000000000E+01 0. -1.
        -13    1    4    4    0    0 -0.16077785084E-01 -0.47741817579E+02 -0.11818468335E+03  0.12746333113E+03  0.00000000000E+00 0.  1.
         14    1    4    4    0    0  0.70996610939E+01  0.83667421555E+01 -0.30099846000E+03  0.30119840718E+03  0.00000000000E+00 0. -1.
         -5    1    5    5    0  502  0.70328209203E-01 -0.14375018678E+02 -0.64633837053E+02  0.66379733355E+02  0.47000000000E+01 0.  1.
         13    1    6    6    0    0  0.62437698807E+02  0.96817601222E+02 -0.41390308497E+02  0.12241434465E+03  0.00000000000E+00 0. -1.
        -14    1    6    6    0    0  0.60887016028E+02  0.10211365049E+02  0.67805695024E+01  0.62108588937E+02  0.00000000000E+00 0.  1.
</event>
<event>
12    1  0.8728348E-002  0.1959148E+03  0.7818608E-02  0.1154552E+00
         21   -1    0    0  503  502  0.00000000000E+00  0.00000000000E+00  0.16845393575E+02  0.16845393575E+02  0.00000000000E+00 0. -1.
         21   -1    0    0  501  503 -0.00000000000E+00 -0.00000000000E+00 -0.26693958534E+04  0.26693958534E+04  0.00000000000E+00 0. -1.
          6    2    1    2  501    0 -0.70214653654E+02 -0.63166737446E+02 -0.78580900753E+03  0.80986319755E+03  0.17164634607E+03 0.  0.
         24    2    3    3    0    0 -0.11093514469E+02 -0.90555296609E+02 -0.39172344519E+03  0.41039985416E+03  0.81593228705E+02 0.  0.
         -6    2    1    2    0  502  0.70214653654E+02  0.63166737446E+02 -0.18667414523E+04  0.18763780494E+04  0.16477499915E+03 0.  0.
        -24    2    5    5    0    0 -0.93429400354E+01  0.33099322224E+02 -0.59411588179E+03  0.60090504192E+03  0.83248620114E+02 0.  0.
          5    1    3    3  501    0 -0.59121139185E+02  0.27388559163E+02 -0.39408556233E+03  0.39946334339E+03  0.47000000000E+01 0. -1.
        -13    1    4    4    0    0 -0.12559144597E+02 -0.73693165772E+02 -0.38499529700E+03  0.39218591702E+03  0.00000000000E+00 0.  1.
         14    1    4    4    0    0  0.14656301282E+01 -0.16862130837E+02 -0.67281481940E+01  0.18213937140E+02  0.00000000000E+00 0. -1.
         -5    1    5    5    0  502  0.79557593689E+02  0.30067415222E+02 -0.12726255705E+04  0.12754730075E+04  0.47000000000E+01 0.  1.
         13    1    6    6    0    0 -0.32322819936E+01  0.61151861740E+02 -0.41897427603E+03  0.42342583981E+03  0.00000000000E+00 0. -1.
        -14    1    6    6    0    0 -0.61106580418E+01 -0.28052539516E+02 -0.17514160576E+03  0.17747920211E+03  0.00000000000E+00 0.  1.
</event>
<event>
12    1  0.8728348E-002  0.1835862E+03  0.7818608E-02  0.1164549E+00
         21   -1    0    0  501  502  0.00000000000E+00  0.00000000000E+00  0.60966132567E+03  0.60966132567E+03  0.00000000000E+00 0. -1.
         21   -1    0    0  502  503 -0.00000000000E+00 -0.00000000000E+00 -0.12423179980E+03  0.12423179980E+03  0.00000000000E+00 0. -1.
         -6    2    1    2    0  503  0.60174192548E+02  0.24026475122E+02 -0.31301714440E+02  0.18551819780E+03  0.17099415028E+03 0.  0.
        -24    2    3    3    0    0  0.56365537663E+02  0.66293546987E+02  0.19059292197E+02  0.11949295864E+03  0.79645479079E+02 0.  0.
          6    2    1    2  501    0 -0.60174192548E+02 -0.24026475122E+02  0.51673124031E+03  0.54837492767E+03  0.17177217945E+03 0.  0.
         24    2    5    5    0    0 -0.34044541131E+02  0.29900429599E+02  0.14088539614E+03  0.16775299148E+03  0.78989270364E+02 0.  0.
          5    1    5    5  501    0 -0.26129651417E+02 -0.53926904721E+02  0.37584584416E+03  0.38062193619E+03  0.47000000000E+01 0. -1.
        -13    1    6    6    0    0  0.17886230341E+02  0.66830453254E+00  0.82159955441E+02  0.84086991531E+02  0.00000000000E+00 0.  1.
         14    1    6    6    0    0 -0.51930771472E+02  0.29232125067E+02  0.58725440704E+02  0.83665999949E+02  0.00000000000E+00 0. -1.
         -5    1    3    3    0  503  0.38086548853E+01 -0.42267071865E+02 -0.50361006637E+02  0.66025239156E+02  0.47000000000E+01 0.  1.
         13    1    4    4    0    0  0.33712506404E+02  0.60577980098E+02 -0.21587512601E+02  0.72610229728E+02  0.00000000000E+00 0. -1.
        -14    1    4    4    0    0  0.22653031258E+02  0.57155668885E+01  0.40646804798E+02  0.46882728913E+02  0.00000000000E+00 0.  1.
</event>
<event>
12    1  0.8728348E-002  0.2285081E+03  0.7818608E-02  0.1127795E+00
         21   -1    0    0  503  502  0.00000000000E+00  0.00000000000E+00  0.59233692527E+03  0.59233692527E+03  0.00000000000E+00 0. -1.
         21   -1    0    0  501  503 -0.00000000000E+00 -0.00000000000E+00 -0.39199948995E+03  0.39199948995E+03  0.00000000000E+00 0. -1.
          6    2    1    2  501    0  0.63935922074E+02 -0.13623759626E+03 -0.33332376701E+03  0.40381061037E+03  0.17120102402E+03 0.  0.
         24    2    3    3    0    0 -0.23881734601E+02 -0.49719614803E+02 -0.10405386738E+03  0.14345685330E+03  0.81916323770E+02 0.  0.
         -6    2    1    2    0  502 -0.63935922074E+02  0.13623759626E+03  0.53366120233E+03  0.58052580486E+03  0.17195187255E+03 0.  0.
        -24    2    5    5    0    0 -0.65292966325E+02  0.12823083636E+03  0.54294014636E+03  0.56732964726E+03  0.79828611939E+02 0.  0.
          5    1    3    3  501    0  0.87817656675E+02 -0.86517981453E+02 -0.22926989963E+03  0.26035375706E+03  0.47000000000E+01 0. -1.
        -13    1    4    4    0    0  0.16109822170E+02  0.92474648055E+00  0.48678997180E+01  0.16854612842E+02  0.00000000000E+00 0.  1.
         14    1    4    4    0    0 -0.39991556771E+02 -0.50644361284E+02 -0.10892176709E+03  0.12660224046E+03  0.00000000000E+00 0. -1.
         -5    1    5    5    0  502  0.13570442508E+01  0.80067598930E+01 -0.92789440319E+01  0.13196157601E+02  0.47000000000E+01 0.  1.
         11    1    6    6    0    0 -0.56856441293E+02  0.55109232040E+02  0.17472273506E+03  0.19182730911E+03  0.00000000000E+00 0. -1.
        -12    1    6    6    0    0 -0.84365250320E+01  0.73121604323E+02  0.36821741129E+03  0.37550233815E+03  0.00000000000E+00 0.  1.
</event>
<event>
12    1  0.8728348E-002  0.2262156E+03  0.7818608E-02  0.1129463E+00
         21   -1    0    0  501  502  0.00000000000E+00  0.00000000000E+00  0.37807204096E+03  0.37807204096E+03  0.00000000000E+00 0. -1.
         21   -1    0    0  502  503 -0.00000000000E+00 -0.00000000000E+00 -0.13514371855E+03  0.13514371855E+03  0.00000000000E+00 0. -1.
         -6    2    1    2    0  503 -0.13892626528E+03 -0.45986336040E+02  0.13172178747E+03  0.26114356545E+03  0.17155198103E+03 0.  0.
        -24    2    3    3    0    0 -0.10787161382E+03 -0.54627664500E+02  0.16089519008E+03  0.21741438349E+03  0.82227034241E+02 0.  0.
          6    2    1    2  501    0  0.13892626528E+03  0.45986336040E+02  0.11120653495E+03  0.25207219406E+03  0.17250578922E+03 0.  0.
         24    2    5    5    0    0  0.14008524301E+02  0.56508881209E+02  0.64748590099E+02  0.11829776972E+03  0.80078024401E+02 0.  0.
          5    1    5    5  501    0  0.12491774098E+03 -0.10522545169E+02  0.46457944847E+02  0.13377442434E+03  0.47000000000E+01 0. -1.
        -13    1    6    6    0    0 -0.91041457282E+01 -0.72675375123E+01 -0.11411801851E+02  0.16307415259E+02  0.00000000000E+00 0.  1.
         14    1    6    6    0    0  0.23112670029E+02  0.63776418721E+02  0.76160391950E+02  0.10199035446E+03  0.00000000000E+00 0. -1.
         -5    1    3    3    0  503 -0.31054651460E+02  0.86413284600E+01 -0.29173402616E+02  0.43729181962E+02  0.47000000000E+01 0.  1.
         13    1    4    4    0    0 -0.12720922299E+02  0.63465229168E+01 -0.63474438176E+01  0.15568887574E+02  0.00000000000E+00 0. -1.
        -14    1    4    4    0    0 -0.95150691520E+02 -0.60974187417E+02  0.16724263390E+03  0.20184549592E+03  0.00000000000E+00 0.  1.
</event>
<event>
12    1  0.8728348E-002  0.1949812E+03  0.7818608E-02  0.1155855E+00
         21   -1    0    0  503  502  0.00000000000E+00  0.00000000000E+00  0.11589599091E+03  0.11589599091E+03  0.00000000000E+00 0. -1.
         21   -1    0    0  501  503 -0.00000000000E+00 -0.00000000000E+00 -0.32290780795E+03  0.32290780795E+03  0.00000000000E+00 0. -1.
          6    2    1    2  501    0  0.70330469488E+02 -0.19757210040E+02 -0.70279891284E+02  0.20726053105E+03  0.18077871093E+03 0.  0.
         24    2    3    3    0    0 -0.27087820810E+02 -0.12607996466E+02 -0.68674221143E+02  0.10945407566E+03  0.79820639052E+02 0.  0.
         -6    2    1    2    0  502 -0.70330469488E+02  0.19757210040E+02 -0.13673192575E+03  0.23154326781E+03  0.17198820616E+03 0.  0.
        -24    2    5    5    0    0 -0.12455135769E+02 -0.79896545723E+01 -0.88074748299E+00  0.81220031458E+02  0.79855825127E+02 0.  0.
          5    1    3    3  501    0  0.97418290298E+02 -0.71492135747E+01 -0.16056701411E+01  0.97806455390E+02  0.47000000000E+01 0. -1.
        -13    1    4    4    0    0 -0.52253787599E+02 -0.37154533015E+01 -0.24475406335E+02  0.57821349232E+02  0.00000000000E+00 0.  1.
         14    1    4    4    0    0  0.25165966789E+02 -0.88925431640E+01 -0.44198814808E+02  0.51632726432E+02  0.00000000000E+00 0. -1.
         -5    1    5    5    0  502 -0.57875333719E+02  0.27746864613E+02 -0.13585117827E+03  0.15032323635E+03  0.47000000000E+01 0.  1.
         11    1    6    6    0    0 -0.22381586164E+02 -0.27126524652E+02 -0.29143233023E+02  0.45673972566E+02  0.00000000000E+00 0. -1.
        -12    1    6    6    0    0  0.99264503954E+01  0.19136870079E+02  0.28262485540E+02  0.35546058892E+02  0.00000000000E+00 0.  1.
</event>
<event>
12    1  0.8728348E-002  0.1875183E+03  0.7818608E-02  0.1161276E+00
         21   -1    0    0  501  502  0.00000000000E+00  0.00000000000E+00  0.22395439596E+02  0.22395439596E+02  0.00000000000E+00 0. -1.
         21   -1    0    0  502  503 -0.00000000000E+00 -0.00000000000E+00 -0.15712227862E+04  0.15712227862E+04  0.00000000000E+00 0. -1.
         -6    2    1    2    0  503 -0.73527210201E+01  0.74376037262E+02 -0.68666465541E+03  0.71180859206E+03  0.17198042130E+03 0.  0.
        -24    2    3    3    0    0 -0.33979113971E+02  0.96566013227E+02 -0.64213349516E+03  0.65518285525E+03  0.80309234344E+02 0.  0.
          6    2    1    2  501    0  0.73527210201E+01 -0.74376037262E+02 -0.86216269122E+03  0.88180963377E+03  0.16934540633E+03 0.  0.
         24    2    5    5    0    0  0.42960413344E+02 -0.24512420037E+02 -0.71853735632E+03  0.72558986901E+03  0.87967435627E+02 0.  0.
          5    1    5    5  501    0 -0.35607692323E+02 -0.49863617224E+02 -0.14362533490E+03  0.15621976475E+03  0.47000000000E+01 0. -1.
        -13    1    6    6    0    0  0.10522972013E+01  0.11399516965E+02 -0.50197798668E+03  0.50210850961E+03  0.00000000000E+00 0.  1.
         14    1    6    6    0    0  0.41908116142E+02 -0.35911937003E+02 -0.21655936964E+03  0.22348135940E+03  0.00000000000E+00 0. -1.
         -5    1    3    3    0  503  0.26626392951E+02 -0.22189975966E+02 -0.44531160254E+02  0.56625736803E+02  0.47000000000E+01 0.  1.
         11    1    4    4    0    0  0.13794120097E+01  0.94465930561E+02 -0.48333388971E+03  0.49248082577E+03  0.00000000000E+00 0. -1.
        -12    1    4    4    0    0 -0.35358525981E+02  0.21000826665E+01 -0.15879960545E+03  0.16270202948E+03  0.00000000000E+00 0.  1.
</event>
<event>
12    1  0.8728348E-002  0.2283170E+03  0.7818608E-02  0.1127892E+00
         21   -1    0    0  503  502  0.00000000000E+00  0.00000000000E+00  0.32606233398E+03  0.32606233398E+03  0.00000000000E+00 0. -1.
         21   -1    0    0  501  503 -0.00000000000E+00 -0.00000000000E+00 -0.22321037566E+03  0.22321037566E+03  0.00000000000E+00 0.  1.
          6    2    1    2  501    0  0.14850264235E+03  0.23500129550E+02 -0.95121748919E+02  0.24733945733E+03  0.17182365716E+03 0.  0.
         24    2    3    3    0    0  0.16686505892E+03 -0.92419923672E+01 -0.97642685781E+02  0.20942283812E+03  0.79965422071E+02 0.  0.
         -6    2    1    2    0  502 -0.14850264235E+03 -0.23500129550E+02  0.19797370723E+03  0.30193325231E+03  0.17136163288E+03 0.  0.
        -24    2    5    5    0    0 -0.15507237933E+02 -0.25011641919E+02  0.11487156272E+03  0.14503163126E+03  0.83502344192E+02 0.  0.
          5    1    3    3  501    0 -0.18362416571E+02  0.32742121917E+02  0.25209368618E+01  0.37916619214E+02  0.47000000000E+01 0. -1.
        -11    1    4    4    0    0  0.14145937718E+03 -0.35996148718E+02 -0.63598160807E+02  0.15922061478E+03  0.00000000000E+00 0.  1.
         12    1    4    4    0    0  0.25405681742E+02  0.26754156351E+02 -0.34044524975E+02  0.50202223333E+02  0.00000000000E+00 0. -1.
         -5    1    5    5    0  502 -0.13299540442E+03  0.15115123692E+01  0.83102144514E+02  0.15690162105E+03  0.47000000000E+01 0.  1.
         13    1    6    6    0    0 -0.15174036122E+02 -0.55717390242E+02  0.77935044940E+02  0.96997681299E+02  0.00000000000E+00 0. -1.
        -14    1    6    6    0    0 -0.33320181125E+00  0.30705748323E+02  0.36936517780E+02  0.48033949965E+02  0.00000000000E+00 0.  1.
</event>
<event>
12    1  0.8728348E-002  0.1838535E+03  0.7818608E-02  0.1164461E+00
         21   -1    0    0  501  502  0.00000000000E+00  0.00000000000E+00  0.76335041513E+03  0.76335041513E+03  0.00000000000E+00 0.  1.
         21   -1    0    0  502  503 -0.00000000000E+00 -0.00000000000E+00 -0.14203645122E+03  0.14203645122E+03  0.00000000000E+00 0.  1.
         -6    2    1    2    0  503  0.61462224264E+02 -0.16527693062E+02 -0.65180782751E+02  0.19506571392E+03  0.17248573465E+03 0.  0.
        -24    2    3    3    0    0  0.23232264166E+02 -0.75505321396E+02 -0.43491832762E+02  0.12136095800E+03  0.81216691347E+02 0.  0.
          6    2    1    2  501    0 -0.61462224264E+02  0.16527693062E+02  0.68649474666E+03  0.71032115243E+03  0.17096880636E+03 0.  0.
         24    2    5    5    0    0 -0.30931202475E+02  0.72006660505E+02  0.52090811899E+03  0.53297662789E+03  0.81099439009E+02 0.  0.
          5    1    5    5  501    0 -0.30531021790E+02 -0.55478967443E+02  0.16558662767E+03  0.17734452454E+03  0.47000000000E+01 0. -1.
        -13    1    6    6    0    0 -0.34199578573E+02  0.54858238564E+02  0.50572669672E+03  0.50984167080E+03  0.00000000000E+00 0.  1.
         14    1    6    6    0    0  0.32683760982E+01  0.17148421941E+02  0.15181422269E+02  0.23134957089E+02  0.00000000000E+00 0. -1.
         -5    1    3    3    0  503  0.38229960099E+02  0.58977628334E+02 -0.21688949989E+02  0.73704755917E+02  0.47000000000E+01 0.  1.
         11    1    4    4    0    0 -0.11002971503E+01 -0.49401340194E+02  0.16040662137E+02  0.51951957697E+02  0.00000000000E+00 0. -1.
        -12    1    4    4    0    0  0.24332561316E+02 -0.26103981203E+02 -0.59532494899E+02  0.69409000308E+02  0.00000000000E+00 0.  1.
</event>
<event>
12    1  0.8728348E-002  0.2901050E+03  0.7818608E-02  0.1090403E+00
         21   -1    0    0  503  502  0.00000000000E+00  0.00000000000E+00  0.32074305154E+03  0.32074305154E+03  0.00000000000E+00 0. -1.
         21   -1    0    0  501  503 -0.00000000000E+00 -0.00000000000E+00 -0.49685193057E+03  0.49685193057E+03  0.00000000000E+00 0.  1.
          6    2    1    2  501    0  0.20784740229E+03  0.10953281582E+03 -0.36925569787E+03  0.46907442927E+03  0.16876927863E+03 0.  0.
         24    2    3    3    0    0  0.13062078672E+03  0.24011246545E+01 -0.16180761585E+03  0.22311112685E+03  0.80804177213E+02 0.  0.
         -6    2    1    2    0  502 -0.20784740229E+03 -0.10953281582E+03  0.19314681885E+03  0.34852055283E+03  0.17018490456E+03 0.  0.
        -24    2    5    5    0    0 -0.13791501115E+03 -0.72880366667E+02  0.40745856558E+02  0.17681707394E+03  0.72608227243E+02 0.  0.
          5    1    3    3  501    0  0.77226615568E+02  0.10713169116E+03 -0.20744808202E+03  0.24596330242E+03  0.47000000000E+01 0. -1.
        -13    1    4    4    0    0  0.11566772090E+03 -0.13128588156E+02 -0.16435261791E+03  0.20140299030E+03  0.00000000000E+00 0.  1.
         14    1    4    4    0    0  0.14953065815E+02  0.15529712811E+02  0.25450020597E+01  0.21708136556E+02  0.00000000000E+00 0. -1.
         -5    1    5    5    0  502 -0.69932391140E+02 -0.36652449152E+02  0.15240096229E+03  0.17170347890E+03  0.47000000000E+01 0.  1.
         13    1    6    6    0    0 -0.13512741417E+03 -0.57546660180E+02  0.53873692027E+02  0.15643979945E+03  0.00000000000E+00 0. -1.
        -14    1    6    6    0    0 -0.27875969787E+01 -0.15333706487E+02 -0.13127835470E+02  0.20377274491E+02  0.00000000000E+00 0.  1.
</event>
<event>
12    1  0.8728348E-002  0.1906698E+03  0.7818608E-02  0.1159032E+00
         21   -1    0    0  503  502  0.00000000000E+00  0.00000000000E+00  0.48365494218E+03  0.48365494218E+03  0.00000000000E+00 0.  1.
         21   -1    0    0  501  503 -0.00000000000E+00 -0.00000000000E+00 -0.14196362394E+03  0.14196362394E+03  0.00000000000E+00 0.  1.
          6    2    1    2  501    0 -0.48687089725E+02  0.50658421833E+02 -0.45723662506E+02  0.19607551902E+03  0.17725193211E+03 0.  0.
         24    2    3    3    0    0 -0.45807906945E+02  0.10360705451E+03 -0.34768143849E+02  0.14172516681E+03  0.77745823028E+02 0.  0.
         -6    2    1    2    0  502  0.48687089725E+02 -0.50658421833E+02  0.38741498075E+03  0.42954304709E+03  0.17169785552E+03 0.  0.
        -24    2    5    5    0    0  0.22155319842E+02 -0.85037055069E+01  0.73536248329E+02  0.11170204347E+03  0.80663470615E+02 0.  0.
          5    1    3    3  501    0 -0.28791827801E+01 -0.52948632679E+02 -0.10955518657E+02  0.54350352208E+02  0.47000000000E+01 0. -1.
        -11    1    4    4    0    0 -0.22699572840E+02  0.68212181868E+02 -0.59000694649E+02  0.93001367363E+02  0.00000000000E+00 0.  1.
         12    1    4    4    0    0 -0.23108334104E+02  0.35394872644E+02  0.24232550801E+02  0.48723799450E+02  0.00000000000E+00 0. -1.
         -5    1    5    5    0  502  0.26531769883E+02 -0.42154716326E+02  0.31387873242E+03  0.31784100363E+03  0.47000000000E+01 0.  1.
         13    1    6    6    0    0 -0.28779257710E+02 -0.86231864990E+01  0.42533082431E+02  0.52073679732E+02  0.00000000000E+00 0. -1.
        -14    1    6    6    0    0  0.50934577551E+02  0.11948099213E+00  0.31003165898E+02  0.59628363735E+02  0.00000000000E+00 0.  1.
</event>
<event>
12    1  0.8728348E-002  0.2182642E+03  0.7818608E-02  0.1135321E+00
         21   -1    0    0  503  502  0.00000000000E+00  0.00000000000E+00  0.81789245371E+02  0.81789245371E+02  0.00000000000E+00 0.  1.
         21   -1    0    0  501  503 -0.00000000000E+00 -0.00000000000E+00 -0.61414298240E+03  0.61414298240E+03  0.00000000000E+00 0. -1.
          6    2    1    2  501    0 -0.80163897624E+02  0.10846148422E+03 -0.34799933148E+03  0.41078315633E+03  0.17160746713E+03 0.  0.
         24    2    3    3    0    0 -0.66307046145E+02  0.31824541296E+02 -0.29736946705E+03  0.31777398191E+03  0.84511998264E+02 0.  0.
         -6    2    1    2    0  502  0.80163897624E+02 -0.10846148422E+03 -0.18435440555E+03  0.28514907143E+03  0.17068480323E+03 0.  0.
        -24    2    5    5    0    0  0.14933313127E+02 -0.11666047354E+03 -0.16310370811E+03  0.21589638397E+03  0.78585998008E+02 0.  0.
          5    1    3    3  501    0 -0.13856851479E+02  0.76636942928E+02 -0.50629864432E+02  0.93009174422E+02  0.47000000000E+01 0. -1.
        -11    1    4    4    0    0 -0.23932253458E+02 -0.19294091025E+02 -0.32609747128E+02  0.44815291049E+02  0.00000000000E+00 0.  1.
         12    1    4    4    0    0 -0.42374792687E+02  0.51118632320E+02 -0.26475971992E+03  0.27295869086E+03  0.00000000000E+00 0. -1.
         -5    1    5    5    0  502  0.65230584497E+02  0.81989893187E+01 -0.21250697436E+02  0.69252687465E+02  0.47000000000E+01 0.  1.
         11    1    6    6    0    0 -0.13778535569E+02  0.39027050640E+01 -0.53618867051E+01  0.15291467499E+02  0.00000000000E+00 0. -1.
        -12    1    6    6    0    0  0.28711848696E+02 -0.12056317861E+03 -0.15774182140E+03  0.20060491647E+03  0.00000000000E+00 0.  1.
</event>
<event>
12    1  0.8728348E-002  0.2567809E+03  0.7818608E-02  0.1109156E+00
         21   -1    0    0  503  502  0.00000000000E+00  0.00000000000E+00  0.47766995650E+03  0.47766995650E+03  0.00000000000E+00 0. -1.
         21   -1    0    0  501  503 -0.00000000000E+00 -0.00000000000E+00 -0.62401466893E+03  0.62401466893E+03  0.00000000000E+00 0. -1.
          6    2    1    2  501    0  0.46864314436E+02  0.18508800623E+03 -0.55938318952E+03  0.61533370770E+03  0.17109116017E+03 0.  0.
         24    2    3    3    0    0  0.18535818111E+02  0.36351532405E+02 -0.31113984958E+03  0.32452124549E+03  0.82710472824E+02 0.  0.
         -6    2    1    2    0  502 -0.46864314436E+02 -0.18508800623E+03  0.41303847709E+03  0.48635091773E+03  0.17170497254E+03 0.  0.
        -24    2    5    5    0    0 -0.63129383823E+02 -0.18958643049E+03  0.41622745892E+03  0.46854507857E+03  0.79754995866E+02 0.  0.
          5    1    3    3  501    0  0.28328496325E+02  0.14873647383E+03 -0.24824333994E+03  0.29081246221E+03  0.47000000000E+01 0. -1.
        -11    1    4    4    0    0  0.11647602998E+02 -0.20656412676E+01 -0.93014361874E+00  0.11865862657E+02  0.00000000000E+00 0.  1.
         12    1    4    4    0    0  0.68882151139E+01  0.38417173673E+02 -0.31020970596E+03  0.31265538283E+03  0.00000000000E+00 0. -1.
         -5    1    5    5    0  502  0.16265069386E+02  0.44984242613E+01 -0.31889818262E+01  0.17805839156E+02  0.47000000000E+01 0.  1.
         11    1    6    6    0    0 -0.26035021135E+02 -0.89739795149E+02  0.28267803176E+03  0.29772121658E+03  0.00000000000E+00 0. -1.
        -12    1    6    6    0    0 -0.37094362687E+02 -0.99846635344E+02  0.13354942716E+03  0.17082386200E+03  0.00000000000E+00 0.  1.
</event>
<event>
12    1  0.8728348E-002  0.1750477E+03  0.7818608E-02  0.1172964E+00
         21   -1    0    0  503  502  0.00000000000E+00  0.00000000000E+00  0.39180989150E+03  0.39180989150E+03  0.00000000000E+00 0. -1.
         21   -1    0    0  501  503 -0.00000000000E+00 -0.00000000000E+00 -0.20789903547E+03  0.20789903547E+03  0.00000000000E+00 0. -1.
          6    2    1    2  501    0  0.28371883556E+02  0.14631757266E+02 -0.14522110323E+03  0.22744422138E+03  0.17211232645E+03 0.  0.
         24    2    3    3    0    0  0.40552656930E+02  0.72474994734E+02 -0.89679752362E+02  0.14619680285E+03  0.80211622185E+02 0.  0.
         -6    2    1    2    0  502 -0.28371883556E+02 -0.14631757266E+02  0.32913195926E+03  0.37226470560E+03  0.17097985942E+03 0.  0.
        -24    2    5    5    0    0 -0.56702080225E+02 -0.18552901204E+02  0.13141662795E+03  0.17243623503E+03  0.94364129865E+02 0.  0.
          5    1    3    3  501    0 -0.12180773374E+02 -0.57843237468E+02 -0.55541350871E+02  0.81247418527E+02  0.47000000000E+01 0. -1.
        -11    1    4    4    0    0  0.18823493395E+02  0.83855781694E+02 -0.85658168304E+02  0.12134017399E+03  0.00000000000E+00 0.  1.
         12    1    4    4    0    0  0.21729163535E+02 -0.11380786960E+02 -0.40215840576E+01  0.24856628856E+02  0.00000000000E+00 0. -1.
         -5    1    5    5    0  502  0.28330196669E+02  0.39211439381E+01  0.19771533131E+03  0.19982847056E+03  0.47000000000E+01 0.  1.
         11    1    6    6    0    0  0.70689738535E+01  0.16779522028E+02  0.82870365305E+02  0.84847040000E+02  0.00000000000E+00 0. -1.
        -12    1    6    6    0    0 -0.63771054078E+02 -0.35332423232E+02  0.48546262648E+02  0.87589195035E+02  0.00000000000E+00 0.  1.
</event>
<event>
12    1  0.8728348E-002  0.2300926E+03  0.7818608E-02  0.1127099E+00
         21   -1    0    0  503  502  0.00000000000E+00  0.00000000000E+00  0.90649254066E+02  0.90649254066E+02  0.00000000000E+00 0.  1.
         21   -1    0    0  501  503 -0.00000000000E+00 -0.00000000000E+00 -0.92865225925E+03  0.92865225925E+03  0.00000000000E+00 0.  1.
          6    2    1    2  501    0  0.14583105777E+03 -0.10079171582E+01 -0.73113293002E+03  0.76560130140E+03  0.17413293210E+03 0.  0.
         24    2    3    3    0    0  0.24290809208E+02 -0.10090725888E+02 -0.46429355774E+03  0.47220758975E+03  0.81973373131E+02 0.  0.
         -6    2    1    2    0  502 -0.14583105777E+03  0.10079171582E+01 -0.10687007516E+03  0.25370021191E+03  0.17797435560E+03 0.  0.
        -24    2    5    5    0    0 -0.13608385210E+03 -0.49675462480E+02 -0.62414401693E+02  0.18541983484E+03  0.97460203356E+02 0.  0.
          5    1    3    3  501    0  0.12154024857E+03  0.90828087298E+01 -0.26683937228E+03  0.29339371165E+03  0.47000000000E+01 0. -1.
        -11    1    4    4    0    0  0.47469097177E+02  0.18740797279E+01 -0.40019629701E+03  0.40300608371E+03  0.00000000000E+00 0.  1.
         12    1    4    4    0    0 -0.23178287970E+02 -0.11964805616E+02 -0.64097260724E+02  0.69201506046E+02  0.00000000000E+00 0. -1.
         -5    1    5    5    0  502 -0.97472056770E+01  0.50683379638E+02 -0.44455673470E+02  0.68280377076E+02  0.47000000000E+01 0.  1.
         11    1    6    6    0    0 -0.28848263754E+02 -0.57033492825E+02 -0.64593884255E+01  0.64239904454E+02  0.00000000000E+00 0. -1.
        -12    1    6    6    0    0 -0.10723558834E+03  0.73580303454E+01 -0.55955013268E+02  0.12117993038E+03  0.00000000000E+00 0.  1.
</event>
<event>
12    1  0.8728348E-002  0.3806565E+03  0.7818608E-02  0.1050968E+00
         21   -1    0    0  503  502  0.00000000000E+00  0.00000000000E+00  0.18187441630E+03  0.18187441630E+03  0.00000000000E+00 0.  1.
         21   -1    0    0  501  503 -0.00000000000E+00 -0.00000000000E+00 -0.80042692168E+03  0.80042692168E+03  0.00000000000E+00 0.  1.
          6    2    1    2  501    0  0.18318554263E+03 -0.28432148728E+03 -0.36286860284E+03  0.52374535295E+03  0.16804737620E+03 0.  0.
         24    2    3    3    0    0  0.12842848716E+03 -0.20900636130E+03 -0.34272379021E+03  0.42835873544E+03  0.76511923708E+02 0.  0.
         -6    2    1    2    0  502 -0.18318554263E+03  0.28432148728E+03 -0.25568390253E+03  0.45855598502E+03  0.17465303383E+03 0.  0.
        -24    2    5    5    0    0 -0.42539394801E+02  0.17852000022E+03 -0.10143103899E+03  0.22448050686E+03  0.80151429817E+02 0.  0.
          5    1    3    3  501    0  0.54757055465E+02 -0.75315125984E+02 -0.20144812635E+02  0.95386617517E+02  0.47000000000E+01 0. -1.
        -11    1    4    4    0    0  0.78534815470E+02 -0.10282745874E+03 -0.11923596107E+03  0.17595004383E+03  0.00000000000E+00 0.  1.
         12    1    4    4    0    0  0.49893671694E+02 -0.10617890256E+03 -0.22348782914E+03  0.25240869160E+03  0.00000000000E+00 0. -1.
         -5    1    5    5    0  502 -0.14064614783E+03  0.10580148706E+03 -0.15425286355E+03  0.23407547816E+03  0.47000000000E+01 0.  1.
         11    1    6    6    0    0 -0.57900459558E+02  0.72729544231E+02 -0.40159871888E+02  0.10126630798E+03  0.00000000000E+00 0. -1.
        -12    1    6    6    0    0  0.15361064757E+02  0.10579045599E+03 -0.61271167102E+02  0.12321419889E+03  0.00000000000E+00 0.  1.
</event>
<event>
12    1  0.8728348E-002  0.1856888E+03  0.7818608E-02  0.1163921E+00
         21   -1    0    0  503  502  0.00000000000E+00  0.00000000000E+00  0.11017747471E+04  0.11017747471E+04  0.00000000000E+00 0.  1.
         21   -1    0    0  501  503 -0.00000000000E+00 -0.00000000000E+00 -0.63160107063E+02  0.63160107063E+02  0.00000000000E+00 0.  1.
          6    2    1    2  501    0 -0.34418584998E+02 -0.38739153217E+02  0.10309537768E+03  0.21238880647E+03  0.17831148933E+03 0.  0.
         24    2    3    3    0    0  0.23573993160E+01 -0.41683554616E+01 -0.17318995483E+02  0.81739182108E+02  0.79739662454E+02 0.  0.
         -6    2    1    2    0  502  0.34418584998E+02  0.38739153217E+02  0.93551926239E+03  0.95254604774E+03  0.17164591974E+03 0.  0.
        -24    2    5    5    0    0  0.74726744745E+02  0.66640928657E+02  0.60573007773E+03  0.61910002042E+03  0.79691959821E+02 0.  0.
          5    1    3    3  501    0 -0.36775984314E+02 -0.34570797755E+02  0.12041437317E+03  0.13064962436E+03  0.47000000000E+01 0. -1.
        -13    1    4    4    0    0 -0.15176340813E+02  0.32218165894E+02  0.43914668814E+01  0.35883373802E+02  0.00000000000E+00 0.  1.
         14    1    4    4    0    0  0.17533740129E+02 -0.36386521356E+02 -0.21710462364E+02  0.45855808306E+02  0.00000000000E+00 0. -1.
         -5    1    5    5    0  502 -0.40308159747E+02 -0.27901775440E+02  0.32978918466E+03  0.33344602731E+03  0.47000000000E+01 0.  1.
         11    1    6    6    0    0  0.61395744620E+02  0.30044233510E+02  0.19705635315E+03  0.20857444652E+03  0.00000000000E+00 0. -1.
        -12    1    6    6    0    0  0.13331000125E+02  0.36596695147E+02  0.40867372459E+03  0.41052557390E+03  0.00000000000E+00 0.  1.
</event>
<event>
12    1  0.8728348E-002  0.1965442E+03  0.7818608E-02  0.1152796E+00
         21   -1    0    0  503  502  0.00000000000E+00  0.00000000000E+00  0.18756532638E+03  0.18756532638E+03  0.00000000000E+00 0.  1.
         21   -1    0    0  501  503 -0.00000000000E+00 -0.00000000000E+00 -0.29345845762E+03  0.29345845762E+03  0.00000000000E+00 0. -1.
          6    2    1    2  501    0 -0.17952601921E+02 -0.92035588529E+02 -0.18462833041E+03  0.26929557350E+03  0.17216166835E+03 0.  0.
         24    2    3    3    0    0 -0.79947528843E+02 -0.68548428295E+02 -0.11877575336E+03  0.17573452625E+03  0.75395289899E+02 0.  0.
         -6    2    1    2    0  502  0.17952601921E+02  0.92035588529E+02  0.78735199162E+02  0.21172821050E+03  0.17273319908E+03 0.  0.
        -24    2    5    5    0    0 -0.21477013408E+02 -0.11546764938E+02  0.20542197127E+02  0.86458445590E+02  0.80364737700E+02 0.  0.
          5    1    3    3  501    0  0.61994926922E+02 -0.23487160233E+02 -0.65852577048E+02  0.93561047257E+02  0.47000000000E+01 0. -1.
        -11    1    4    4    0    0 -0.15211732655E+02  0.16625930893E+02 -0.20566237600E+02  0.30508826878E+02  0.00000000000E+00 0.  1.
         12    1    4    4    0    0 -0.64735796188E+02 -0.85174359189E+02 -0.98209515758E+02  0.14522569937E+03  0.00000000000E+00 0. -1.
         -5    1    5    5    0  502  0.39429615328E+02  0.10358235347E+03  0.58193002034E+02  0.12526976491E+03  0.47000000000E+01 0.  1.
         13    1    6    6    0    0 -0.29496298078E+02  0.12522600582E+02 -0.20620256598E+02  0.38105670284E+02  0.00000000000E+00 0. -1.
        -14    1    6    6    0    0  0.80192846703E+01 -0.24069365519E+02  0.41162453725E+02  0.48352775306E+02  0.00000000000E+00 0.  1.
</event>
<event>
12    1  0.8728348E-002  0.2198867E+03  0.7818608E-02  0.1134038E+00
         21   -1    0    0  503  502  0.00000000000E+00  0.00000000000E+00  0.64967145656E+03  0.64967145656E+03  0.00000000000E+00 0.  1.
         21   -1    0    0  501  503 -0.00000000000E+00 -0.00000000000E+00 -0.22174166581E+03  0.22174166581E+03  0.00000000000E+00 0. -1.
          6    2    1    2  501    0 -0.12132447047E+03 -0.59957906560E+02 -0.14126839978E+03  0.26135592035E+03  0.17330775699E+03 0.  0.
         24    2    3    3    0    0 -0.47205898421E+02 -0.82432994673E+02 -0.13558137459E+03  0.18355409156E+03  0.79285559429E+02 0.  0.
         -6    2    1    2    0  502  0.12132447047E+03  0.59957906560E+02  0.56919819053E+03  0.61005720202E+03  0.17282543778E+03 0.  0.
        -24    2    5    5    0    0  0.41008723314E+02  0.19545459790E+02  0.11695864599E+03  0.14894281195E+03  0.80255192798E+02 0.  0.
          5    1    3    3  501    0 -0.74118572050E+02  0.22475088113E+02 -0.56870251891E+01  0.77801828795E+02  0.47000000000E+01 0. -1.
        -11    1    4    4    0    0  0.19509801265E+02 -0.38534381946E+02 -0.38645094336E+02  0.57956658406E+02  0.00000000000E+00 0.  1.
         12    1    4    4    0    0 -0.66715699686E+02 -0.43898612727E+02 -0.96936280256E+02  0.12559743315E+03  0.00000000000E+00 0. -1.
         -5    1    5    5    0  502  0.80315747157E+02  0.40412446770E+02  0.45223954453E+03  0.46111439008E+03  0.47000000000E+01 0.  1.
         13    1    6    6    0    0  0.10770036286E+02  0.36078810575E+02  0.10645016593E+03  0.11291285171E+03  0.00000000000E+00 0. -1.
        -14    1    6    6    0    0  0.30238687028E+02 -0.16533350785E+02  0.10508480062E+02  0.36029960236E+02  0.00000000000E+00 0.  1.
</event>
<event>
12    1  0.8728348E-002  0.2253764E+03  0.7818608E-02  0.1132999E+00
         21   -1    0    0  503  502  0.00000000000E+00  0.00000000000E+00  0.91682663366E+03  0.91682663366E+03  0.00000000000E+00 0. -1.
         21   -1    0    0  501  503 -0.00000000000E+00 -0.00000000000E+00 -0.52414037757E+02  0.52414037757E+02  0.00000000000E+00 0.  1.
          6    2    1    2  501    0  0.97408258279E+02 -0.63069121557E+02  0.51305537950E+03  0.56037516758E+03  0.19320564985E+03 0.  0.
         24    2    3    3    0    0  0.29910109277E+02  0.16061465847E+00  0.76170985148E+02  0.11378356031E+03  0.79057189322E+02 0.  0.
         -6    2    1    2    0  502 -0.97408258279E+02  0.63069121557E+02  0.35135721640E+03  0.40886550384E+03  0.17393396400E+03 0.  0.
        -24    2    5    5    0    0 -0.21260457837E+02 -0.23655445306E+02  0.16074606404E+03  0.18598809490E+03  0.87981175143E+02 0.  0.
          5    1    3    3  501    0  0.67498149002E+02 -0.63229736216E+02  0.43688439436E+03  0.44659160728E+03  0.47000000000E+01 0. -1.
        -11    1    4    4    0    0  0.16774451193E+02  0.39562872362E+02  0.37497046166E+02  0.57031846836E+02  0.00000000000E+00 0.  1.
         12    1    4    4    0    0  0.13135658084E+02 -0.39402257703E+02  0.38673938983E+02  0.56751713470E+02  0.00000000000E+00 0. -1.
         -5    1    5    5    0  502 -0.76147800442E+02  0.86724566863E+02  0.19061115236E+03  0.22287740894E+03  0.47000000000E+01 0.  1.
         11    1    6    6    0    0  0.33147535793E+02  0.67389478680E+00  0.46211966390E+02  0.56874942645E+02  0.00000000000E+00 0. -1.
        -12    1    6    6    0    0 -0.54407993630E+02 -0.24329340092E+02  0.11453409765E+03  0.12911315225E+03  0.00000000000E+00 0.  1.
</event>
<event>
12    1  0.8728348E-002  0.2088886E+03  0.7818608E-02  0.1142702E+00
         21   -1    0    0  503  502  0.00000000000E+00  0.00000000000E+00  0.25981190276E+03  0.25981190276E+03  0.00000000000E+00 0. -1.
         21   -1    0    0  501  503 -0.00000000000E+00 -0.00000000000E+00 -0.22133171679E+03  0.22133171679E+03  0.00000000000E+00 0. -1.
          6    2    1    2  501    0 -0.95859555772E+02 -0.65839375654E+02 -0.99981815677E+02  0.23158327961E+03  0.17352398713E+03 0.  0.
         24    2    3    3    0    0 -0.10093709690E+02 -0.58761983047E+01  0.83480040034E+01  0.80888877513E+02  0.79604702453E+02 0.  0.
         -6    2    1    2    0  502  0.95859555772E+02  0.65839375654E+02  0.13846200165E+03  0.24956033994E+03  0.17200220799E+03 0.  0.
        -24    2    5    5    0    0  0.85651497473E+02  0.15461123605E+02  0.15498977693E+03  0.19536227642E+03  0.81051605380E+02 0.  0.
          5    1    3    3  501    0 -0.85765846081E+02 -0.59963177349E+02 -0.10832981968E+03  0.15069440210E+03  0.47000000000E+01 0. -1.
        -13    1    4    4    0    0  0.35201933297E+01  0.22780193511E+02 -0.25583406104E+02  0.34436022496E+02  0.00000000000E+00 0.  1.
         14    1    4    4    0    0 -0.13613903020E+02 -0.28656391816E+02  0.33931410108E+02  0.46452855017E+02  0.00000000000E+00 0. -1.
         -5    1    5    5    0  502  0.10208058299E+02  0.50378252049E+02 -0.16527775276E+02  0.54198063520E+02  0.47000000000E+01 0.  1.
         13    1    6    6    0    0  0.67410398099E+02  0.39983600727E+02  0.70148505822E+02  0.10518394824E+03  0.00000000000E+00 0. -1.
        -14    1    6    6    0    0  0.18241099374E+02 -0.24522477122E+02  0.84841271104E+02  0.90178328179E+02  0.00000000000E+00 0.  1.
</event>
<event>
12    1  0.8728348E-002  0.1786982E+03  0.7818608E-02  0.1169773E+00
         21   -1    0    0  503  502  0.00000000000E+00  0.00000000000E+00  0.81810146306E+02  0.81810146306E+02  0.00000000000E+00 0. -1.
         21   -1    0    0  501  503 -0.00000000000E+00 -0.00000000000E+00 -0.39726526015E+03  0.39726526015E+03  0.00000000000E+00 0. -1.
          6    2    1    2  501    0 -0.15195678559E+02 -0.45411573288E+02 -0.20007909760E+03  0.26636743373E+03  0.16919469501E+03 0.  0.
         24    2    3    3    0    0 -0.61244484635E+02  0.10836828357E+02 -0.99450061086E+02  0.14213914300E+03  0.80280119426E+02 0.  0.
         -6    2    1    2    0  502  0.15195678559E+02  0.45411573288E+02 -0.11537601624E+03  0.21270797272E+03  0.17216253048E+03 0.  0.
        -24    2    5    5    0    0  0.20789363281E+02  0.68252343849E+02 -0.14148352564E+03  0.17725825967E+03  0.79450126038E+02 0.  0.
          5    1    3    3  501    0  0.46048806076E+02 -0.56248401645E+02 -0.10062903651E+03  0.12422829073E+03  0.47000000000E+01 0. -1.
        -11    1    4    4    0    0 -0.64762499907E+02  0.15473850571E+02 -0.11086614634E+03  0.12932487715E+03  0.00000000000E+00 0.  1.
         12    1    4    4    0    0  0.35180152727E+01 -0.46370222136E+01  0.11416085258E+02  0.12814265843E+02  0.00000000000E+00 0. -1.
         -5    1    5    5    0  502 -0.55936847221E+01 -0.22840770561E+02  0.26107509398E+02  0.35449713053E+02  0.47000000000E+01 0.  1.
         13    1    6    6    0    0  0.14221029994E+02  0.67329550915E+01 -0.10343702178E+03  0.10462689832E+03  0.00000000000E+00 0. -1.
        -14    1    6    6    0    0  0.65683332867E+01  0.61519388757E+02 -0.38046503865E+02  0.72631361350E+02  0.00000000000E+00 0.  1.
</event>
<event>
12    1  0.8728348E-002  0.1776075E+03  0.7818608E-02  0.1170333E+00
         21   -1    0    0  501  502  0.00000000000E+00  0.00000000000E+00  0.20419783819E+04  0.20419783819E+04  0.00000000000E+00 0.  1.
         21   -1    0    0  502  503 -0.00000000000E+00 -0.00000000000E+00 -0.15507795977E+02  0.15507795977E+02  0.00000000000E+00 0.  1.
         -6    2    1    2    0  503  0.40099326100E+02  0.68999704312E+01  0.11044870204E+04  0.11185516194E+04  0.17207725412E+03 0.  0.
        -24    2    3    3    0    0  0.63477634343E+02  0.50093228481E+02  0.93567880071E+03  0.94268090584E+03  0.81324845759E+02 0.  0.
          6    2    1    2  501    0 -0.40099326100E+02 -0.68999704312E+01  0.92198356557E+03  0.93893455857E+03  0.17288390482E+03 0.  0.
         24    2    5    5    0    0 -0.13942446437E+02  0.59648748756E+02  0.64397500404E+03  0.65183916560E+03  0.80237939543E+02 0.  0.
          5    1    5    5  501    0 -0.26156879663E+02 -0.66548719187E+02  0.27800856153E+03  0.28709539297E+03  0.47000000000E+01 0. -1.
        -11    1    6    6    0    0  0.20178229872E+02 -0.74826802367E+01  0.23545007796E+03  0.23643157715E+03  0.00000000000E+00 0.  1.
         12    1    6    6    0    0 -0.34120676309E+02  0.67131428992E+02  0.40852492608E+03  0.41540758845E+03  0.00000000000E+00 0. -1.
         -5    1    3    3    0  503 -0.23378308243E+02 -0.43193258050E+02  0.16880821969E+03  0.17587071351E+03  0.47000000000E+01 0.  1.
         11    1    4    4    0    0  0.42665878364E+02 -0.13568582415E+02  0.27561770087E+03  0.27923037199E+03  0.00000000000E+00 0. -1.
        -12    1    4    4    0    0  0.20811755979E+02  0.63661810896E+02  0.66006109984E+03  0.66345053386E+03  0.00000000000E+00 0.  1.
</event>
<event>
12    1  0.8728348E-002  0.2097605E+03  0.7818608E-02  0.1144455E+00
         21   -1    0    0  503  502  0.00000000000E+00  0.00000000000E+00  0.23518648620E+03  0.23518648620E+03  0.00000000000E+00 0.  1.
         21   -1    0    0  501  503 -0.00000000000E+00 -0.00000000000E+00 -0.21716878770E+03  0.21716878770E+03  0.00000000000E+00 0. -1.
          6    2    1    2  501    0 -0.62655325173E+02  0.99105737942E+02 -0.89742855381E+02  0.22815179115E+03  0.17393051098E+03 0.  0.
         24    2    3    3    0    0  0.33102162890E+02  0.54251001924E+02 -0.63024448349E+02  0.11898491368E+03  0.78399006343E+02 0.  0.
         -6    2    1    2    0  502  0.62655325173E+02 -0.99105737942E+02  0.10776055389E+03  0.22420348275E+03  0.15782023836E+03 0.  0.
        -24    2    5    5    0    0  0.34542688775E+02 -0.70069115131E+02  0.13460426462E+03  0.17545801531E+03  0.81020545800E+02 0.  0.
          5    1    3    3  501    0 -0.95757488064E+02  0.44854736017E+02 -0.26718407032E+02  0.10916687748E+03  0.47000000000E+01 0. -1.
        -13    1    4    4    0    0 -0.15506985385E+02  0.72229128309E+01  0.97042491824E+01  0.19667473597E+02  0.00000000000E+00 0.  1.
         14    1    4    4    0    0  0.48609148275E+02  0.47028089093E+02 -0.72728697531E+02  0.99317440082E+02  0.00000000000E+00 0. -1.
         -5    1    5    5    0  502  0.28112636398E+02 -0.29036622811E+02 -0.26843710732E+02  0.48745467434E+02  0.47000000000E+01 0.  1.
         13    1    6    6    0    0  0.28621261185E+02 -0.50964988517E+02  0.24210975800E+02  0.63267511374E+02  0.00000000000E+00 0. -1.
        -14    1    6    6    0    0  0.59214275905E+01 -0.19104126614E+02  0.11039328882E+03  0.11219050394E+03  0.00000000000E+00 0.  1.
</event>
<event>
12    1  0.8728348E-002  0.2136558E+03  0.7818608E-02  0.1139556E+00
         21   -1    0    0  501  502  0.00000000000E+00  0.00000000000E+00  0.35953225567E+04  0.35953225567E+04  0.00000000000E+00 0. -1.
         21   -1    0    0  502  503 -0.00000000000E+00 -0.00000000000E+00 -0.28147162432E+02  0.28147162432E+02  0.00000000000E+00 0. -1.
         -6    2    1    2    0  503  0.58278876677E+02 -0.11402154742E+03  0.42206186795E+03  0.47110744438E+03  0.16555561913E+03 0.  0.
        -24    2    3    3    0    0  0.40315592938E+02 -0.91429517840E+02  0.14994937466E+03  0.19742810944E+03  0.80674281353E+02 0.  0.
          6    2    1    2  501    0 -0.58278876677E+02  0.11402154742E+03  0.31451135263E+04  0.31523622747E+04  0.17103063215E+03 0.  0.
         24    2    5    5    0    0 -0.87371265613E+02  0.62788692673E+02  0.14325908638E+04  0.14388199986E+04  0.79437065508E+02 0.  0.
          5    1    5    5  501    0  0.29092388936E+02  0.51232854750E+02  0.17125226625E+04  0.17135422761E+04  0.47000000000E+01 0. -1.
        -13    1    6    6    0    0 -0.29996653504E+02 -0.14021920754E+02  0.22422166382E+03  0.22665340944E+03  0.00000000000E+00 0.  1.
         14    1    6    6    0    0 -0.57374612109E+02  0.76810613427E+02  0.12083691999E+04  0.12121665891E+04  0.00000000000E+00 0. -1.
         -5    1    3    3    0  503  0.17963283739E+02 -0.22592029583E+02  0.27211249329E+03  0.27367933493E+03  0.47000000000E+01 0.  1.
         11    1    4    4    0    0  0.29982802528E+02 -0.60568218750E+02  0.31453061839E+02  0.74543763448E+02  0.00000000000E+00 0. -1.
        -12    1    4    4    0    0  0.10332790410E+02 -0.30861299090E+02  0.11849631282E+03  0.12288434599E+03  0.00000000000E+00 0.  1.
</event>
<event>
12    1  0.8728348E-002  0.2526716E+03  0.7818608E-02  0.1111656E+00
         21   -1    0    0  501  502  0.00000000000E+00  0.00000000000E+00  0.14771568112E+03  0.14771568112E+03  0.00000000000E+00 0. -1.
         21   -1    0    0  502  503 -0.00000000000E+00 -0.00000000000E+00 -0.44262726027E+03  0.44262726027E+03  0.00000000000E+00 0.  1.
         -6    2    1    2    0  503  0.12808008504E+03  0.13421825544E+03 -0.19346694010E+03  0.31823324225E+03  0.17153393623E+03 0.  0.
        -24    2    3    3    0    0  0.65806966866E+02  0.14120317544E+03 -0.18498290955E+03  0.25482347069E+03  0.80295894949E+02 0.  0.
          6    2    1    2  501    0 -0.12808008504E+03 -0.13421825544E+03 -0.10144463905E+03  0.27210969914E+03  0.17127062006E+03 0.  0.
         24    2    5    5    0    0 -0.26797678621E+02 -0.70163826830E+01 -0.59116035987E+02  0.10402566385E+03  0.80989430312E+02 0.  0.
          5    1    5    5  501    0 -0.10128240642E+03 -0.12720187276E+03 -0.42328603059E+02  0.16808403530E+03  0.47000000000E+01 0. -1.
        -11    1    6    6    0    0 -0.73188559281E+01  0.35522729062E+02 -0.13551916967E+02  0.38718011127E+02  0.00000000000E+00 0.  1.
         12    1    6    6    0    0 -0.19478822692E+02 -0.42539111745E+02 -0.45564119020E+02  0.65307652719E+02  0.00000000000E+00 0. -1.
         -5    1    3    3    0  503  0.62273118175E+02 -0.69849199949E+01 -0.84840305498E+01  0.63409771557E+02  0.47000000000E+01 0.  1.
         11    1    4    4    0    0 -0.16792527355E+02  0.25357173242E+02 -0.17588290538E+02  0.35132935742E+02  0.00000000000E+00 0. -1.
        -12    1    4    4    0    0  0.82599494221E+02  0.11584600220E+03 -0.16739461901E+03  0.21969053495E+03  0.00000000000E+00 0.  1.
</event>
<event>
12    1  0.8728348E-002  0.1829611E+03  0.7818608E-02  0.1165025E+00
         21   -1    0    0  501  502  0.00000000000E+00  0.00000000000E+00  0.32940935002E+02  0.32940935002E+02  0.00000000000E+00 0. -1.
         21   -1    0    0  502  503 -0.00000000000E+00 -0.00000000000E+00 -0.11414093668E+04  0.11414093668E+04  0.00000000000E+00 0. -1.
         -6    2    1    2    0  503 -0.53064650490E+02 -0.30807475180E+02 -0.74942528499E+03  0.77137789970E+03  0.17210650395E+03 0.  0.
        -24    2    3    3    0    0 -0.98381824312E+02 -0.58432928722E+01 -0.59455728610E+03  0.60802844692E+03  0.80542525342E+02 0.  0.
          6    2    1    2  501    0  0.53064650490E+02  0.30807475180E+02 -0.35904314682E+03  0.40297240211E+03  0.17236536174E+03 0.  0.
         24    2    5    5    0    0  0.75964368429E+02 -0.31629970615E+02 -0.19331072461E+03  0.22433265992E+03  0.78645188959E+02 0.  0.
          5    1    5    5  501    0 -0.22899717939E+02  0.62437445795E+02 -0.16573242221E+03  0.17863974219E+03  0.47000000000E+01 0. -1.
        -13    1    6    6    0    0  0.39736714074E+02 -0.56232409546E+02 -0.13341546239E+03  0.15013585825E+03  0.00000000000E+00 0.  1.
         14    1    6    6    0    0  0.36227654355E+02  0.24602438930E+02 -0.59895262218E+02  0.74196801666E+02  0.00000000000E+00 0. -1.
         -5    1    3    3    0  503  0.45317173822E+02 -0.24964182308E+02 -0.15486799890E+03  0.16334945278E+03  0.47000000000E+01 0.  1.
         13    1    4    4    0    0 -0.45427719139E+02  0.25182898349E+02 -0.41573580628E+03  0.41896791841E+03  0.00000000000E+00 0. -1.
        -14    1    4    4    0    0 -0.52954105173E+02 -0.31026191221E+02 -0.17882147982E+03  0.18906052851E+03  0.00000000000E+00 0.  1.
</event>
<event>
12    1  0.8728348E-002  0.1850251E+03  0.7818608E-02  0.1164754E+00
         21   -1    0    0  501  502  0.00000000000E+00  0.00000000000E+00  0.15068864875E+03  0.15068864875E+03  0.00000000000E+00 0. -1.
         21   -1    0    0  502  503 -0.00000000000E+00 -0.00000000000E+00 -0.27644012475E+03  0.27644012475E+03  0.00000000000E+00 0. -1.
         -6    2    1    2    0  503 -0.31076911409E+02  0.40078233752E+02 -0.15974566978E+03  0.23900678618E+03  0.17039226973E+03 0.  0.
        -24    2    3    3    0    0 -0.44237251160E+02  0.24123352289E+02 -0.18389547960E+03  0.20686559611E+03  0.80230648269E+02 0.  0.
          6    2    1    2  501    0  0.31076911409E+02 -0.40078233752E+02  0.33994193783E+02  0.18812198733E+03  0.17793885934E+03 0.  0.
         24    2    5    5    0    0  0.45056117439E+01  0.22897156378E+02 -0.39011262436E+02  0.88002956340E+02  0.75352912487E+02 0.  0.
          5    1    5    5  501    0  0.26571299665E+02 -0.62975390130E+02  0.73005456220E+02  0.10011903099E+03  0.47000000000E+01 0. -1.
        -11    1    6    6    0    0  0.54771852358E+01  0.28335120040E+02  0.15808390962E+02  0.32905680522E+02  0.00000000000E+00 0.  1.
         12    1    6    6    0    0 -0.97157349193E+00 -0.54379636617E+01 -0.54819653399E+02  0.55097275818E+02  0.00000000000E+00 0. -1.
         -5    1    3    3    0  503  0.13160339751E+02  0.15954881463E+02  0.24149809817E+02  0.32141190069E+02  0.47000000000E+01 0.  1.
         11    1    4    4    0    0 -0.51257520368E+02  0.20744624976E+02 -0.55884502259E+02  0.78617748966E+02  0.00000000000E+00 0. -1.
        -12    1    4    4    0    0  0.70202692079E+01  0.33787273133E+01 -0.12801097734E+03  0.12824784714E+03  0.00000000000E+00 0.  1.
</event>
<event>
12    1  0.8728348E-002  0.2115037E+03  0.7818608E-02  0.1140791E+00
         21   -1    0    0  501  502  0.00000000000E+00  0.00000000000E+00  0.89295897978E+03  0.89295897978E+03  0.00000000000E+00 0. -1.
         21   -1    0    0  502  503 -0.00000000000E+00 -0.00000000000E+00 -0.55473247695E+02  0.55473247695E+02  0.00000000000E+00 0. -1.
         -6    2    1    2    0  503  0.11882186657E+03  0.22641494871E+02  0.26635295142E+03  0.34011424756E+03  0.17350081671E+03 0.  0.
        -24    2    3    3    0    0  0.14012046925E+03 -0.51351291353E+01  0.25704986817E+03  0.30359290208E+03  0.80211595279E+02 0.  0.
          6    2    1    2  501    0 -0.11882186657E+03 -0.22641494871E+02  0.57113278066E+03  0.60831797992E+03  0.17095858643E+03 0.  0.
         24    2    5    5    0    0 -0.88776797364E+02 -0.13558926185E+02  0.17919375198E+03  0.21509604329E+03  0.78043211501E+02 0.  0.
          5    1    5    5  501    0 -0.30045069201E+02 -0.90825686859E+01  0.39193902868E+03  0.39322193662E+03  0.47000000000E+01 0. -1.
        -11    1    6    6    0    0  0.48397219968E+01  0.11095682768E+02  0.80512476474E+00  0.12131995343E+02  0.00000000000E+00 0.  1.
         12    1    6    6    0    0 -0.93616519361E+02 -0.24654608953E+02  0.17838862722E+03  0.20296404795E+03  0.00000000000E+00 0. -1.
         -5    1    3    3    0  503 -0.21298602684E+02  0.27776624006E+02  0.93030832570E+01  0.36521345479E+02  0.47000000000E+01 0.  1.
         13    1    4    4    0    0  0.36078157443E+02 -0.30366419333E+02  0.12498633305E+03  0.13358643762E+03  0.00000000000E+00 0. -1.
        -14    1    4    4    0    0  0.10404231181E+03  0.25231290197E+02  0.13206353512E+03  0.17000646446E+03  0.00000000000E+00 0.  1.
</event>
<event>
12    1  0.8728348E-002  0.2116352E+03  0.7818608E-02  0.1140527E+00
         21   -1    0    0  501  502  0.00000000000E+00  0.00000000000E+00  0.25556603152E+03  0.25556603152E+03  0.00000000000E+00 0. -1.
         21   -1    0    0  502  503 -0.00000000000E+00 -0.00000000000E+00 -0.35488735516E+03  0.35488735516E+03  0.00000000000E+00 0.  1.
         -6    2    1    2    0  503 -0.11991127420E+03  0.17143604665E+02 -0.26737521698E+03  0.34020983817E+03  0.17199014645E+03 0.  0.
        -24    2    3    3    0    0 -0.97742471920E+02 -0.11042040265E+02 -0.79611082955E+02  0.14899439319E+03  0.78650411335E+02 0.  0.
          6    2    1    2  501    0  0.11991127420E+03 -0.17143604665E+02  0.16805389333E+03  0.27024354851E+03  0.17354206287E+03 0.  0.
         24    2    5    5    0    0  0.19565325066E+02 -0.60691914719E+02  0.85357378902E+02  0.13303360603E+03  0.79660201756E+02 0.  0.
          5    1    5    5  501    0  0.10034594913E+03  0.43548310053E+02  0.82696514432E+02  0.13720994248E+03  0.47000000000E+01 0. -1.
        -11    1    6    6    0    0  0.71180597417E+00  0.16160180324E+02 -0.61530117369E+00  0.16187547417E+02  0.00000000000E+00 0.  1.
         12    1    6    6    0    0  0.18853519091E+02 -0.76852095042E+02  0.85972680075E+02  0.11684605861E+03  0.00000000000E+00 0. -1.
         -5    1    3    3    0  503 -0.22168802277E+02  0.28185644930E+02 -0.18776413402E+03  0.19121544498E+03  0.47000000000E+01 0.  1.
         11    1    4    4    0    0 -0.22956061633E+02  0.18276193459E+02  0.77168391907E+01  0.30340560643E+02  0.00000000000E+00 0. -1.
        -12    1    4    4    0    0 -0.74786410287E+02 -0.29318233724E+02 -0.87327922146E+02  0.11865383255E+03  0.00000000000E+00 0.  1.
</event>
<event>
12    1  0.8728348E-002  0.1828986E+03  0.7818608E-02  0.1165254E+00
         21   -1    0    0  503  502  0.00000000000E+00  0.00000000000E+00  0.28717209056E+03  0.28717209056E+03  0.00000000000E+00 0. -1.
         21   -1    0    0  501  503 -0.00000000000E+00 -0.00000000000E+00 -0.12334291892E+03  0.12334291892E+03  0.00000000000E+00 0. -1.
          6    2    1    2  501    0 -0.60727537983E+02 -0.13068883185E+02  0.31626826561E+02  0.18561289446E+03  0.17202691898E+03 0.  0.
         24    2    3    3    0    0  0.18305649323E+02  0.25797796023E+01 -0.27874511550E+02  0.85345130048E+02  0.78517837265E+02 0.  0.
         -6    2    1    2    0  502  0.60727537983E+02  0.13068883185E+02  0.13220234508E+03  0.22490211502E+03  0.17101132043E+03 0.  0.
        -24    2    5    5    0    0  0.98158561532E+02  0.13208021837E+02  0.13727295065E+03  0.18683767066E+03  0.79087907756E+02 0.  0.
          5    1    3    3  501    0 -0.79033187306E+02 -0.15648662787E+02  0.59501338111E+02  0.10026776441E+03  0.47000000000E+01 0. -1.
        -11    1    4    4    0    0  0.14582153993E+02  0.21911615867E+02 -0.49523419943E+02  0.56083217167E+02  0.00000000000E+00 0.  1.
         12    1    4    4    0    0  0.37234953298E+01 -0.19331836265E+02  0.21648908392E+02  0.29261912881E+02  0.00000000000E+00 0. -1.
         -5    1    5    5    0  502 -0.37431023548E+02 -0.13913865191E+00 -0.50706055700E+01  0.38064444358E+02  0.47000000000E+01 0.  1.
         11    1    6    6    0    0  0.28321901661E+02 -0.24875179709E+02  0.81176776631E+02  0.89501808604E+02  0.00000000000E+00 0. -1.
        -12    1    6    6    0    0  0.69836659871E+02  0.38083201546E+02  0.56096174022E+02  0.97335862054E+02  0.00000000000E+00 0.  1.
</event>
<event>
12    1  0.8728348E-002  0.2314494E+03  0.7818608E-02  0.1125717E+00
         21   -1    0    0  501  502  0.00000000000E+00  0.00000000000E+00  0.11526095897E+03  0.11526095897E+03  0.00000000000E+00 0. -1.
         21   -1    0    0  502  503 -0.00000000000E+00 -0.00000000000E+00 -0.47530290339E+03  0.47530290339E+03  0.00000000000E+00 0.  1.
         -6    2    1    2    0  503  0.12752126001E+03 -0.86535777951E+02 -0.22597495151E+03  0.32308903382E+03  0.17196433480E+03 0.  0.
        -24    2    3    3    0    0  0.13770742509E+03 -0.20096670752E+02 -0.18115879380E+03  0.24216628722E+03  0.80366603731E+02 0.  0.
          6    2    1    2  501    0 -0.12752126001E+03  0.86535777951E+02 -0.13406699292E+03  0.26747482854E+03  0.17268095638E+03 0.  0.
         24    2    5    5    0    0 -0.16090593380E+03  0.49759221077E+02 -0.87049053362E+02  0.19891953539E+03  0.60205849019E+02 0.  0.
          5    1    5    5  501    0  0.33384673788E+02  0.36776556874E+02 -0.47017939554E+02  0.68555293153E+02  0.47000000000E+01 0. -1.
        -11    1    6    6    0    0 -0.13415453982E+02  0.25212230042E+02 -0.21067044619E+02  0.35488749178E+02  0.00000000000E+00 0.  1.
         12    1    6    6    0    0 -0.14749047981E+03  0.24546991036E+02 -0.65982008743E+02  0.16343078621E+03  0.00000000000E+00 0. -1.
         -5    1    3    3    0  503 -0.10186165086E+02 -0.66439107199E+02 -0.44816157712E+02  0.80922746596E+02  0.47000000000E+01 0.  1.
         11    1    4    4    0    0  0.69147277914E+02  0.79515860547E+01 -0.34106098189E+02  0.77509997403E+02  0.00000000000E+00 0. -1.
        -12    1    4    4    0    0  0.68560147180E+02 -0.28048256807E+02 -0.14705269561E+03  0.16465628982E+03  0.00000000000E+00 0.  1.
</event>
<event>
12    1  0.8728348E-002  0.2066271E+03  0.7818608E-02  0.1144925E+00
         21   -1    0    0  501  502  0.00000000000E+00  0.00000000000E+00  0.85858419199E+03  0.85858419199E+03  0.00000000000E+00 0. -1.
         21   -1    0    0  502  503 -0.00000000000E+00 -0.00000000000E+00 -0.67000900249E+02  0.67000900249E+02  0.00000000000E+00 0. -1.
         -6    2    1    2    0  503  0.25770925376E+02 -0.10732108681E+03  0.15787497867E+03  0.26003708033E+03  0.17467918591E+03 0.  0.
        -24    2    3    3    0    0  0.81660378582E+02 -0.49612201793E+02  0.11102144487E+03  0.16691731863E+03  0.80036504428E+02 0.  0.
          6    2    1    2  501    0 -0.25770925376E+02  0.10732108681E+03  0.63370831307E+03  0.66554801191E+03  0.17083902899E+03 0.  0.
         24    2    5    5    0    0  0.10122924088E+02  0.32417388273E+02  0.14110575441E+03  0.16596988660E+03  0.80509680636E+02 0.  0.
          5    1    5    5  501    0 -0.35893849464E+02  0.74903698540E+02  0.49260255866E+03  0.49957812530E+03  0.47000000000E+01 0. -1.
        -11    1    6    6    0    0 -0.30565476687E+01  0.13023132156E+02 -0.76280235767E+01  0.15399064858E+02  0.00000000000E+00 0.  1.
         12    1    6    6    0    0  0.13179471757E+02  0.19394256117E+02  0.14873377799E+03  0.15057082174E+03  0.00000000000E+00 0. -1.
         -5    1    3    3    0  503 -0.55889453206E+02 -0.57708885020E+02  0.46853533798E+02  0.93119761701E+02  0.47000000000E+01 0.  1.
         11    1    4    4    0    0  0.15943006876E+02 -0.46206339944E+02  0.16191170348E+02  0.51491351861E+02  0.00000000000E+00 0. -1.
        -12    1    4    4    0    0  0.65717371706E+02 -0.34058618495E+01  0.94830274523E+02  0.11542596677E+03  0.00000000000E+00 0.  1.
</event>
<event>
12    1  0.8728348E-002  0.2168419E+03  0.7818608E-02  0.1136536E+00
         21   -1    0    0  501  502  0.00000000000E+00  0.00000000000E+00  0.36661491422E+03  0.36661491422E+03  0.00000000000E+00 0. -1.
         21   -1    0    0  502  503 -0.00000000000E+00 -0.00000000000E+00 -0.18024959886E+03  0.18024959886E+03  0.00000000000E+00 0. -1.
         -6    2    1    2    0  503  0.48982650913E+02 -0.12005228648E+03 -0.55097108659E+02  0.22232715114E+03  0.17199366027E+03 0.  0.
        -24    2    3    3    0    0  0.22770285180E+02 -0.86723863763E+02 -0.10406600038E+03  0.15738167990E+03  0.76809806011E+02 0.  0.
          6    2    1    2  501    0 -0.48982650913E+02  0.12005228648E+03  0.24146242402E+03  0.32453736194E+03  0.17380605715E+03 0.  0.
         24    2    5    5    0    0  0.31290207287E+02  0.11097363732E+03  0.14835039765E+03  0.20117572654E+03  0.71899980617E+02 0.  0.
          5    1    5    5  501    0 -0.80272858200E+02  0.90786491556E+01  0.93112026369E+02  0.12336163540E+03  0.47000000000E+01 0. -1.
        -13    1    6    6    0    0  0.47623093900E+02  0.38468581516E+02  0.74124699219E+02  0.96136683273E+02  0.00000000000E+00 0.  1.
         14    1    6    6    0    0 -0.16332886613E+02  0.72505055807E+02  0.74225698435E+02  0.10503904327E+03  0.00000000000E+00 0. -1.
         -5    1    3    3    0  503  0.26212365733E+02 -0.33328422715E+02  0.48968891724E+02  0.64945471241E+02  0.47000000000E+01 0.  1.
         13    1    4    4    0    0  0.39774877339E+02 -0.38973262648E+02 -0.88127412591E+02  0.10424680772E+03  0.00000000000E+00 0. -1.
        -14    1    4    4    0    0 -0.17004592159E+02 -0.47750601115E+02 -0.15938587792E+02  0.53134872185E+02  0.00000000000E+00 0.  1.
</event>
<event>
12    1  0.8728348E-002  0.1903653E+03  0.7818608E-02  0.1159755E+00
         21   -1    0    0  501  502  0.00000000000E+00  0.00000000000E+00  0.44662649771E+03  0.44662649771E+03  0.00000000000E+00 0.  1.
         21   -1    0    0  502  503 -0.00000000000E+00 -0.00000000000E+00 -0.78458640596E+02  0.78458640596E+02  0.00000000000E+00 0.  1.
         -6    2    1    2    0  503 -0.37831338809E+02  0.62298920579E+02  0.20393413761E+03  0.27897686509E+03  0.17585958340E+03 0.  0.
        -24    2    3    3    0    0 -0.30637228065E+02  0.87312090426E+00  0.19956560836E+03  0.21679923131E+03  0.78968807576E+02 0.  0.
          6    2    1    2  501    0  0.37831338809E+02 -0.62298920579E+02  0.16423371951E+03  0.24610827321E+03  0.16817907664E+03 0.  0.
         24    2    5    5    0    0  0.40757199264E+02 -0.10452249001E+03  0.10598849215E+03  0.17395574737E+03  0.80255475620E+02 0.  0.
          5    1    5    5  501    0 -0.29258604553E+01  0.42223569431E+02  0.58245227361E+02  0.72152525841E+02  0.47000000000E+01 0. -1.
        -11    1    6    6    0    0  0.34889611125E+02 -0.56016023686E+01  0.11839665130E+02  0.37267151540E+02  0.00000000000E+00 0.  1.
         12    1    6    6    0    0  0.58675881398E+01 -0.98920887642E+02  0.94148827015E+02  0.13668859583E+03  0.00000000000E+00 0. -1.
         -5    1    3    3    0  503 -0.71941107443E+01  0.61425799675E+02  0.43685292417E+01  0.62177633783E+02  0.47000000000E+01 0.  1.
         11    1    4    4    0    0 -0.16098132774E+02  0.39600825663E+02  0.88590771266E+02  0.98365136230E+02  0.00000000000E+00 0. -1.
        -12    1    4    4    0    0 -0.14539095291E+02 -0.38727704759E+02  0.11097483710E+03  0.11843409508E+03  0.00000000000E+00 0.  1.
</event>
<event>
12    1  0.8728348E-002  0.1844831E+03  0.7818608E-02  0.1164176E+00
         21   -1    0    0  503  502  0.00000000000E+00  0.00000000000E+00  0.14498034367E+04  0.14498034367E+04  0.00000000000E+00 0.  1.
         21   -1    0    0  501  503 -0.00000000000E+00 -0.00000000000E+00 -0.24568553382E+02  0.24568553382E+02  0.00000000000E+00 0.  1.
          6    2    1    2  501    0 -0.60893015521E+02 -0.20209353004E+02  0.52926751790E+03  0.55960889410E+03  0.17006361036E+03 0.  0.
         24    2    3    3    0    0 -0.68699250007E+02 -0.42866654984E+02  0.52167831774E+03  0.53403592813E+03  0.80554132538E+02 0.  0.
         -6    2    1    2    0  502  0.60893015521E+02  0.20209353004E+02  0.89596736538E+03  0.91476309594E+03  0.17296711993E+03 0.  0.
        -24    2    5    5    0    0  0.60507488326E+02 -0.28133824675E+02  0.32149123876E+03  0.33823718888E+03  0.81210289397E+02 0.  0.
          5    1    3    3  501    0  0.78062344864E+01  0.22657301980E+02  0.75892001595E+01  0.25572965978E+02  0.47000000000E+01 0. -1.
        -13    1    4    4    0    0 -0.82727332151E+02 -0.25129466314E+02  0.33436613899E+03  0.34536360037E+03  0.00000000000E+00 0.  1.
         14    1    4    4    0    0  0.14028082143E+02 -0.17737188670E+02  0.18731217875E+03  0.18867232775E+03  0.00000000000E+00 0. -1.
         -5    1    5    5    0  502  0.38552719477E+00  0.48343177679E+02  0.57447612662E+03  0.57652590706E+03  0.47000000000E+01 0.  1.
         11    1    6    6    0    0  0.39931913002E+02 -0.17717489083E+02  0.30887650923E+03  0.31195058111E+03  0.00000000000E+00 0. -1.
        -12    1    6    6    0    0  0.20575575324E+02 -0.10416335591E+02  0.12614729529E+02  0.26286607772E+02  0.00000000000E+00 0.  1.
</event>
<event>
12    1  0.8728348E-002  0.2893540E+03  0.7818608E-02  0.1090919E+00
         21   -1    0    0  503  502  0.00000000000E+00  0.00000000000E+00  0.54351930068E+03  0.54351930068E+03  0.00000000000E+00 0. -1.
         21   -1    0    0  501  503 -0.00000000000E+00 -0.00000000000E+00 -0.21352801251E+03  0.21352801251E+03  0.00000000000E+00 0.  1.
          6    2    1    2  501    0  0.18412721105E+03 -0.13786347847E+03 -0.36001001300E+02  0.29158495891E+03  0.17554642583E+03 0.  0.
         24    2    3    3    0    0  0.99644410484E+02 -0.38678944448E+02  0.38330285188E+02  0.14151115862E+03  0.84446006229E+02 0.  0.
         -6    2    1    2    0  502 -0.18412721105E+03  0.13786347847E+03  0.36599228947E+03  0.46546235428E+03  0.17261424840E+03 0.  0.
        -24    2    5    5    0    0 -0.35481459563E+02  0.58179236814E+01  0.84882224384E+02  0.12111289999E+03  0.78552914130E+02 0.  0.
          5    1    3    3  501    0  0.84482800567E+02 -0.99184534023E+02 -0.74331286488E+02  0.15007380029E+03  0.47000000000E+01 0. -1.
        -11    1    4    4    0    0  0.10764655091E+03 -0.42130204641E+02  0.14950582310E+02  0.11656008741E+03  0.00000000000E+00 0.  1.
         12    1    4    4    0    0 -0.80021404210E+01  0.34512601928E+01  0.23379702877E+02  0.24951071217E+02  0.00000000000E+00 0. -1.
         -5    1    5    5    0  502 -0.14864575149E+03  0.13204555479E+03  0.28111006509E+03  0.34434945429E+03  0.47000000000E+01 0.  1.
         13    1    6    6    0    0 -0.22495539419E+02  0.16531010745E+02  0.96631829360E+02  0.10058346810E+03  0.00000000000E+00 0. -1.
        -14    1    6    6    0    0 -0.12985920145E+02 -0.10713087063E+02 -0.11749604976E+02  0.20529431885E+02  0.00000000000E+00 0.  1.
</event>
<event>
12    1  0.8728348E-002  0.1820685E+03  0.7818608E-02  0.1166314E+00
         21   -1    0    0  501  502  0.00000000000E+00  0.00000000000E+00  0.53632816939E+02  0.53632816939E+02  0.00000000000E+00 0. -1.
         21   -1    0    0  502  503 -0.00000000000E+00 -0.00000000000E+00 -0.86888043808E+03  0.86888043808E+03  0.00000000000E+00 0. -1.
         -6    2    1    2    0  503  0.28630744129E+02  0.48086762804E+02 -0.66053541868E+03  0.68516858512E+03  0.17325384392E+03 0.  0.
        -24    2    3    3    0    0  0.31645828186E+02 -0.14900478505E+02 -0.55866112610E+03  0.56526468698E+03  0.78730107522E+02 0.  0.
          6    2    1    2  501    0 -0.28630744129E+02 -0.48086762804E+02 -0.15471220246E+03  0.23734466990E+03  0.17106890563E+03 0.  0.
         24    2    5    5    0    0 -0.80712878966E+02 -0.54716538328E+02 -0.12633694914E+03  0.17748025899E+03  0.77651459843E+02 0.  0.
          5    1    5    5  501    0  0.52082134837E+02  0.66297755244E+01 -0.28375253321E+02  0.59864410911E+02  0.47000000000E+01 0. -1.
        -11    1    6    6    0    0 -0.35147890858E+02 -0.13683222051E+02 -0.10658132989E+03  0.11305832423E+03  0.00000000000E+00 0.  1.
         12    1    6    6    0    0 -0.45564988108E+02 -0.41033316278E+02 -0.19755619251E+02  0.64421934758E+02  0.00000000000E+00 0. -1.
         -5    1    3    3    0  503 -0.30150840574E+01  0.62987241309E+02 -0.10187429258E+03  0.11990389814E+03  0.47000000000E+01 0.  1.
         13    1    4    4    0    0 -0.22702944717E+02  0.94912550387E+01 -0.11360614292E+03  0.11624054082E+03  0.00000000000E+00 0. -1.
        -14    1    4    4    0    0  0.54348772903E+02 -0.24391733544E+02 -0.44505498318E+03  0.44902414616E+03  0.00000000000E+00 0.  1.
</event>
<event>
12    1  0.8728348E-002  0.2645770E+03  0.7818608E-02  0.1104683E+00
         21   -1    0    0  503  502  0.00000000000E+00  0.00000000000E+00  0.78020219088E+02  0.78020219088E+02  0.00000000000E+00 0. -1.
         21   -1    0    0  501  503 -0.00000000000E+00 -0.00000000000E+00 -0.95009260996E+03  0.95009260996E+03  0.00000000000E+00 0.  1.
          6    2    1    2  501    0  0.12165668752E+03 -0.16000125451E+03 -0.30676512676E+03  0.40395476758E+03  0.16933357669E+03 0.  0.
         24    2    3    3    0    0  0.82259295025E+02 -0.16763888845E+03 -0.18121252906E+03  0.27206074659E+03  0.79433497996E+02 0.  0.
         -6    2    1    2    0  502 -0.12165668752E+03  0.16000125451E+03 -0.56530726411E+03  0.62415806147E+03  0.17204717891E+03 0.  0.
        -24    2    5    5    0    0 -0.78678160293E+02  0.40887214219E+02 -0.15718718937E+03  0.19681815716E+03  0.78533797148E+02 0.  0.
          5    1    3    3  501    0  0.39397392493E+02  0.76376339391E+01 -0.12555259769E+03  0.13189402100E+03  0.47000000000E+01 0. -1.
        -13    1    4    4    0    0  0.38808813501E+02 -0.34914419956E+02 -0.93672763199E+02  0.10723678143E+03  0.00000000000E+00 0.  1.
         14    1    4    4    0    0  0.43450481524E+02 -0.13272446849E+03 -0.87539765866E+02  0.16482396515E+03  0.00000000000E+00 0. -1.
         -5    1    5    5    0  502 -0.42978527225E+02  0.11911404029E+03 -0.40812007475E+03  0.42733990430E+03  0.47000000000E+01 0.  1.
         13    1    6    6    0    0 -0.22462333061E+02  0.40384013623E+02 -0.12209284216E+03  0.13054534488E+03  0.00000000000E+00 0. -1.
        -14    1    6    6    0    0 -0.56215827232E+02  0.50320059658E+00 -0.35094347205E+02  0.66272812283E+02  0.00000000000E+00 0.  1.
</event>
<event>
12    1  0.8728348E-002  0.1811554E+03  0.7818608E-02  0.1166730E+00
         21   -1    0    0  501  502  0.00000000000E+00  0.00000000000E+00  0.59785785438E+03  0.59785785438E+03  0.00000000000E+00 0. -1.
         21   -1    0    0  502  503 -0.00000000000E+00 -0.00000000000E+00 -0.60580042621E+02  0.60580042621E+02  0.00000000000E+00 0.  1.
         -6    2    1    2    0  503 -0.20805046016E+02 -0.54291453405E+02  0.36986238473E+03  0.41176969764E+03  0.17139337328E+03 0.  0.
        -24    2    3    3    0    0  0.45717165862E+02 -0.51865081838E+02  0.28404007135E+03  0.30305607648E+03  0.79901047480E+02 0.  0.
          6    2    1    2  501    0  0.20805046016E+02  0.54291453405E+02  0.16741542703E+03  0.24666819936E+03  0.17157174452E+03 0.  0.
         24    2    5    5    0    0  0.95969234417E+01  0.78454836573E+01  0.12161846333E+02  0.84160924337E+02  0.82349852008E+02 0.  0.
          5    1    5    5  501    0  0.11208122575E+02  0.46445969747E+02  0.15525358070E+03  0.16250727503E+03  0.47000000000E+01 0. -1.
        -13    1    6    6    0    0 -0.26761907400E+01  0.38164844260E+02 -0.15543112739E+02  0.41295347049E+02  0.00000000000E+00 0.  1.
         14    1    6    6    0    0  0.12273114182E+02 -0.30319360602E+02  0.27704959073E+02  0.42865577288E+02  0.00000000000E+00 0. -1.
         -5    1    3    3    0  503 -0.66522211878E+02 -0.24263715669E+01  0.85822313374E+02  0.10871362116E+03  0.47000000000E+01 0.  1.
         11    1    4    4    0    0 -0.20208967902E+02 -0.26025962485E+02  0.11876499822E+03  0.12325127955E+03  0.00000000000E+00 0. -1.
        -12    1    4    4    0    0  0.65926133764E+02 -0.25839119353E+02  0.16527507313E+03  0.17980479693E+03  0.00000000000E+00 0.  1.
</event>
<event>
12    1  0.8728348E-002  0.2366074E+03  0.7818608E-02  0.1122320E+00
         21   -1    0    0  501  502  0.00000000000E+00  0.00000000000E+00  0.20789312224E+03  0.20789312224E+03  0.00000000000E+00 0. -1.
         21   -1    0    0  502  503 -0.00000000000E+00 -0.00000000000E+00 -0.30550719804E+03  0.30550719804E+03  0.00000000000E+00 0.  1.
         -6    2    1    2    0  503  0.12640660206E+03  0.10373525416E+03  0.41430283260E+02  0.24020725560E+03  0.17100709129E+03 0.  0.
        -24    2    3    3    0    0  0.14966569601E+03  0.83055007399E+02  0.15307772517E+01  0.18938680069E+03  0.81037412237E+02 0.  0.
          6    2    1    2  501    0 -0.12640660206E+03 -0.10373525416E+03 -0.13904435906E+03  0.27319306468E+03  0.16900143432E+03 0.  0.
         24    2    5    5    0    0 -0.80746499648E+02 -0.11848530314E+03 -0.15151044040E+03  0.22339444943E+03  0.79943118647E+02 0.  0.
          5    1    5    5  501    0 -0.45660102411E+02  0.14750048982E+02  0.12466081338E+02  0.49798615253E+02  0.47000000000E+01 0. -1.
        -13    1    6    6    0    0  0.57704318541E+01 -0.58395822776E+02 -0.58761110813E+02  0.83043591838E+02  0.00000000000E+00 0.  1.
         14    1    6    6    0    0 -0.86516931502E+02 -0.60089480365E+02 -0.92749329587E+02  0.14035085759E+03  0.00000000000E+00 0. -1.
         -5    1    3    3    0  503 -0.23259093946E+02  0.20680246760E+02  0.39899506009E+02  0.50820454907E+02  0.47000000000E+01 0.  1.
         13    1    4    4    0    0  0.10959141355E+03  0.18945746165E+02  0.16147032228E+02  0.11238303195E+03  0.00000000000E+00 0. -1.
        -14    1    4    4    0    0  0.40074282460E+02  0.64109261234E+02 -0.14616254977E+02  0.77003768740E+02  0.00000000000E+00 0.  1.
</event>
<event>
12    1  0.8728348E-002  0.2303735E+03  0.7818608E-02  0.1127080E+00
         21   -1    0    0  503  502  0.00000000000E+00  0.00000000000E+00  0.59580213479E+03  0.59580213479E+03  0.00000000000E+00 0.  1.
         21   -1    0    0  501  503 -0.00000000000E+00 -0.00000000000E+00 -0.10120169288E+03  0.10120169288E+03  0.00000000000E+00 0. -1.
          6    2    1    2  501    0 -0.10031803114E+03  0.11641989387E+03  0.11744138157E+03  0.25505260116E+03  0.16625899131E+03 0.  0.
         24    2    3    3    0    0 -0.10515889542E+03  0.10125208420E+03  0.33699002664E+02  0.16968063596E+03  0.79658757187E+02 0.  0.
         -6    2    1    2    0  502  0.10031803114E+03 -0.11641989387E+03  0.37715906033E+03  0.44195122651E+03  0.17162351461E+03 0.  0.
        -24    2    5    5    0    0  0.11331666504E+03 -0.38190195113E+02  0.17759929773E+03  0.22716053979E+03  0.75902850450E+02 0.  0.
          5    1    3    3  501    0  0.48408642867E+01  0.15167809676E+02  0.83742378908E+02  0.85371965203E+02  0.47000000000E+01 0. -1.
        -13    1    4    4    0    0 -0.21240081878E+02  0.39575160766E+01  0.35065834594E+02  0.41187568118E+02  0.00000000000E+00 0.  1.
         14    1    4    4    0    0 -0.83918813544E+02  0.97294568123E+02 -0.13668319299E+01  0.12849306784E+03  0.00000000000E+00 0. -1.
         -5    1    5    5    0  502 -0.12998633904E+02 -0.78229698762E+02  0.19955976260E+03  0.21479068672E+03  0.47000000000E+01 0.  1.
         11    1    6    6    0    0  0.79543685915E+02  0.12652918822E+02  0.97946842460E+02  0.12681040285E+03  0.00000000000E+00 0. -1.
        -12    1    6    6    0    0  0.33772979126E+02 -0.50843113935E+02  0.79652455266E+02  0.10035013694E+03  0.00000000000E+00 0.  1.
</event>
<event>
12    1  0.8728348E-002  0.3261884E+03  0.7818608E-02  0.1072915E+00
         21   -1    0    0  503  502  0.00000000000E+00  0.00000000000E+00  0.46897793306E+03  0.46897793306E+03  0.00000000000E+00 0. -1.
         21   -1    0    0  501  503 -0.00000000000E+00 -0.00000000000E+00 -0.28964151278E+03  0.28964151278E+03  0.00000000000E+00 0.  1.
          6    2    1    2  501    0  0.28049483582E+02  0.27570948165E+03 -0.87516933004E+02  0.33772488879E+03  0.17203602862E+03 0.  0.
         24    2    3    3    0    0 -0.14590968325E+02  0.13652123679E+03 -0.10507249773E+03  0.19102157084E+03  0.81228482030E+02 0.  0.
         -6    2    1    2    0  502 -0.28049483582E+02 -0.27570948165E+03  0.26685335329E+03  0.42089455706E+03  0.17070156472E+03 0.  0.
        -24    2    5    5    0    0 -0.43536307053E+02 -0.24611904285E+03  0.28118138120E+03  0.38425007379E+03  0.78199467957E+02 0.  0.
          5    1    3    3  501    0  0.42640451907E+02  0.13918824486E+03  0.17555564730E+02  0.14670331795E+03  0.47000000000E+01 0. -1.
        -11    1    4    4    0    0  0.17072772437E+01  0.11486786856E+03 -0.11462562005E+03  0.16228547314E+03  0.00000000000E+00 0.  1.
         12    1    4    4    0    0 -0.16298245568E+02  0.21653368236E+02  0.95531223153E+01  0.28736097691E+02  0.00000000000E+00 0. -1.
         -5    1    5    5    0  502  0.15486823471E+02 -0.29590438805E+02 -0.14328027915E+02  0.36644483266E+02  0.47000000000E+01 0.  1.
         13    1    6    6    0    0 -0.40182893734E+02 -0.47351344241E+02  0.81710663415E+02  0.10263258384E+03  0.00000000000E+00 0. -1.
        -14    1    6    6    0    0 -0.33534133186E+01 -0.19876769861E+03  0.19947071779E+03  0.28161748995E+03  0.00000000000E+00 0.  1.
</event>
<event>
12    1  0.8728348E-002  0.1856766E+03  0.7818608E-02  0.1162617E+00
         21   -1    0    0  503  502  0.00000000000E+00  0.00000000000E+00  0.97952866045E+02  0.97952866045E+02  0.00000000000E+00 0.  1.
         21   -1    0    0  501  503 -0.00000000000E+00 -0.00000000000E+00 -0.78489662783E+03  0.78489662783E+03  0.00000000000E+00 0. -1.
          6    2    1    2  501    0  0.16894651800E+02 -0.66680928920E+02 -0.67156735843E+03  0.69653730925E+03  0.17155095666E+03 0.  0.
         24    2    3    3    0    0  0.76610737837E+02 -0.54075836192E+02 -0.50556740468E+03  0.51961084447E+03  0.74857383128E+02 0.  0.
         -6    2    1    2    0  502 -0.16894651800E+02  0.66680928920E+02 -0.15376403352E+02  0.18631218462E+03  0.17246454945E+03 0.  0.
        -24    2    5    5    0    0  0.49210732735E+02  0.12312227295E+02  0.93173384135E+01  0.97105971475E+02  0.82276787393E+02 0.  0.
          5    1    3    3  501    0 -0.59716086037E+02 -0.12605092728E+02 -0.16599995376E+03  0.17692646478E+03  0.47000000000E+01 0. -1.
        -13    1    4    4    0    0  0.79311866945E+02 -0.61696424274E+02 -0.35834438065E+03  0.37216597931E+03  0.00000000000E+00 0.  1.
         14    1    4    4    0    0 -0.27011291084E+01  0.76205880819E+01 -0.14722302402E+03  0.14744486517E+03  0.00000000000E+00 0. -1.
         -5    1    5    5    0  502 -0.66105384535E+02  0.54368701625E+02 -0.24693741765E+02  0.89206213143E+02  0.47000000000E+01 0.  1.
         11    1    6    6    0    0  0.57017301881E+02  0.34466294560E+02 -0.91181297089E+01  0.67246103707E+02  0.00000000000E+00 0. -1.
        -12    1    6    6    0    0 -0.78065691452E+01 -0.22154067265E+02  0.18435468122E+02  0.29859867768E+02  0.00000000000E+00 0.  1.
</event>
<event>
12    1  0.8728348E-002  0.2372719E+03  0.7818608E-02  0.1121706E+00
         21   -1    0    0  503  502  0.00000000000E+00  0.00000000000E+00  0.59327048587E+03  0.59327048587E+03  0.00000000000E+00 0.  1.
         21   -1    0    0  501  503 -0.00000000000E+00 -0.00000000000E+00 -0.10822701813E+03  0.10822701813E+03  0.00000000000E+00 0. -1.
          6    2    1    2  501    0 -0.10067471427E+03 -0.12703314539E+03  0.11829731640E+03  0.26469012997E+03  0.17260878225E+03 0.  0.
         24    2    3    3    0    0 -0.13137204457E+03 -0.99971644104E+02  0.12743118081E+03  0.22249808784E+03  0.77548368983E+02 0.  0.
         -6    2    1    2    0  502  0.10067471427E+03  0.12703314539E+03  0.36674615134E+03  0.43680737404E+03  0.17327759339E+03 0.  0.
        -24    2    5    5    0    0  0.12880850481E+03  0.99923873247E+02  0.35166168533E+03  0.39466411929E+03  0.74279302455E+02 0.  0.
          5    1    3    3  501    0  0.30697330295E+02 -0.27061501291E+02 -0.91338644081E+01  0.42192042121E+02  0.47000000000E+01 0. -1.
        -11    1    4    4    0    0 -0.94491533864E+02 -0.59103792612E+02  0.12489113631E+03  0.16739087251E+03  0.00000000000E+00 0.  1.
         12    1    4    4    0    0 -0.36880510706E+02 -0.40867851492E+02  0.25400445072E+01  0.55107215332E+02  0.00000000000E+00 0. -1.
         -5    1    5    5    0  502 -0.28133790531E+02  0.27109272148E+02  0.15084466007E+02  0.42143254748E+02  0.47000000000E+01 0.  1.
         13    1    6    6    0    0  0.10648127739E+03  0.94200375282E+02  0.22667315791E+03  0.26756811031E+03  0.00000000000E+00 0. -1.
        -14    1    6    6    0    0  0.22327227419E+02  0.57234979649E+01  0.12498852742E+03  0.12709600899E+03  0.00000000000E+00 0.  1.
</event>
<event>
12    1  0.8728348E-002  0.2540104E+03  0.7818608E-02  0.1110939E+00
         21   -1    0    0  503  502  0.00000000000E+00  0.00000000000E+00  0.13588565311E+03  0.13588565311E+03  0.00000000000E+00 0.  1.
         21   -1    0    0  501  503 -0.00000000000E+00 -0.00000000000E+00 -0.54657792631E+03  0.54657792631E+03  0.00000000000E+00 0. -1.
          6    2    1    2  501    0  0.11292786840E+03  0.14751615699E+03 -0.33013877349E+03  0.41598625080E+03  0.17186980846E+03 0.  0.
         24    2    3    3    0    0  0.12456014362E+03  0.15894205069E+03 -0.23649677225E+03  0.32081915948E+03  0.78844181456E+02 0.  0.
         -6    2    1    2    0  502 -0.11292786840E+03 -0.14751615699E+03 -0.80553499712E+02  0.26647732862E+03  0.17322696187E+03 0.  0.
        -24    2    5    5    0    0 -0.93335129696E+02 -0.17801981331E+03 -0.75331908026E+02  0.22954897259E+03  0.81334704063E+02 0.  0.
          5    1    3    3  501    0 -0.11632275217E+02 -0.11425893705E+02 -0.93642001237E+02  0.95167091315E+02  0.47000000000E+01 0. -1.
        -11    1    4    4    0    0  0.70800033074E+02  0.44607266941E+02 -0.13466484062E+03  0.15854675098E+03  0.00000000000E+00 0.  1.
         12    1    4    4    0    0  0.53760110544E+02  0.11433478375E+03 -0.10183193163E+03  0.16227240850E+03  0.00000000000E+00 0. -1.
         -5    1    5    5    0  502 -0.19592738705E+02  0.30503656323E+02 -0.52215916853E+01  0.36928356025E+02  0.47000000000E+01 0.  1.
         11    1    6    6    0    0 -0.40947698622E+02 -0.50980630969E+02 -0.64272119989E+02  0.91687753622E+02  0.00000000000E+00 0. -1.
        -12    1    6    6    0    0 -0.52387431074E+02 -0.12703918234E+03 -0.11059788037E+02  0.13786121897E+03  0.00000000000E+00 0.  1.
</event>
<event>
12    1  0.8728348E-002  0.2191143E+03  0.7818608E-02  0.1134683E+00
         21   -1    0    0  503  502  0.00000000000E+00  0.00000000000E+00  0.10744265777E+04  0.10744265777E+04  0.00000000000E+00 0.  1.
         21   -1    0    0  501  503 -0.00000000000E+00 -0.00000000000E+00 -0.91454284419E+02  0.91454284419E+02  0.00000000000E+00 0. -1.
          6    2    1    2  501    0 -0.95768378764E+01  0.13390466098E+03  0.74350458648E+02  0.23138512022E+03  0.17317306113E+03 0.  0.
         24    2    3    3    0    0 -0.62020462753E+02  0.10301767840E+03  0.88676005395E+02  0.16868224331E+03  0.78301247829E+02 0.  0.
         -6    2    1    2    0  502  0.95768378764E+01 -0.13390466098E+03  0.90862183461E+03  0.93449574187E+03  0.17223959825E+03 0.  0.
        -24    2    5    5    0    0  0.43139603429E+02 -0.28252994898E+02  0.30410699560E+03  0.31988284390E+03  0.84762680142E+02 0.  0.
          5    1    3    3  501    0  0.52443624877E+02  0.30886982574E+02 -0.14325546747E+02  0.62702876906E+02  0.47000000000E+01 0. -1.
        -13    1    4    4    0    0 -0.47130327698E+02  0.11962815407E+02  0.46335472688E+02  0.67166604578E+02  0.00000000000E+00 0.  1.
         14    1    4    4    0    0 -0.14890135055E+02  0.91054862996E+02  0.42340532707E+02  0.10151563873E+03  0.00000000000E+00 0. -1.
         -5    1    5    5    0  502 -0.33562765552E+02 -0.10565166608E+03  0.60451483900E+03  0.61461289797E+03  0.47000000000E+01 0.  1.
         11    1    6    6    0    0  0.63704106963E+02 -0.28585878620E+02  0.16358204500E+03  0.17786076337E+03  0.00000000000E+00 0. -1.
        -12    1    6    6    0    0 -0.20564503534E+02  0.33288372175E+00  0.14052495060E+03  0.14202208053E+03  0.00000000000E+00 0.  1.
</event>
<event>
12    1  0.8728348E-002  0.2387171E+03  0.7818608E-02  0.1120844E+00
         21   -1    0    0  501  502  0.00000000000E+00  0.00000000000E+00  0.16380759244E+03  0.16380759244E+03  0.00000000000E+00 0. -1.
         21   -1    0    0  502  503 -0.00000000000E+00 -0.00000000000E+00 -0.35068988931E+03  0.35068988931E+03  0.00000000000E+00 0. -1.
         -6    2    1    2    0  503 -0.14613570298E+03 -0.73178943525E+02 -0.64584454181E+02  0.24729940972E+03  0.17399725534E+03 0.  0.
        -24    2    3    3    0    0 -0.25161217745E+02 -0.82476631774E+02 -0.40933978956E+02  0.12359529474E+03  0.78515760087E+02 0.  0.
          6    2    1    2  501    0  0.14613570298E+03  0.73178943525E+02 -0.12229784269E+03  0.26719807203E+03  0.17241590968E+03 0.  0.
         24    2    5    5    0    0  0.46001578284E+02  0.72520514326E+02 -0.12140373247E+03  0.16694755637E+03  0.75876545245E+02 0.  0.
          5    1    5    5  501    0  0.10013412470E+03  0.65842919899E+00 -0.89411022283E+00  0.10025051566E+03  0.47000000000E+01 0. -1.
        -11    1    6    6    0    0  0.22748698599E+02 -0.45992801307E+01 -0.63884306579E+02  0.67969561517E+02  0.00000000000E+00 0.  1.
         12    1    6    6    0    0  0.23252879685E+02  0.77119794457E+02 -0.57519425886E+02  0.98977994852E+02  0.00000000000E+00 0. -1.
         -5    1    3    3    0  503 -0.12097448523E+03  0.92976882490E+01 -0.23650475225E+02  0.12370411498E+03  0.47000000000E+01 0.  1.
         13    1    4    4    0    0 -0.30777910655E+02 -0.71045914857E+02 -0.61856569985E+02  0.99101145566E+02  0.00000000000E+00 0. -1.
        -14    1    4    4    0    0  0.56166929101E+01 -0.11430716917E+02  0.20922591029E+02  0.24494149176E+02  0.00000000000E+00 0.  1.
</event>
<event>
12    1  0.8728348E-002  0.2230159E+03  0.7818608E-02  0.1131839E+00
         21   -1    0    0  503  502  0.00000000000E+00  0.00000000000E+00  0.27579336531E+02  0.27579336531E+02  0.00000000000E+00 0.  1.
         21   -1    0    0  501  503 -0.00000000000E+00 -0.00000000000E+00 -0.24126435164E+04  0.24126435164E+04  0.00000000000E+00 0. -1.
          6    2    1    2  501    0 -0.14114741832E+03 -0.10648018765E+02 -0.18117526786E+04  0.18254270382E+04  0.17233725517E+03 0.  0.
         24    2    3    3    0    0 -0.63720554074E+02 -0.17164991663E+01 -0.15174522322E+04  0.15209446346E+04  0.80920017660E+02 0.  0.
         -6    2    1    2    0  502  0.14114741832E+03  0.10648018765E+02 -0.57331150132E+03  0.61479581474E+03  0.17103169963E+03 0.  0.
        -24    2    5    5    0    0  0.21328607944E+02  0.80790573731E+01 -0.35582559982E+03  0.36643045035E+03  0.84494004318E+02 0.  0.
          5    1    3    3  501    0 -0.77426864246E+02 -0.89315195988E+01 -0.29430044642E+03  0.30448240361E+03  0.47000000000E+01 0. -1.
        -11    1    4    4    0    0 -0.77339303846E+00  0.25212347130E+01 -0.94874614410E+03  0.94874980934E+03  0.00000000000E+00 0.  1.
         12    1    4    4    0    0 -0.62947161036E+02 -0.42377338793E+01 -0.56870608806E+03  0.57219482527E+03  0.00000000000E+00 0. -1.
         -5    1    5    5    0  502  0.11981881038E+03  0.25689613921E+01 -0.21748590149E+03  0.24836536439E+03  0.47000000000E+01 0.  1.
         11    1    6    6    0    0 -0.64156191848E+01 -0.24098767200E+02 -0.26486362324E+03  0.26603505345E+03  0.00000000000E+00 0. -1.
        -12    1    6    6    0    0  0.27744227128E+02  0.32177824573E+02 -0.90961976586E+02  0.10039539689E+03  0.00000000000E+00 0.  1.
</event>
<event>
12    1  0.8728348E-002  0.2037445E+03  0.7818608E-02  0.1146830E+00
         21   -1    0    0  501  502  0.00000000000E+00  0.00000000000E+00  0.28581441968E+03  0.28581441968E+03  0.00000000000E+00 0. -1.
         21   -1    0    0  502  503 -0.00000000000E+00 -0.00000000000E+00 -0.15777718345E+03  0.15777718345E+03  0.00000000000E+00 0. -1.
         -6    2    1    2    0  503  0.18251099072E+01  0.10697071268E+03 -0.15075478684E+00  0.20374458521E+03  0.17339483521E+03 0.  0.
        -24    2    3    3    0    0 -0.26881207558E+02  0.18759509114E+02 -0.46269147973E+02  0.10004181144E+03  0.82419727499E+02 0.  0.
          6    2    1    2  501    0 -0.18251099072E+01 -0.10697071268E+03  0.12818799101E+03  0.23984701792E+03  0.17218701045E+03 0.  0.
         24    2    5    5    0    0 -0.46487906991E+02 -0.16142912446E+02  0.36159585236E+02  0.10296834095E+03  0.82905033112E+02 0.  0.
          5    1    5    5  501    0  0.44662797084E+02 -0.90827800235E+02  0.92028405774E+02  0.13687867697E+03  0.47000000000E+01 0. -1.
        -13    1    6    6    0    0  0.11469464288E+02  0.23065986471E+02  0.15254593730E+02  0.29938119059E+02  0.00000000000E+00 0.  1.
         14    1    6    6    0    0 -0.57957371279E+02 -0.39208898917E+02  0.20904991506E+02  0.73030221893E+02  0.00000000000E+00 0. -1.
         -5    1    3    3    0  503  0.28706317465E+02  0.88211203567E+02  0.46118393186E+02  0.10370277377E+03  0.47000000000E+01 0.  1.
         11    1    4    4    0    0  0.26575825890E+02  0.22839507486E+02 -0.19850106129E+02  0.40273370076E+02  0.00000000000E+00 0. -1.
        -12    1    4    4    0    0 -0.53457033447E+02 -0.40799983719E+01 -0.26419041844E+02  0.59768441369E+02  0.00000000000E+00 0.  1.
</event>
<event>
12    1  0.8728348E-002  0.2385059E+03  0.7818608E-02  0.1120961E+00
         21   -1    0    0  503  502  0.00000000000E+00  0.00000000000E+00  0.31086115110E+02  0.31086115110E+02  0.00000000000E+00 0.  1.
         21   -1    0    0  501  503 -0.00000000000E+00 -0.00000000000E+00 -0.21073062316E+04  0.21073062316E+04  0.00000000000E+00 0. -1.
          6    2    1    2  501    0  0.93031122784E+02 -0.13469156890E+03 -0.14294646897E+04  0.14490610423E+04  0.17208136600E+03 0.  0.
         24    2    3    3    0    0  0.12937662575E+03 -0.10339159996E+03 -0.99000856619E+03  0.10069700356E+04  0.80271771470E+02 0.  0.
         -6    2    1    2    0  502 -0.93031122784E+02  0.13469156890E+03 -0.64675542681E+03  0.68933130448E+03  0.17346024528E+03 0.  0.
        -24    2    5    5    0    0 -0.12321276472E+03  0.14062551720E+03 -0.59681179744E+03  0.63048744867E+03  0.79832198284E+02 0.  0.
          5    1    3    3  501    0 -0.36345502970E+02 -0.31299968937E+02 -0.43945612352E+03  0.44209100662E+03  0.47000000000E+01 0. -1.
        -11    1    4    4    0    0  0.94272926122E+02 -0.80088970889E+02 -0.88842052961E+03  0.89699089477E+03  0.00000000000E+00 0.  1.
         12    1    4    4    0    0  0.35103699632E+02 -0.23302629072E+02 -0.10158803658E+03  0.10997914087E+03  0.00000000000E+00 0. -1.
         -5    1    5    5    0  502  0.30181641940E+02 -0.59339482998E+01 -0.49943629364E+02  0.58843855811E+02  0.47000000000E+01 0.  1.
         13    1    6    6    0    0 -0.68558864524E+01  0.62271755047E+02 -0.20225647921E+03  0.21173676591E+03  0.00000000000E+00 0. -1.
        -14    1    6    6    0    0 -0.11635687827E+03  0.78353762150E+02 -0.39455531824E+03  0.41875068276E+03  0.00000000000E+00 0.  1.
</event>
<event>
12    1  0.8728348E-002  0.1740899E+03  0.7818608E-02  0.1174807E+00
         21   -1    0    0  501  502  0.00000000000E+00  0.00000000000E+00  0.27633576782E+03  0.27633576782E+03  0.00000000000E+00 0. -1.
         21   -1    0    0  502  503 -0.00000000000E+00 -0.00000000000E+00 -0.11285070322E+03  0.11285070322E+03  0.00000000000E+00 0. -1.
         -6    2    1    2    0  503  0.23302110359E+02  0.38705393151E+01  0.35845195973E+02  0.17331793120E+03  0.16791741357E+03 0.  0.
        -24    2    3    3    0    0  0.16833149578E+00 -0.85799000654E+01 -0.42990935293E+02  0.90086862737E+02  0.78700567341E+02 0.  0.
          6    2    1    2  501    0 -0.23302110359E+02 -0.38705393151E+01  0.12763986863E+03  0.21586853984E+03  0.17247991479E+03 0.  0.
         24    2    5    5    0    0 -0.48437131188E+02 -0.29593251604E+02  0.14506091482E+03  0.17563161588E+03  0.81128782002E+02 0.  0.
          5    1    5    5  501    0  0.25135020829E+02  0.25722712288E+02 -0.17421046189E+02  0.40236923961E+02  0.47000000000E+01 0. -1.
        -11    1    6    6    0    0 -0.60622482550E+02 -0.47187005977E+02  0.10362889116E+03  0.12899862792E+03  0.00000000000E+00 0.  1.
         12    1    6    6    0    0  0.12185351362E+02  0.17593754373E+02  0.41432023662E+02  0.46632987953E+02  0.00000000000E+00 0. -1.
         -5    1    3    3    0  503  0.23133778864E+02  0.12450439380E+02  0.78836131266E+02  0.83231068467E+02  0.47000000000E+01 0.  1.
         11    1    4    4    0    0 -0.15452744984E+02 -0.48983527873E+01  0.19620730830E+02  0.25451016990E+02  0.00000000000E+00 0. -1.
        -12    1    4    4    0    0  0.15621076479E+02 -0.36815472781E+01 -0.62611666123E+02  0.64635845747E+02  0.00000000000E+00 0.  1.
</event>
<event>
12    1  0.8728348E-002  0.1968039E+03  0.7818608E-02  0.1152736E+00
         21   -1    0    0  501  502  0.00000000000E+00  0.00000000000E+00  0.59871647827E+03  0.59871647827E+03  0.00000000000E+00 0. -1.
         21   -1    0    0  502  503 -0.00000000000E+00 -0.00000000000E+00 -0.64384108103E+02  0.64384108103E+02  0.00000000000E+00 0. -1.
         -6    2    1    2    0  503  0.89844206881E+02 -0.25830025456E+02  0.25282829245E+03  0.31962378689E+03  0.17174995767E+03 0.  0.
        -24    2    3    3    0    0  0.86592235504E+02 -0.44685238809E+01  0.71228518786E+02  0.13668265740E+03  0.78041424829E+02 0.  0.
          6    2    1    2  501    0 -0.89844206881E+02  0.25830025456E+02  0.28150407772E+03  0.34347679948E+03  0.17318370098E+03 0.  0.
         24    2    5    5    0    0 -0.97966496002E+02  0.16187853302E+02  0.10290076898E+03  0.16436740565E+03  0.81046868234E+02 0.  0.
          5    1    5    5  501    0  0.81222891210E+01  0.96421721537E+01  0.17860330874E+03  0.17910939383E+03  0.47000000000E+01 0. -1.
        -11    1    6    6    0    0  0.76301384365E+01 -0.34370274535E+01 -0.68438654748E+01  0.10810673657E+02  0.00000000000E+00 0.  1.
         12    1    6    6    0    0 -0.10559663444E+03  0.19624880756E+02  0.10974463445E+03  0.15355673199E+03  0.00000000000E+00 0. -1.
         -5    1    3    3    0  503  0.32519713766E+01 -0.21361501575E+02  0.18159977366E+03  0.18294112950E+03  0.47000000000E+01 0.  1.
         13    1    4    4    0    0  0.98951193471E+02 -0.96053105081E+00  0.73969248852E+02  0.12354639244E+03  0.00000000000E+00 0. -1.
        -14    1    4    4    0    0 -0.12358957967E+02 -0.35079928301E+01 -0.27407300666E+01  0.13136264957E+02  0.00000000000E+00 0.  1.
</event>
<event>
12    1  0.8728348E-002  0.2031984E+03  0.7818608E-02  0.1147587E+00
         21   -1    0    0  501  502  0.00000000000E+00  0.00000000000E+00  0.25144832501E+03  0.25144832501E+03  0.00000000000E+00 0.  1.
         21   -1    0    0  502  503 -0.00000000000E+00 -0.00000000000E+00 -0.55722137519E+03  0.55722137519E+03  0.00000000000E+00 0.  1.
         -6    2    1    2    0  503  0.35000143161E+02  0.98660098415E+02  0.18782402999E+03  0.27488353837E+03  0.17124330173E+03 0.  0.
        -24    2    3    3    0    0 -0.45644126966E+02  0.31518927223E+02  0.94144079268E+02  0.13413746084E+03  0.77800524680E+02 0.  0.
          6    2    1    2  501    0 -0.35000143161E+02 -0.98660098415E+02 -0.49359708016E+03  0.53378616183E+03  0.17415729665E+03 0.  0.
         24    2    5    5    0    0 -0.10394010051E+02 -0.13641829108E+03 -0.40881448448E+03  0.43765436984E+03  0.75459122296E+02 0.  0.
          5    1    5    5  501    0 -0.24606133110E+02  0.37758192662E+02 -0.84782595682E+02  0.96131791986E+02  0.47000000000E+01 0. -1.
        -11    1    6    6    0    0  0.10104778806E+01 -0.41874663220E+02 -0.44555266297E+02  0.61152925033E+02  0.00000000000E+00 0.  1.
         12    1    6    6    0    0 -0.11404487932E+02 -0.94543627857E+02 -0.36425921818E+03  0.37650144481E+03  0.00000000000E+00 0. -1.
         -5    1    3    3    0  503  0.80644270127E+02  0.67141171192E+02  0.93679950719E+02  0.14074607753E+03  0.47000000000E+01 0.  1.
         11    1    4    4    0    0 -0.47715516894E+01 -0.22069978489E+02  0.63474640412E+01  0.23455105111E+02  0.00000000000E+00 0. -1.
        -12    1    4    4    0    0 -0.40872575277E+02  0.53588905712E+02  0.87796615227E+02  0.11068235573E+03  0.00000000000E+00 0.  1.
</event>
<event>
12    1  0.8728348E-002  0.1822907E+03  0.7818608E-02  0.1165919E+00
         21   -1    0    0  501  502  0.00000000000E+00  0.00000000000E+00  0.71989797439E+03  0.71989797439E+03  0.00000000000E+00 0.  1.
         21   -1    0    0  502  503 -0.00000000000E+00 -0.00000000000E+00 -0.78064816619E+02  0.78064816619E+02  0.00000000000E+00 0.  1.
         -6    2    1    2    0  503 -0.31183860598E+02 -0.52295494367E+02  0.65202845907E+02  0.19360090617E+03  0.17182155820E+03 0.  0.
        -24    2    3    3    0    0  0.19614166278E+02 -0.35027024427E+02 -0.19664964647E+02  0.93085858258E+02  0.81649606332E+02 0.  0.
          6    2    1    2  501    0  0.31183860598E+02  0.52295494367E+02  0.57663031186E+03  0.60436188484E+03  0.17042159310E+03 0.  0.
         24    2    5    5    0    0  0.76042876246E+02  0.69652917201E+02  0.46937710606E+03  0.48672281153E+03  0.77137407748E+02 0.  0.
          5    1    5    5  501    0 -0.44859015648E+02 -0.17357422834E+02  0.10725320581E+03  0.11763907330E+03  0.47000000000E+01 0. -1.
        -11    1    6    6    0    0  0.16082106474E+02  0.48769682773E+02  0.10534544046E+03  0.11719546891E+03  0.00000000000E+00 0.  1.
         12    1    6    6    0    0  0.59960769772E+02  0.20883234428E+02  0.36403166560E+03  0.36952734263E+03  0.00000000000E+00 0. -1.
         -5    1    3    3    0  503 -0.50798026875E+02 -0.17268469940E+02  0.84867810554E+02  0.10051504791E+03  0.47000000000E+01 0.  1.
         13    1    4    4    0    0  0.51575012622E+02 -0.17345807184E+02 -0.10320349573E+02  0.55383829492E+02  0.00000000000E+00 0. -1.
        -14    1    4    4    0    0 -0.31960846344E+02 -0.17681217243E+02 -0.93446150739E+01  0.37702028767E+02  0.00000000000E+00 0.  1.
</event>
<event>
12    1  0.8728348E-002  0.2507131E+03  0.7818608E-02  0.1112935E+00
         21   -1    0    0  501  502  0.00000000000E+00  0.00000000000E+00  0.32623422222E+03  0.32623422222E+03  0.00000000000E+00 0. -1.
         21   -1    0    0  502  503 -0.00000000000E+00 -0.00000000000E+00 -0.20779793291E+03  0.20779793291E+03  0.00000000000E+00 0. -1.
         -6    2    1    2    0  503 -0.12749621561E+03  0.12982304557E+03 -0.13679811355E+02  0.25108605283E+03  0.17247539109E+03 0.  0.
        -24    2    3    3    0    0 -0.15937288574E+03  0.11812524656E+03 -0.24901284784E+02  0.21501706246E+03  0.79113668735E+02 0.  0.
          6    2    1    2  501    0  0.12749621561E+03 -0.12982304557E+03  0.13211610066E+03  0.28294610231E+03  0.17173970014E+03 0.  0.
         24    2    5    5    0    0  0.67674294789E+02 -0.14475159347E+03  0.12963002095E+03  0.22106077008E+03  0.80815145542E+02 0.  0.
          5    1    5    5  501    0  0.59821920819E+02  0.14928547901E+02  0.24860797080E+01  0.61885332230E+02  0.47000000000E+01 0. -1.
        -13    1    6    6    0    0 -0.18694500358E+02 -0.21047499349E+02  0.18676780542E+02  0.33783186705E+02  0.00000000000E+00 0.  1.
         14    1    6    6    0    0  0.86368795147E+02 -0.12370409412E+03  0.11095324041E+03  0.18727758337E+03  0.00000000000E+00 0. -1.
         -5    1    3    3    0  503  0.31876670130E+02  0.11697799003E+02  0.11221473430E+02  0.36068990366E+02  0.47000000000E+01 0.  1.
         11    1    4    4    0    0 -0.13174186218E+03  0.80956508670E+02 -0.49780366194E+02  0.16244371150E+03  0.00000000000E+00 0. -1.
        -12    1    4    4    0    0 -0.27631023554E+02  0.37168737893E+02  0.24879081410E+02  0.52573350958E+02  0.00000000000E+00 0.  1.
</event>
<event>
12    1  0.8728348E-002  0.2078282E+03  0.7818608E-02  0.1143947E+00
         21   -1    0    0  503  502  0.00000000000E+00  0.00000000000E+00  0.17967582590E+03  0.17967582590E+03  0.00000000000E+00 0. -1.
         21   -1    0    0  501  503 -0.00000000000E+00 -0.00000000000E+00 -0.29390828488E+03  0.29390828488E+03  0.00000000000E+00 0. -1.
          6    2    1    2  501    0  0.10503959167E+03  0.24103337941E+02 -0.16123109534E+03  0.26050798256E+03  0.17393865630E+03 0.  0.
         24    2    3    3    0    0  0.67428197906E+02 -0.31663065694E+02 -0.14767511696E+03  0.19173034619E+03  0.96971510658E+02 0.  0.
         -6    2    1    2    0  502 -0.10503959167E+03 -0.24103337941E+02  0.46998636363E+02  0.21307612821E+03  0.17770277960E+03 0.  0.
        -24    2    5    5    0    0 -0.70361778123E+02  0.73864204176E+01  0.97177748107E+02  0.14427068592E+03  0.79782059772E+02 0.  0.
          5    1    3    3  501    0  0.37611393764E+02  0.55766403635E+02 -0.13555978383E+02  0.68777636373E+02  0.47000000000E+01 0. -1.
        -13    1    4    4    0    0  0.45368877709E+02 -0.51878082052E+01 -0.15038295657E+03  0.15716323376E+03  0.00000000000E+00 0.  1.
         14    1    4    4    0    0  0.22059320197E+02 -0.26475257488E+02  0.27078396097E+01  0.34567112433E+02  0.00000000000E+00 0. -1.
         -5    1    5    5    0  502 -0.34677813547E+02 -0.31489758359E+02 -0.50179111744E+02  0.68805442294E+02  0.47000000000E+01 0.  1.
         13    1    6    6    0    0 -0.81694850642E+02 -0.12679075715E+02  0.67709018669E+02  0.10686121276E+03  0.00000000000E+00 0. -1.
        -14    1    6    6    0    0  0.11333072519E+02  0.20065496133E+02  0.29468729439E+02  0.37409473165E+02  0.00000000000E+00 0.  1.
</event>
<event>
12    1  0.8728348E-002  0.1870327E+03  0.7818608E-02  0.1163407E+00
         21   -1    0    0  503  502  0.00000000000E+00  0.00000000000E+00  0.29304162341E+03  0.29304162341E+03  0.00000000000E+00 0. -1.
         21   -1    0    0  501  503 -0.00000000000E+00 -0.00000000000E+00 -0.24498306658E+03  0.24498306658E+03  0.00000000000E+00 0. -1.
          6    2    1    2  501    0 -0.36900911190E+02 -0.22421771990E+02 -0.17280125768E+03  0.25463993408E+03  0.18198024142E+03 0.  0.
         24    2    3    3    0    0 -0.25251254741E+02 -0.36646497563E+02 -0.19911586418E+03  0.22219604670E+03  0.87996387155E+02 0.  0.
         -6    2    1    2    0  502  0.36900911190E+02  0.22421771990E+02  0.22085981451E+03  0.28338475591E+03  0.17223080187E+03 0.  0.
        -24    2    5    5    0    0 -0.40168354048E+02  0.95543512119E+01  0.12812839031E+03  0.16203217375E+03  0.90181808779E+02 0.  0.
          5    1    3    3  501    0 -0.11649656448E+02  0.14224725574E+02  0.26314606501E+02  0.32443887379E+02  0.47000000000E+01 0. -1.
        -13    1    4    4    0    0 -0.48032767732E+02 -0.46896312583E+01 -0.56634189091E+02  0.74408136593E+02  0.00000000000E+00 0.  1.
         14    1    4    4    0    0  0.22781512990E+02 -0.31956866305E+02 -0.14248167509E+03  0.14778791011E+03  0.00000000000E+00 0. -1.
         -5    1    5    5    0  502  0.77069265238E+02  0.12867420778E+02  0.92731424206E+02  0.12135258216E+03  0.47000000000E+01 0.  1.
         13    1    6    6    0    0  0.25676465410E+02 -0.13082987127E+02  0.28901472514E+02  0.40813484801E+02  0.00000000000E+00 0. -1.
        -14    1    6    6    0    0 -0.65844819459E+02  0.22637338339E+02  0.99226917792E+02  0.12121868895E+03  0.00000000000E+00 0.  1.
</event>
<event>
12    1  0.8728348E-002  0.1737127E+03  0.7818608E-02  0.1174364E+00
         21   -1    0    0  501  502  0.00000000000E+00  0.00000000000E+00  0.63150481012E+03  0.63150481012E+03  0.00000000000E+00 0. -1.
         21   -1    0    0  502  503 -0.00000000000E+00 -0.00000000000E+00 -0.78658567605E+02  0.78658567605E+02  0.00000000000E+00 0. -1.
         -6    2    1    2    0  503 -0.20901302566E+02 -0.75654579724E+01  0.52041991305E+02  0.18008697938E+03  0.17096447198E+03 0.  0.
        -24    2    3    3    0    0 -0.18583168381E+02  0.26779137063E+02 -0.29189556044E+02  0.91737790139E+02  0.80630860274E+02 0.  0.
          6    2    1    2  501    0  0.20901302566E+02  0.75654579724E+01  0.50080425121E+03  0.53007639834E+03  0.17228461757E+03 0.  0.
         24    2    5    5    0    0  0.77511978768E+02  0.23416144124E+02  0.36822957053E+03  0.38497591982E+03  0.77826856360E+02 0.  0.
          5    1    5    5  501    0 -0.56610676202E+02 -0.15850686151E+02  0.13257468068E+03  0.14510047852E+03  0.47000000000E+01 0. -1.
        -11    1    6    6    0    0  0.16664604651E+02 -0.18451120382E+02  0.30928116728E+02  0.39682506169E+02  0.00000000000E+00 0.  1.
         12    1    6    6    0    0  0.60847374117E+02  0.41867264506E+02  0.33730145380E+03  0.34529341365E+03  0.00000000000E+00 0. -1.
         -5    1    3    3    0  503 -0.23181341851E+01 -0.34344595035E+02  0.81231547349E+02  0.88349189237E+02  0.47000000000E+01 0.  1.
         13    1    4    4    0    0 -0.38459052506E+02  0.21864109077E+02 -0.47039782204E+02  0.64574601007E+02  0.00000000000E+00 0. -1.
        -14    1    4    4    0    0  0.19875884125E+02  0.49150279851E+01  0.17850226160E+02  0.27163189132E+02  0.00000000000E+00 0.  1.
</event>
<event>
12    1  0.8728348E-002  0.2031283E+03  0.7818608E-02  0.1147163E+00
         21   -1    0    0  503  502  0.00000000000E+00  0.00000000000E+00  0.28283623300E+03  0.28283623300E+03  0.00000000000E+00 0.  1.
         21   -1    0    0  501  503 -0.00000000000E+00 -0.00000000000E+00 -0.18010977146E+03  0.18010977146E+03  0.00000000000E+00 0.  1.
          6    2    1    2  501    0  0.83815468787E+02 -0.71478248055E+02  0.15243614732E+03  0.25382363598E+03  0.17045669955E+03 0.  0.
         24    2    3    3    0    0  0.42000719053E+01 -0.30958362748E+02  0.14110091820E+03  0.16365130128E+03  0.76786837849E+02 0.  0.
         -6    2    1    2    0  502 -0.83815468787E+02  0.71478248055E+02 -0.49709685780E+02  0.20912236848E+03  0.17066616356E+03 0.  0.
        -24    2    5    5    0    0 -0.11491105493E+03  0.34711331561E+02 -0.64747312940E+02  0.15845717473E+03  0.80666192467E+02 0.  0.
          5    1    3    3  501    0  0.79615396882E+02 -0.40519885308E+02  0.11335229121E+02  0.90172334700E+02  0.47000000000E+01 0. -1.
        -11    1    4    4    0    0 -0.30903391030E+02  0.20430028097E+01  0.80362519064E+02  0.86123910199E+02  0.00000000000E+00 0.  1.
         12    1    4    4    0    0  0.35103462935E+02 -0.33001365557E+02  0.60738399131E+02  0.77527391080E+02  0.00000000000E+00 0. -1.
         -5    1    5    5    0  502  0.31095586146E+02  0.36766916494E+02  0.15037627160E+02  0.50665193741E+02  0.47000000000E+01 0.  1.
         11    1    6    6    0    0 -0.31668780888E+02 -0.22391058516E+02 -0.37384478568E+02  0.53869011706E+02  0.00000000000E+00 0. -1.
        -12    1    6    6    0    0 -0.83242274045E+02  0.57102390077E+02 -0.27362834372E+02  0.10458816303E+03  0.00000000000E+00 0.  1.
</event>
<event>
12    1  0.8728348E-002  0.2459718E+03  0.7818608E-02  0.1116233E+00
         21   -1    0    0  503  502  0.00000000000E+00  0.00000000000E+00  0.15835292930E+03  0.15835292930E+03  0.00000000000E+00 0.  1.
         21   -1    0    0  501  503 -0.00000000000E+00 -0.00000000000E+00 -0.38298356195E+03  0.38298356195E+03  0.00000000000E+00 0.  1.
          6    2    1    2  501    0 -0.16931988967E+03 -0.33440021316E+02 -0.84094937426E+02  0.25995014110E+03  0.17525597649E+03 0.  0.
         24    2    3    3    0    0 -0.16203880057E+03  0.28437648413E+02 -0.52652220104E+02  0.19000305580E+03  0.79143112113E+02 0.  0.
         -6    2    1    2    0  502  0.16931988967E+03  0.33440021316E+02 -0.14053569522E+03  0.28138635014E+03  0.17216427141E+03 0.  0.
        -24    2    5    5    0    0  0.18830828129E+03  0.57278594841E+02 -0.12946186587E+03  0.24862118112E+03  0.79443506726E+02 0.  0.
          5    1    3    3  501    0 -0.72810890989E+01 -0.61877669730E+02 -0.31442717322E+02  0.69947085302E+02  0.47000000000E+01 0. -1.
        -11    1    4    4    0    0 -0.13581731905E+03 -0.32717443477E+01 -0.59456721239E+02  0.14829750560E+03  0.00000000000E+00 0.  1.
         12    1    4    4    0    0 -0.26221481515E+02  0.31709392761E+02  0.68045011347E+01  0.41705550204E+02  0.00000000000E+00 0. -1.
         -5    1    5    5    0  502 -0.18988391619E+02 -0.23838573525E+02 -0.11073829354E+02  0.32765169014E+02  0.47000000000E+01 0.  1.
         13    1    6    6    0    0  0.22425828379E+02 -0.29252064455E+01  0.89740471576E+01  0.24331217265E+02  0.00000000000E+00 0. -1.
        -14    1    6    6    0    0  0.16588245291E+03  0.60203801287E+02 -0.13843591303E+03  0.22428996386E+03  0.00000000000E+00 0.  1.
</event>
<event>
12    1  0.8728348E-002  0.2172207E+03  0.7818608E-02  0.1136232E+00
         21   -1    0    0  501  502  0.00000000000E+00  0.00000000000E+00  0.12044254485E+03  0.12044254485E+03  0.00000000000E+00 0. -1.
         21   -1    0    0  502  503 -0.00000000000E+00 -0.00000000000E+00 -0.42460844076E+03  0.42460844076E+03  0.00000000000E+00 0. -1.
         -6    2    1    2    0  503 -0.36859021308E+02  0.12814659084E+03 -0.73052316787E+02  0.22787859966E+03  0.16974062271E+03 0.  0.
        -24    2    3    3    0    0 -0.67830285798E+02  0.93129744083E+02  0.91363249639E+00  0.14025183186E+03  0.79972774820E+02 0.  0.
          6    2    1    2  501    0  0.36859021308E+02 -0.12814659084E+03 -0.23111357913E+03  0.31717238595E+03  0.17147798622E+03 0.  0.
         24    2    5    5    0    0  0.68588099749E+02 -0.91075794905E+02 -0.91879409911E+02  0.16956065807E+03  0.85497736549E+02 0.  0.
          5    1    5    5  501    0 -0.31729078441E+02 -0.37070795937E+02 -0.13923416922E+03  0.14761172788E+03  0.47000000000E+01 0. -1.
        -13    1    6    6    0    0  0.11227181169E+02 -0.25771091097E+01  0.15328998285E+02  0.19174704086E+02  0.00000000000E+00 0.  1.
         14    1    6    6    0    0  0.57360918581E+02 -0.88498685796E+02 -0.10720840820E+03  0.15038595398E+03  0.00000000000E+00 0. -1.
         -5    1    3    3    0  503  0.30971264489E+02  0.35016846759E+02 -0.73965949283E+02  0.87626767796E+02  0.47000000000E+01 0.  1.
         13    1    4    4    0    0 -0.44025379837E+02  0.10035071995E+03 -0.15171288088E+02  0.11062851823E+03  0.00000000000E+00 0. -1.
        -14    1    4    4    0    0 -0.23804905961E+02 -0.72209758662E+01  0.16084920585E+02  0.29623313631E+02  0.00000000000E+00 0.  1.
</event>
<event>
12    1  0.8728348E-002  0.1910057E+03  0.7818608E-02  0.1160428E+00
         21   -1    0    0  501  502  0.00000000000E+00  0.00000000000E+00  0.44526397301E+03  0.44526397301E+03  0.00000000000E+00 0.  1.
         21   -1    0    0  502  503 -0.00000000000E+00 -0.00000000000E+00 -0.14375443837E+03  0.14375443837E+03  0.00000000000E+00 0.  1.
         -6    2    1    2    0  503  0.38110964927E+02  0.26355159939E+02 -0.52994330815E+02  0.18633222490E+03  0.17252321245E+03 0.  0.
        -24    2    3    3    0    0  0.90003897687E+01  0.18010200815E+01  0.36245744211E+02  0.89192056270E+02  0.80976652430E+02 0.  0.
          6    2    1    2  501    0 -0.38110964927E+02 -0.26355159939E+02  0.35450386546E+03  0.40268618649E+03  0.18530011890E+03 0.  0.
         24    2    5    5    0    0 -0.48985358617E+02 -0.92518898138E+01  0.36779419714E+03  0.37799818934E+03  0.71588385019E+02 0.  0.
          5    1    5    5  501    0  0.10874393691E+02 -0.17103270125E+02 -0.13290331683E+02  0.24687997151E+02  0.47000000000E+01 0. -1.
        -13    1    6    6    0    0  0.18964644732E+01  0.25474715226E+02  0.11567798664E+03  0.11846499182E+03  0.00000000000E+00 0.  1.
         14    1    6    6    0    0 -0.50881823090E+02 -0.34726605040E+02  0.25211621050E+03  0.25953319752E+03  0.00000000000E+00 0. -1.
         -5    1    3    3    0  503  0.29110575158E+02  0.24554139858E+02 -0.89240075026E+02  0.97140168627E+02  0.47000000000E+01 0.  1.
         11    1    4    4    0    0  0.33420490795E+02  0.29365564094E+02  0.22775662835E+02  0.49979959755E+02  0.00000000000E+00 0. -1.
        -12    1    4    4    0    0 -0.24420101026E+02 -0.27564544013E+02  0.13470081376E+02  0.39212096514E+02  0.00000000000E+00 0.  1.
</event>
<event>
12    1  0.8728348E-002  0.2149180E+03  0.7818608E-02  0.1137737E+00
         21   -1    0    0  503  502  0.00000000000E+00  0.00000000000E+00  0.40290905378E+02  0.40290905378E+02  0.00000000000E+00 0. -1.
         21   -1    0    0  501  503 -0.00000000000E+00 -0.00000000000E+00 -0.19738982900E+04  0.19738982900E+04  0.00000000000E+00 0. -1.
          6    2    1    2  501    0  0.14024642001E+02  0.12704833526E+03 -0.16190071682E+04  0.16332097121E+04  0.17277668444E+03 0.  0.
         24    2    3    3    0    0  0.40469923024E+02  0.93689447663E+02 -0.65229729214E+03  0.66555158916E+03  0.83974003281E+02 0.  0.
         -6    2    1    2    0  502 -0.14024642001E+02 -0.12704833526E+03 -0.31460021644E+03  0.38097948337E+03  0.17272550620E+03 0.  0.
        -24    2    5    5    0    0  0.53926224671E+02 -0.71066952538E+02 -0.13146051554E+03  0.17772231735E+03  0.79654287325E+02 0.  0.
          5    1    3    3  501    0 -0.26445281024E+02  0.33358887595E+02 -0.96670987609E+03  0.96765812289E+03  0.47000000000E+01 0. -1.
        -11    1    4    4    0    0  0.43415086638E+02  0.37181573337E+02 -0.15792020173E+03  0.16794680485E+03  0.00000000000E+00 0.  1.
         12    1    4    4    0    0 -0.29451636140E+01  0.56507874326E+02 -0.49437709041E+03  0.49760478431E+03  0.00000000000E+00 0. -1.
         -5    1    5    5    0  502 -0.67950866672E+02 -0.55981382720E+02 -0.18313970090E+03  0.20325716602E+03  0.47000000000E+01 0.  1.
         13    1    6    6    0    0 -0.10425775354E+02 -0.21453947513E+02 -0.75193140258E+02  0.78885847891E+02  0.00000000000E+00 0. -1.
        -14    1    6    6    0    0  0.64352000025E+02 -0.49613005025E+02 -0.56267375283E+02  0.98836469464E+02  0.00000000000E+00 0.  1.
</event>
<event>
12    1  0.8728348E-002  0.2885733E+03  0.7818608E-02  0.1091438E+00
         21   -1    0    0  501  502  0.00000000000E+00  0.00000000000E+00  0.82989907649E+02  0.82989907649E+02  0.00000000000E+00 0.  1.
         21   -1    0    0  502  503 -0.00000000000E+00 -0.00000000000E+00 -0.15698621356E+04  0.15698621356E+04  0.00000000000E+00 0.  1.
         -6    2    1    2    0  503 -0.22002208634E+03 -0.63005256296E+02 -0.12458853005E+04  0.12788685375E+04  0.17577022867E+03 0.  0.
        -24    2    3    3    0    0 -0.36355640387E+02 -0.12931442706E+02 -0.56034958940E+03  0.56737570448E+03  0.80215789582E+02 0.  0.
          6    2    1    2  501    0  0.22002208634E+03  0.63005256296E+02 -0.24098692745E+03  0.37398350580E+03  0.17149222317E+03 0.  0.
         24    2    5    5    0    0  0.20103421883E+03 -0.19341164211E+01 -0.20259534234E+03  0.29604978364E+03  0.78626355060E+02 0.  0.
          5    1    5    5  501    0  0.18987867504E+02  0.64939372718E+02 -0.38391585115E+02  0.77933722155E+02  0.47000000000E+01 0. -1.
        -11    1    6    6    0    0  0.13472044535E+03  0.18350238443E+02 -0.87529075352E+02  0.16170240777E+03  0.00000000000E+00 0.  1.
         12    1    6    6    0    0  0.66313773479E+02 -0.20284354865E+02 -0.11506626699E+03  0.13434737587E+03  0.00000000000E+00 0. -1.
         -5    1    3    3    0  503 -0.18366644595E+03 -0.50073813591E+02 -0.68553571114E+03  0.71149283301E+03  0.47000000000E+01 0.  1.
         13    1    4    4    0    0 -0.20679139451E+02 -0.31991320799E+02 -0.50879335107E+03  0.51021735124E+03  0.00000000000E+00 0. -1.
        -14    1    4    4    0    0 -0.15676500936E+02  0.19059878093E+02 -0.51556238332E+02  0.57158353243E+02  0.00000000000E+00 0.  1.
</event>
<event>
12    1  0.8728348E-002  0.1830937E+03  0.7818608E-02  0.1165951E+00
         21   -1    0    0  501  502  0.00000000000E+00  0.00000000000E+00  0.84611068457E+02  0.84611068457E+02  0.00000000000E+00 0.  1.
         21   -1    0    0  502  503 -0.00000000000E+00 -0.00000000000E+00 -0.46855996993E+03  0.46855996993E+03  0.00000000000E+00 0. -1.
         -6    2    1    2    0  503  0.64792556155E+01  0.49391616505E+02 -0.30585660031E+03  0.35411900046E+03  0.17137821915E+03 0.  0.
        -24    2    3    3    0    0  0.23655199665E+02  0.26941363277E+02 -0.31252206686E+03  0.32469884804E+03  0.80460512761E+02 0.  0.
          6    2    1    2  501    0 -0.64792556155E+01 -0.49391616505E+02 -0.78092301167E+02  0.19905203793E+03  0.17618681497E+03 0.  0.
         24    2    5    5    0    0 -0.42337414329E+02 -0.36625863891E+02  0.16409858463E+02  0.97064194730E+02  0.77577470221E+02 0.  0.
          5    1    5    5  501    0  0.35858158713E+02 -0.12765752613E+02 -0.94502159630E+02  0.10198784320E+03  0.47000000000E+01 0. -1.
        -13    1    6    6    0    0 -0.45836501329E+02 -0.54997790929E+02  0.25845514337E+02  0.76116571602E+02  0.00000000000E+00 0.  1.
         14    1    6    6    0    0  0.34990870000E+01  0.18371927038E+02 -0.94356558743E+01  0.20947623127E+02  0.00000000000E+00 0. -1.
         -5    1    3    3    0  503 -0.17175944050E+02  0.22450253227E+02  0.66654665558E+01  0.29420152419E+02  0.47000000000E+01 0.  1.
         13    1    4    4    0    0  0.20522836024E+02 -0.27070377138E+02 -0.11774249871E+03  0.12254504527E+03  0.00000000000E+00 0. -1.
        -14    1    4    4    0    0  0.31323636411E+01  0.54011740415E+02 -0.19477956815E+03  0.20215380277E+03  0.00000000000E+00 0.  1.
</event>
<event>
12    1  0.8728348E-002  0.4593513E+03  0.7818608E-02  0.1025030E+00
         21   -1    0    0  501  502  0.00000000000E+00  0.00000000000E+00  0.54934378448E+03  0.54934378448E+03  0.00000000000E+00 0.  1.
         21   -1    0    0  502  503 -0.00000000000E+00 -0.00000000000E+00 -0.47182332788E+03  0.47182332788E+03  0.00000000000E+00 0. -1.
         -6    2    1    2    0  503 -0.41557848976E+02 -0.42395508126E+03 -0.18224252925E+03  0.49418211315E+03  0.17186813477E+03 0.  0.
        -24    2    3    3    0    0  0.12740408387E+02 -0.13013286904E+03 -0.10463123140E+03  0.18543400109E+03  0.79631605315E+02 0.  0.
          6    2    1    2  501    0  0.41557848976E+02  0.42395508126E+03  0.25976298585E+03  0.52698499922E+03  0.16962138676E+03 0.  0.
         24    2    5    5    0    0 -0.22036370380E+02  0.34169897006E+03  0.22147635618E+03  0.41608753046E+03  0.82663588714E+02 0.  0.
          5    1    5    5  501    0  0.63594219356E+02  0.82256111203E+02  0.38286629669E+02  0.11089746876E+03  0.47000000000E+01 0. -1.
        -13    1    6    6    0    0 -0.12134668262E+02  0.34125986717E+03  0.21962191722E+03  0.40600410544E+03  0.00000000000E+00 0.  1.
         14    1    6    6    0    0 -0.99017021175E+01  0.43910288871E+00  0.18544389581E+01  0.10083425014E+02  0.00000000000E+00 0. -1.
         -5    1    3    3    0  503 -0.54298257363E+02 -0.29382221222E+03 -0.77611297854E+02  0.30874811206E+03  0.47000000000E+01 0.  1.
         11    1    4    4    0    0 -0.28385626862E+02 -0.88070641896E+02 -0.50120520544E+02  0.10523425467E+03  0.00000000000E+00 0. -1.
        -12    1    4    4    0    0  0.41126035249E+02 -0.42062227144E+02 -0.54510710855E+02  0.80199746418E+02  0.00000000000E+00 0.  1.
</event>
<event>
12    1  0.8728348E-002  0.2924645E+03  0.7818608E-02  0.1089368E+00
         21   -1    0    0  501  502  0.00000000000E+00  0.00000000000E+00  0.49111487592E+03  0.49111487592E+03  0.00000000000E+00 0. -1.
         21   -1    0    0  502  503 -0.00000000000E+00 -0.00000000000E+00 -0.22737590511E+03  0.22737590511E+03  0.00000000000E+00 0.  1.
         -6    2    1    2    0  503 -0.19114505065E+03 -0.13566217398E+03  0.30827608462E+03  0.42493482984E+03  0.17491371993E+03 0.  0.
        -24    2    3    3    0    0 -0.42659730589E+02 -0.55360010733E+01  0.70063696859E+02  0.11550318499E+03  0.81126840215E+02 0.  0.
          6    2    1    2  501    0  0.19114505065E+03  0.13566217398E+03 -0.44537113822E+02  0.29355595119E+03  0.17102890439E+03 0.  0.
         24    2    5    5    0    0  0.21674651306E+03  0.12147431227E+03 -0.41500707148E+02  0.26375595014E+03  0.78165421216E+02 0.  0.
          5    1    5    5  501    0 -0.25601462411E+02  0.14187861712E+02 -0.30364066733E+01  0.29800001057E+02  0.47000000000E+01 0. -1.
        -11    1    6    6    0    0  0.78128754928E+02  0.42929623201E+01 -0.21495941371E+02  0.81145593642E+02  0.00000000000E+00 0.  1.
         12    1    6    6    0    0  0.13861775813E+03  0.11718134995E+03 -0.20004765777E+02  0.18261035649E+03  0.00000000000E+00 0. -1.
         -5    1    3    3    0  503 -0.14848532006E+03 -0.13012617291E+03  0.23821238776E+03  0.30943164485E+03  0.47000000000E+01 0.  1.
         13    1    4    4    0    0 -0.34713389402E+02 -0.41887033514E+02  0.37694111119E+02  0.66184507201E+02  0.00000000000E+00 0. -1.
        -14    1    4    4    0    0 -0.79463411866E+01  0.36351032441E+02  0.32369585740E+02  0.49318677788E+02  0.00000000000E+00 0.  1.
</event>
<event>
12    1  0.8728348E-002  0.1784763E+03  0.7818608E-02  0.1169643E+00
         21   -1    0    0  503  502  0.00000000000E+00  0.00000000000E+00  0.44001346907E+03  0.44001346907E+03  0.00000000000E+00 0.  1.
         21   -1    0    0  501  503 -0.00000000000E+00 -0.00000000000E+00 -0.12567022965E+03  0.12567022965E+03  0.00000000000E+00 0.  1.
          6    2    1    2  501    0  0.26875799451E+02 -0.41116194628E+02 -0.27635389673E+02  0.18060319403E+03  0.17158364979E+03 0.  0.
         24    2    3    3    0    0  0.68864388458E+02 -0.54863319010E+02 -0.52379090830E+02  0.12974686913E+03  0.79614025920E+02 0.  0.
         -6    2    1    2    0  502 -0.26875799451E+02  0.41116194628E+02  0.34197862909E+03  0.38508050469E+03  0.17007281465E+03 0.  0.
        -24    2    5    5    0    0  0.30785250788E+02  0.88135802878E+00  0.94333280494E+02  0.12760439420E+03  0.80222223562E+02 0.  0.
          5    1    3    3  501    0 -0.41988589007E+02  0.13747124382E+02  0.24743701157E+02  0.50856324902E+02  0.47000000000E+01 0. -1.
        -13    1    4    4    0    0  0.21633683608E+02 -0.11753604778E+02  0.21038583301E+02  0.32384957604E+02  0.00000000000E+00 0.  1.
         14    1    4    4    0    0  0.47230704850E+02 -0.43109714232E+02 -0.73417674131E+02  0.97361911529E+02  0.00000000000E+00 0. -1.
         -5    1    5    5    0  502 -0.57661050239E+02  0.40234836600E+02  0.24764534860E+03  0.25747611049E+03  0.47000000000E+01 0.  1.
         11    1    6    6    0    0 -0.12283764411E+02  0.29737672505E+02  0.49646357521E+02  0.59160635977E+02  0.00000000000E+00 0. -1.
        -12    1    6    6    0    0  0.43069015199E+02 -0.28856314476E+02  0.44686922973E+02  0.68443758227E+02  0.00000000000E+00 0.  1.
</event>
<event>
12    1  0.8728348E-002  0.2171633E+03  0.7818608E-02  0.1137272E+00
         21   -1    0    0  501  502  0.00000000000E+00  0.00000000000E+00  0.82540518989E+03  0.82540518989E+03  0.00000000000E+00 0. -1.
         21   -1    0    0  502  503 -0.00000000000E+00 -0.00000000000E+00 -0.68436503629E+02  0.68436503629E+02  0.00000000000E+00 0. -1.
         -6    2    1    2    0  503 -0.46212747445E+02  0.11324269751E+03  0.57795672916E+03  0.61740900224E+03  0.17944461181E+03 0.  0.
        -24    2    3    3    0    0 -0.79366986383E+02  0.13678059246E+02  0.27826140294E+03  0.29983743659E+03  0.77374880845E+02 0.  0.
          6    2    1    2  501    0  0.46212747445E+02 -0.11324269751E+03  0.17901195711E+03  0.27643269128E+03  0.17149409743E+03 0.  0.
         24    2    5    5    0    0 -0.21051044046E+01 -0.77997525936E+02  0.18545952975E+03  0.21609615078E+03  0.78830601226E+02 0.  0.
          5    1    5    5  501    0  0.48317851850E+02 -0.35245171576E+02 -0.64475726408E+01  0.60336540502E+02  0.47000000000E+01 0. -1.
        -11    1    6    6    0    0 -0.26282150628E+02 -0.70785483410E+02  0.17120909233E+03  0.18711998664E+03  0.00000000000E+00 0.  1.
         12    1    6    6    0    0  0.24177046223E+02 -0.72120425251E+01  0.14250437414E+02  0.28976164135E+02  0.00000000000E+00 0. -1.
         -5    1    3    3    0  503  0.33154238937E+02  0.99564638265E+02  0.29969532622E+03  0.31757156565E+03  0.47000000000E+01 0.  1.
         13    1    4    4    0    0 -0.12804964674E+02  0.34831697793E+02  0.14135197137E+03  0.14614237614E+03  0.00000000000E+00 0. -1.
        -14    1    4    4    0    0 -0.66562021709E+02 -0.21153638547E+02  0.13690943156E+03  0.15369506046E+03  0.00000000000E+00 0.  1.
</event>
<event>
12    1  0.8728348E-002  0.2577778E+03  0.7818608E-02  0.1108983E+00
         21   -1    0    0  503  502  0.00000000000E+00  0.00000000000E+00  0.19198097361E+03  0.19198097361E+03  0.00000000000E+00 0. -1.
         21   -1    0    0  501  503 -0.00000000000E+00 -0.00000000000E+00 -0.38865151876E+03  0.38865151876E+03  0.00000000000E+00 0.  1.
          6    2    1    2  501    0  0.19177350127E+03  0.12398305270E+02 -0.19971343164E+03  0.32609028280E+03  0.17180984837E+03 0.  0.
         24    2    3    3    0    0  0.10634053962E+03 -0.59333527987E+02 -0.12147960379E+03  0.18975661616E+03  0.80134270633E+02 0.  0.
         -6    2    1    2    0  502 -0.19177350127E+03 -0.12398305270E+02  0.30428864950E+01  0.25454220957E+03  0.16688823666E+03 0.  0.
        -24    2    5    5    0    0 -0.17733123519E+03  0.36053165658E+02  0.24205537061E+02  0.19953246622E+03  0.80505275131E+02 0.  0.
          5    1    3    3  501    0  0.85432961648E+02  0.71731833257E+02 -0.78233827853E+02  0.13633366664E+03  0.47000000000E+01 0. -1.
        -13    1    4    4    0    0  0.15165937586E+01  0.56074344010E+01 -0.43439859555E+02  0.43826530497E+02  0.00000000000E+00 0.  1.
         14    1    4    4    0    0  0.10482394586E+03 -0.64940962388E+02 -0.78039744236E+02  0.14593008567E+03  0.00000000000E+00 0. -1.
         -5    1    5    5    0  502 -0.14442266075E+02 -0.48451470928E+02 -0.21162650566E+02  0.55009743350E+02  0.47000000000E+01 0.  1.
         13    1    6    6    0    0 -0.95823425165E+01  0.27207559505E+02  0.11557985647E+02  0.31075064192E+02  0.00000000000E+00 0. -1.
        -14    1    6    6    0    0 -0.16774889268E+03  0.88456061530E+01  0.12647551413E+02  0.16845740203E+03  0.00000000000E+00 0.  1.
</event>
<event>
12    1  0.8728348E-002  0.2379798E+03  0.7818608E-02  0.1121334E+00
         21   -1    0    0  501  502  0.00000000000E+00  0.00000000000E+00  0.50533307512E+03  0.50533307512E+03  0.00000000000E+00 0. -1.
         21   -1    0    0  502  503 -0.00000000000E+00 -0.00000000000E+00 -0.13422042372E+03  0.13422042372E+03  0.00000000000E+00 0. -1.
         -6    2    1    2    0  503 -0.23809817634E+02  0.15915552688E+03  0.53773846182E+02  0.24289458646E+03  0.17380668701E+03 0.  0.
        -24    2    3    3    0    0 -0.21764906030E+02  0.14222676811E+03  0.10048255357E+03  0.19294903729E+03  0.80189916562E+02 0.  0.
          6    2    1    2  501    0  0.23809817634E+02 -0.15915552688E+03  0.31733880522E+03  0.39665891237E+03  0.17531966893E+03 0.  0.
         24    2    5    5    0    0  0.31174854046E+02 -0.29692366282E+02  0.20845983622E+03  0.22727274528E+03  0.79648536019E+02 0.  0.
          5    1    5    5  501    0 -0.73650364112E+01 -0.12946316059E+03  0.10887896901E+03  0.16938616710E+03  0.47000000000E+01 0. -1.
        -13    1    6    6    0    0  0.33498620066E+02 -0.11714273179E+02  0.26194601798E+02  0.44108263464E+02  0.00000000000E+00 0.  1.
         14    1    6    6    0    0 -0.23237660204E+01 -0.17978093103E+02  0.18226523442E+03  0.18316448181E+03  0.00000000000E+00 0. -1.
         -5    1    3    3    0  503 -0.20449116044E+01  0.16928758769E+02 -0.46708707385E+02  0.49945549176E+02  0.47000000000E+01 0.  1.
         11    1    4    4    0    0 -0.41035114965E+01  0.58567538202E+02 -0.29084677829E+01  0.58783114263E+02  0.00000000000E+00 0. -1.
        -12    1    4    4    0    0 -0.17661394534E+02  0.83659229905E+02  0.10339102135E+03  0.13416592302E+03  0.00000000000E+00 0.  1.
</event>
<event>
12    1  0.8728348E-002  0.1827263E+03  0.7818608E-02  0.1166985E+00
         21   -1    0    0  503  502  0.00000000000E+00  0.00000000000E+00  0.26588090353E+03  0.26588090353E+03  0.00000000000E+00 0.  1.
         21   -1    0    0  501  503 -0.00000000000E+00 -0.00000000000E+00 -0.16906356935E+03  0.16906356935E+03  0.00000000000E+00 0.  1.
          6    2    1    2  501    0  0.42018969151E+02  0.43291579353E+02 -0.68788720877E+02  0.18833895122E+03  0.16462052671E+03 0.  0.
         24    2    3    3    0    0  0.39613713654E+02  0.18772539826E+02  0.21633481823E+02  0.94502746614E+02  0.80877110611E+02 0.  0.
         -6    2    1    2    0  502 -0.42018969151E+02 -0.43291579353E+02  0.16560605506E+03  0.24660552167E+03  0.17247945742E+03 0.  0.
        -24    2    5    5    0    0  0.15600581117E+02 -0.58181002064E+02  0.36550682585E+02  0.10441168690E+03  0.77054791094E+02 0.  0.
          5    1    3    3  501    0  0.24052554961E+01  0.24519039527E+02 -0.90422202700E+02  0.93836204604E+02  0.47000000000E+01 0. -1.
        -13    1    4    4    0    0 -0.30864920190E+01  0.40665212490E+02 -0.23653502211E+01  0.40850713843E+02  0.00000000000E+00 0.  1.
         14    1    4    4    0    0  0.42700205674E+02 -0.21892672664E+02  0.23998832044E+02  0.53652032771E+02  0.00000000000E+00 0. -1.
         -5    1    5    5    0  502 -0.57619550268E+02  0.14889422711E+02  0.12905537248E+03  0.14219383477E+03  0.47000000000E+01 0.  1.
         11    1    6    6    0    0  0.30654463532E+02 -0.23768059484E+02 -0.14170427522E+02  0.41296704496E+02  0.00000000000E+00 0. -1.
        -12    1    6    6    0    0 -0.15053882414E+02 -0.34412942581E+02  0.50721110107E+02  0.63114982400E+02  0.00000000000E+00 0.  1.
</event>
<event>
12    1  0.8728348E-002  0.2341233E+03  0.7818608E-02  0.1126257E+00
         21   -1    0    0  503  502  0.00000000000E+00  0.00000000000E+00  0.62213646022E+02  0.62213646022E+02  0.00000000000E+00 0.  1.
         21   -1    0    0  501  503 -0.00000000000E+00 -0.00000000000E+00 -0.83175038349E+03  0.83175038349E+03  0.00000000000E+00 0.  1.
          6    2    1    2  501    0  0.11796523785E+03  0.68950687528E+02 -0.39772426734E+03  0.45458009150E+03  0.17259337214E+03 0.  0.
         24    2    3    3    0    0  0.12959262482E+03  0.87162797266E+02 -0.25300652212E+03  0.30818271157E+03  0.81072078050E+02 0.  0.
         -6    2    1    2    0  502 -0.11796523785E+03 -0.68950687528E+02 -0.37181247012E+03  0.43938393801E+03  0.19011506355E+03 0.  0.
        -24    2    5    5    0    0 -0.12276285096E+03 -0.97255609427E+02 -0.20565584937E+03  0.27069991886E+03  0.80341437316E+02 0.  0.
          5    1    3    3  501    0 -0.11627386973E+02 -0.18212109738E+02 -0.14471774522E+03  0.14639737993E+03  0.47000000000E+01 0. -1.
        -11    1    4    4    0    0  0.60308361985E+02  0.73548090960E+02 -0.19439857339E+03  0.21641909700E+03  0.00000000000E+00 0.  1.
         12    1    4    4    0    0  0.69284262840E+02  0.13614706306E+02 -0.58607948731E+02  0.91763614573E+02  0.00000000000E+00 0. -1.
         -5    1    5    5    0  502  0.47976131095E+01  0.28304921899E+02 -0.16615662076E+03  0.16868401915E+03  0.47000000000E+01 0.  1.
         11    1    6    6    0    0 -0.51055176349E+02 -0.87235521691E+02 -0.14194572513E+03  0.17425629446E+03  0.00000000000E+00 0. -1.
        -12    1    6    6    0    0 -0.71707674612E+02 -0.10020087736E+02 -0.63710124237E+02  0.96443624396E+02  0.00000000000E+00 0.  1.
</event>
<event>
12    1  0.8728348E-002  0.2104851E+03  0.7818608E-02  0.1141222E+00
         21   -1    0    0  501  502  0.00000000000E+00  0.00000000000E+00  0.49554310534E+02  0.49554310534E+02  0.00000000000E+00 0.  1.
         21   -1    0    0  502  503 -0.00000000000E+00 -0.00000000000E+00 -0.10561002236E+04  0.10561002236E+04  0.00000000000E+00 0.  1.
         -6    2    1    2    0  503 -0.98442972681E+00 -0.12057807234E+03 -0.28635977940E+03  0.35539542605E+03  0.17252230281E+03 0.  0.
        -24    2    3    3    0    0  0.22252284767E+02 -0.17732358181E+02 -0.48786072248E+02  0.95432847682E+02  0.76926893004E+02 0.  0.
          6    2    1    2  501    0  0.98442972681E+00  0.12057807234E+03 -0.72018613362E+03  0.75025910804E+03  0.17228064752E+03 0.  0.
         24    2    5    5    0    0  0.18110077712E+02  0.15050722186E+03 -0.64565131241E+03  0.66799993601E+03  0.79861746444E+02 0.  0.
          5    1    5    5  501    0 -0.17125647985E+02 -0.29929149527E+02 -0.74534821214E+02  0.82259172034E+02  0.47000000000E+01 0. -1.
        -11    1    6    6    0    0  0.42265249840E+02  0.12822220514E+03 -0.45768677165E+03  0.47718389137E+03  0.00000000000E+00 0.  1.
         12    1    6    6    0    0 -0.24155172128E+02  0.22285016724E+02 -0.18796454076E+03  0.19081604464E+03  0.00000000000E+00 0. -1.
         -5    1    3    3    0  503 -0.23236714494E+02 -0.10284571416E+03 -0.23757370715E+03  0.25996257837E+03  0.47000000000E+01 0.  1.
         11    1    4    4    0    0 -0.24474288254E+02  0.41538060480E+01 -0.33350644002E+02  0.41575357431E+02  0.00000000000E+00 0. -1.
        -12    1    4    4    0    0  0.46726573021E+02 -0.21886164229E+02 -0.15435428247E+02  0.53857490251E+02  0.00000000000E+00 0.  1.
</event>
<event>
12    1  0.8728348E-002  0.2911848E+03  0.7818608E-02  0.1089742E+00
         21   -1    0    0  503  502  0.00000000000E+00  0.00000000000E+00  0.28547636496E+03  0.28547636496E+03  0.00000000000E+00 0. -1.
         21   -1    0    0  501  503 -0.00000000000E+00 -0.00000000000E+00 -0.39164970418E+03  0.39164970418E+03  0.00000000000E+00 0.  1.
          6    2    1    2  501    0  0.81262026394E+02  0.21998162563E+03 -0.21958993941E+03  0.36470307355E+03  0.17260694604E+03 0.  0.
         24    2    3    3    0    0  0.16300358526E+02  0.13195797840E+03 -0.42145646243E+02  0.15619228741E+03  0.70293423557E+02 0.  0.
         -6    2    1    2    0  502 -0.81262026394E+02 -0.21998162563E+03  0.11341660019E+03  0.31242299559E+03  0.17248005806E+03 0.  0.
        -24    2    5    5    0    0  0.16341857800E+02 -0.85518859345E+02  0.81330327755E+02  0.14313515608E+03  0.79325399933E+02 0.  0.
          5    1    3    3  501    0  0.64961667869E+02  0.88023647227E+02 -0.17744429316E+03  0.20851078615E+03  0.47000000000E+01 0. -1.
        -13    1    4    4    0    0 -0.13534885814E+01  0.27751946832E+02 -0.42170992389E+02  0.50501436448E+02  0.00000000000E+00 0.  1.
         14    1    4    4    0    0  0.17653847107E+02  0.10420603157E+03  0.25346145488E-01  0.10569085096E+03  0.00000000000E+00 0. -1.
         -5    1    5    5    0  502 -0.97603884194E+02 -0.13446276629E+03  0.32086272435E+02  0.16928783951E+03  0.47000000000E+01 0.  1.
         11    1    6    6    0    0 -0.22479036995E+02 -0.62492523601E+01  0.38522253447E+02  0.45036921186E+02  0.00000000000E+00 0. -1.
        -12    1    6    6    0    0  0.38820894795E+02 -0.79269606985E+02  0.42808074308E+02  0.98098234899E+02  0.00000000000E+00 0.  1.
</event>
<event>
12    1  0.8728348E-002  0.1810312E+03  0.7818608E-02  0.1167613E+00
         21   -1    0    0  503  502  0.00000000000E+00  0.00000000000E+00  0.12282163835E+03  0.12282163835E+03  0.00000000000E+00 0.  1.
         21   -1    0    0  501  503 -0.00000000000E+00 -0.00000000000E+00 -0.40130135973E+03  0.40130135973E+03  0.00000000000E+00 0.  1.
          6    2    1    2  501    0 -0.44828807559E+02  0.80784308216E+01 -0.29449549028E+03  0.34568753866E+03  0.17520672807E+03 0.  0.
         24    2    3    3    0    0  0.18564728127E+02 -0.18932011830E+02 -0.24869961219E+03  0.26281621172E+03  0.80732854770E+02 0.  0.
         -6    2    1    2    0  502  0.44828807559E+02 -0.80784308216E+01  0.16015768895E+02  0.17843545941E+03  0.17177841916E+03 0.  0.
        -24    2    5    5    0    0 -0.35452651092E+02 -0.94714818233E+01  0.37975959470E+02  0.95060444182E+02  0.79042489290E+02 0.  0.
          5    1    3    3  501    0 -0.63393535686E+02  0.27010442652E+02 -0.45795878091E+02  0.82871326942E+02  0.47000000000E+01 0. -1.
        -11    1    4    4    0    0 -0.25730213001E+02  0.12833983050E+02 -0.62394653261E+02  0.68701148008E+02  0.00000000000E+00 0.  1.
         12    1    4    4    0    0  0.44294941129E+02 -0.31765994880E+02 -0.18630495893E+03  0.19411506371E+03  0.00000000000E+00 0. -1.
         -5    1    5    5    0  502  0.80281458651E+02  0.13930510017E+01 -0.21960190575E+02  0.83375015228E+02  0.47000000000E+01 0.  1.
         13    1    6    6    0    0 -0.40723093667E+02 -0.84461084457E+01 -0.13176363660E+02  0.43627097829E+02  0.00000000000E+00 0. -1.
        -14    1    6    6    0    0  0.52704425753E+01 -0.10253733776E+01  0.51152323130E+02  0.51433346353E+02  0.00000000000E+00 0.  1.
</event>
<event>
12    1  0.8728348E-002  0.1778527E+03  0.7818608E-02  0.1170746E+00
         21   -1    0    0  503  502  0.00000000000E+00  0.00000000000E+00  0.79004131298E+03  0.79004131298E+03  0.00000000000E+00 0. -1.
         21   -1    0    0  501  503 -0.00000000000E+00 -0.00000000000E+00 -0.73642898620E+02  0.73642898620E+02  0.00000000000E+00 0. -1.
          6    2    1    2  501    0 -0.27107380416E+02 -0.34253131589E+02  0.65039219074E+02  0.18937177687E+03  0.17240499634E+03 0.  0.
         24    2    3    3    0    0 -0.29880035365E+02 -0.44282105946E+02  0.10335780521E+03  0.14938838050E+03  0.93703419940E+02 0.  0.
         -6    2    1    2    0  502  0.27107380416E+02  0.34253131589E+02  0.65135919529E+03  0.67431243472E+03  0.16887975380E+03 0.  0.
        -24    2    5    5    0    0 -0.33429721264E+02  0.98446273088E+01  0.52224484075E+03  0.52956050103E+03  0.80499612488E+02 0.  0.
          5    1    3    3  501    0  0.27726549484E+01  0.10028974357E+02 -0.38318586140E+02  0.39983396378E+02  0.47000000000E+01 0. -1.
        -13    1    4    4    0    0 -0.98045655561E+01  0.28440114890E+02  0.44444895520E+02  0.53668597694E+02  0.00000000000E+00 0.  1.
         14    1    4    4    0    0 -0.20075469809E+02 -0.72722220835E+02  0.58912909695E+02  0.95719782803E+02  0.00000000000E+00 0. -1.
         -5    1    5    5    0  502  0.60537101681E+02  0.24408504280E+02  0.12911435454E+03  0.14475193370E+03  0.47000000000E+01 0.  1.
         11    1    6    6    0    0  0.12394861911E+02  0.31754005762E+02  0.27859731003E+03  0.28067491986E+03  0.00000000000E+00 0. -1.
        -12    1    6    6    0    0 -0.45824583176E+02 -0.21909378453E+02  0.24364753072E+03  0.24888558117E+03  0.00000000000E+00 0.  1.
</event>
<event>
12    1  0.8728348E-002  0.2055601E+03  0.7818608E-02  0.1145962E+00
         21   -1    0    0  501  502  0.00000000000E+00  0.00000000000E+00  0.68875110674E+03  0.68875110674E+03  0.00000000000E+00 0. -1.
         21   -1    0    0  502  503 -0.00000000000E+00 -0.00000000000E+00 -0.62421462056E+02  0.62421462056E+02  0.00000000000E+00 0.  1.
         -6    2    1    2    0  503  0.85417857882E+02  0.67829752403E+02  0.24452527522E+03  0.31944887562E+03  0.17423515189E+03 0.  0.
        -24    2    3    3    0    0  0.84877361322E+02 -0.17937137851E+02  0.15626869811E+03  0.19629220708E+03  0.81146886406E+02 0.  0.
          6    2    1    2  501    0 -0.85417857882E+02 -0.67829752403E+02  0.38180436946E+03  0.43172369318E+03  0.16945112852E+03 0.  0.
         24    2    5    5    0    0 -0.10424582810E+03 -0.84264079249E+02  0.37444958852E+03  0.40525177666E+03  0.77774548615E+02 0.  0.
          5    1    5    5  501    0  0.18827970222E+02  0.16434326846E+02  0.73547809376E+01  0.26471916519E+02  0.47000000000E+01 0. -1.
        -13    1    6    6    0    0 -0.25634462664E+02 -0.26929814102E+02  0.31382258883E+02  0.48653743291E+02  0.00000000000E+00 0.  1.
         14    1    6    6    0    0 -0.78611365440E+02 -0.57334265147E+02  0.34306732964E+03  0.35659803337E+03  0.00000000000E+00 0. -1.
         -5    1    3    3    0  503  0.54049655942E+00  0.85766890254E+02  0.88256577115E+02  0.12315666853E+03  0.47000000000E+01 0.  1.
         13    1    4    4    0    0  0.51723147803E+02  0.30151820254E+02  0.88160322112E+02  0.10656762491E+03  0.00000000000E+00 0. -1.
        -14    1    4    4    0    0  0.33154213519E+02 -0.48088958106E+02  0.68108375996E+02  0.89724582175E+02  0.00000000000E+00 0.  1.
</event>
<event>
12    1  0.8728348E-002  0.1823981E+03  0.7818608E-02  0.1165819E+00
         21   -1    0    0  501  502  0.00000000000E+00  0.00000000000E+00  0.14638762096E+04  0.14638762096E+04  0.00000000000E+00 0.  1.
         21   -1    0    0  502  503 -0.00000000000E+00 -0.00000000000E+00 -0.28364676588E+02  0.28364676588E+02  0.00000000000E+00 0.  1.
         -6    2    1    2    0  503  0.52416072339E+02 -0.33547684956E+02  0.38236287741E+03  0.42363951897E+03  0.17145314288E+03 0.  0.
        -24    2    3    3    0    0  0.20342093533E+02 -0.19709568803E+02  0.37878900904E+03  0.38821218333E+03  0.80158081603E+02 0.  0.
          6    2    1    2  501    0 -0.52416072339E+02  0.33547684956E+02  0.10531486556E+04  0.10686013672E+04  0.17004087574E+03 0.  0.
         24    2    5    5    0    0 -0.44200647576E+02  0.51772571636E+01  0.10184507409E+04  0.10227929656E+04  0.82964073692E+02 0.  0.
          5    1    5    5  501    0 -0.82154247632E+01  0.28370427793E+02  0.34697914668E+02  0.45808401626E+02  0.47000000000E+01 0. -1.
        -11    1    6    6    0    0 -0.77816498080E+01  0.37465846509E+02  0.26218614145E+03  0.26496380224E+03  0.00000000000E+00 0.  1.
         12    1    6    6    0    0 -0.36418997768E+02 -0.32288589346E+02  0.75626459950E+03  0.75782916337E+03  0.00000000000E+00 0. -1.
         -5    1    3    3    0  503  0.32073978806E+02 -0.13838116153E+02  0.35738683713E+01  0.35427335636E+02  0.47000000000E+01 0.  1.
         11    1    4    4    0    0  0.17833243075E+02 -0.40670005729E+02  0.34835128553E+03  0.35117046011E+03  0.00000000000E+00 0. -1.
        -12    1    4    4    0    0  0.25088504579E+01  0.20960436926E+02  0.30437723516E+02  0.37041723226E+02  0.00000000000E+00 0.  1.
</event>
<event>
12    1  0.8728348E-002  0.2233671E+03  0.7818608E-02  0.1131849E+00
         21   -1    0    0  501  502  0.00000000000E+00  0.00000000000E+00  0.10132145187E+04  0.10132145187E+04  0.00000000000E+00 0. -1.
         21   -1    0    0  502  503 -0.00000000000E+00 -0.00000000000E+00 -0.52022903013E+02  0.52022903013E+02  0.00000000000E+00 0. -1.
         -6    2    1    2    0  503  0.82839968231E+02  0.11514027045E+03  0.34851919300E+03  0.41395467377E+03  0.17254883898E+03 0.  0.
        -24    2    3    3    0    0  0.67258807929E+01  0.63181033031E+02  0.28245004009E+03  0.30046308983E+03  0.80392554344E+02 0.  0.
          6    2    1    2  501    0 -0.82839968231E+02 -0.11514027045E+03  0.61267242273E+03  0.65128274798E+03  0.16935754495E+03 0.  0.
         24    2    5    5    0    0 -0.10129734322E+03 -0.72031242379E+02  0.28780960016E+03  0.32301912453E+03  0.77828897251E+02 0.  0.
          5    1    5    5  501    0  0.18457374992E+02 -0.43109028073E+02  0.32486282257E+03  0.32826362345E+03  0.47000000000E+01 0. -1.
        -13    1    6    6    0    0 -0.81760578890E+02 -0.15216946641E+02  0.20021803143E+03  0.21680315458E+03  0.00000000000E+00 0.  1.
         14    1    6    6    0    0 -0.19536764333E+02 -0.56814295737E+02  0.87591568726E+02  0.10621596995E+03  0.00000000000E+00 0. -1.
         -5    1    3    3    0  503  0.76114087438E+02  0.51959237421E+02  0.66069152905E+02  0.11349158394E+03  0.47000000000E+01 0.  1.
         13    1    4    4    0    0  0.27210517098E+02  0.73911254959E+02  0.23091575765E+03  0.24397822235E+03  0.00000000000E+00 0. -1.
        -14    1    4    4    0    0 -0.20484636305E+02 -0.10730221928E+02  0.51534282441E+02  0.56484867476E+02  0.00000000000E+00 0.  1.
</event>
<event>
12    1  0.8728348E-002  0.2143427E+03  0.7818608E-02  0.1138235E+00
         21   -1    0    0  501  502  0.00000000000E+00  0.00000000000E+00  0.98587956506E+02  0.98587956506E+02  0.00000000000E+00 0.  1.
         21   -1    0    0  502  503 -0.00000000000E+00 -0.00000000000E+00 -0.55626629564E+03  0.55626629564E+03  0.00000000000E+00 0. -1.
         -6    2    1    2    0  503  0.75308304041E+02  0.10390305204E+03 -0.96293721069E+02  0.23468566007E+03  0.17128249602E+03 0.  0.
        -24    2    3    3    0    0  0.78665101376E+00  0.84968792687E+02 -0.10543509638E+03  0.15711222589E+03  0.79670430065E+02 0.  0.
          6    2    1    2  501    0 -0.75308304041E+02 -0.10390305204E+03 -0.36138461806E+03  0.42016859208E+03  0.17168464904E+03 0.  0.
         24    2    5    5    0    0 -0.86149234441E+02 -0.87665191598E+02 -0.15568642386E+03  0.21349244207E+03  0.78954948125E+02 0.  0.
          5    1    5    5  501    0  0.10840930400E+02 -0.16237860442E+02 -0.20569819421E+03  0.20667615001E+03  0.47000000000E+01 0. -1.
        -11    1    6    6    0    0  0.77362474331E+01 -0.32882103104E+02 -0.18673864612E+02  0.38597868444E+02  0.00000000000E+00 0.  1.
         12    1    6    6    0    0 -0.93885481874E+02 -0.54783088494E+02 -0.13701255924E+03  0.17489457362E+03  0.00000000000E+00 0. -1.
         -5    1    3    3    0  503  0.74521653027E+02  0.18934259353E+02  0.91413753064E+01  0.77573434175E+02  0.47000000000E+01 0.  1.
         11    1    4    4    0    0 -0.39363971975E+02  0.44783951688E+02 -0.51696379456E+02  0.78915399431E+02  0.00000000000E+00 0. -1.
        -12    1    4    4    0    0  0.40150622989E+02  0.40184840999E+02 -0.53738716919E+02  0.78196826461E+02  0.00000000000E+00 0.  1.
</event>
<event>
12    1  0.8728348E-002  0.1862777E+03  0.7818608E-02  0.1162010E+00
         21   -1    0    0  501  502  0.00000000000E+00  0.00000000000E+00  0.38094685644E+02  0.38094685644E+02  0.00000000000E+00 0. -1.
         21   -1    0    0  502  503 -0.00000000000E+00 -0.00000000000E+00 -0.92657352343E+03  0.92657352343E+03  0.00000000000E+00 0. -1.
         -6    2    1    2    0  503 -0.71130759767E+02  0.19917383146E+01 -0.37475655268E+03  0.41821604755E+03  0.17146030633E+03 0.  0.
        -24    2    3    3    0    0 -0.24859579442E+02  0.39268433746E+02 -0.33242540615E+03  0.34510934391E+03  0.80210971945E+02 0.  0.
          6    2    1    2  501    0  0.71130759767E+02 -0.19917383146E+01 -0.51372228510E+03  0.54645216152E+03  0.17215059283E+03 0.  0.
         24    2    5    5    0    0 -0.92816132354E+01 -0.76062782308E+01 -0.39299686983E+03  0.40121308729E+03  0.79883652298E+02 0.  0.
          5    1    5    5  501    0  0.80412373003E+02  0.56145399163E+01 -0.12072541527E+03  0.14523907423E+03  0.47000000000E+01 0. -1.
        -13    1    6    6    0    0 -0.13483146301E+02  0.27519336334E+02 -0.30248816131E+03  0.30403650576E+03  0.00000000000E+00 0.  1.
         14    1    6    6    0    0  0.42015330659E+01 -0.35125614565E+02 -0.90508708523E+02  0.97176581526E+02  0.00000000000E+00 0. -1.
         -5    1    3    3    0  503 -0.46271180326E+02 -0.37276695431E+02 -0.42331146536E+02  0.73106703646E+02  0.47000000000E+01 0.  1.
         13    1    4    4    0    0 -0.43605404168E+02 -0.41712385933E+01 -0.12826757849E+03  0.13554114577E+03  0.00000000000E+00 0. -1.
        -14    1    4    4    0    0  0.18745824727E+02  0.43439672339E+02 -0.20415782766E+03  0.20956819814E+03  0.00000000000E+00 0.  1.
</event>
<event>
12    1  0.8728348E-002  0.1784366E+03  0.7818608E-02  0.1169589E+00
         21   -1    0    0  503  502  0.00000000000E+00  0.00000000000E+00  0.77109691558E+02  0.77109691558E+02  0.00000000000E+00 0. -1.
         21   -1    0    0  501  503 -0.00000000000E+00 -0.00000000000E+00 -0.43385760730E+03  0.43385760730E+03  0.00000000000E+00 0. -1.
          6    2    1    2  501    0  0.28832947538E+02  0.27509260548E+02 -0.23724013056E+03  0.29620763063E+03  0.17282355920E+03 0.  0.
         24    2    3    3    0    0  0.37235904245E+01  0.22278599772E+02 -0.49884516623E+02  0.10704617657E+03  0.91979442194E+02 0.  0.
         -6    2    1    2    0  502 -0.28832947538E+02 -0.27509260548E+02 -0.11950778518E+03  0.21475966823E+03  0.17392960099E+03 0.  0.
        -24    2    5    5    0    0  0.52893835553E+02 -0.43073185479E+01 -0.80381879631E+02  0.12110859417E+03  0.73414808974E+02 0.  0.
          5    1    3    3  501    0  0.25109357114E+02  0.52306607759E+01 -0.18735561394E+03  0.18916145406E+03  0.47000000000E+01 0. -1.
        -13    1    4    4    0    0 -0.24126837302E+02 -0.18674506353E+02  0.73259227099E+01  0.31376912041E+02  0.00000000000E+00 0.  1.
         14    1    4    4    0    0  0.27850427726E+02  0.40953106124E+02 -0.57210439333E+02  0.75669264530E+02  0.00000000000E+00 0. -1.
         -5    1    5    5    0  502 -0.81726783091E+02 -0.23201942000E+02 -0.39125905548E+02  0.93651074056E+02  0.47000000000E+01 0.  1.
         11    1    6    6    0    0 -0.12136503417E+02 -0.12747659239E+02 -0.30008081176E+00  0.17603624052E+02  0.00000000000E+00 0. -1.
        -12    1    6    6    0    0  0.65030338969E+02  0.84403406910E+01 -0.80081798819E+02  0.10350497012E+03  0.00000000000E+00 0.  1.
</event>
<event>
12    1  0.8728348E-002  0.1901359E+03  0.7818608E-02  0.1158431E+00
         21   -1    0    0  501  502  0.00000000000E+00  0.00000000000E+00  0.44157163482E+02  0.44157163482E+02  0.00000000000E+00 0. -1.
         21   -1    0    0  502  503 -0.00000000000E+00 -0.00000000000E+00 -0.10036810542E+04  0.10036810542E+04  0.00000000000E+00 0. -1.
         -6    2    1    2    0  503 -0.23441228253E+01 -0.80658861900E+02 -0.70615992173E+03  0.73130943194E+03  0.17216359451E+03 0.  0.
        -24    2    3    3    0    0 -0.29725102708E+02 -0.75704369175E+02 -0.68767893837E+03  0.69757663183E+03  0.84238362723E+02 0.  0.
          6    2    1    2  501    0  0.23441228253E+01  0.80658861900E+02 -0.25336396896E+03  0.31652878571E+03  0.17171436895E+03 0.  0.
         24    2    5    5    0    0  0.34935954509E+02 -0.13561231386E+02 -0.10596446391E+03  0.13851654580E+03  0.80956395258E+02 0.  0.
          5    1    5    5  501    0 -0.32591831684E+02  0.94220093286E+02 -0.14739950504E+03  0.17801223991E+03  0.47000000000E+01 0. -1.
        -11    1    6    6    0    0 -0.20774390249E+02 -0.23294665791E+02 -0.50070388085E+02  0.59002207650E+02  0.00000000000E+00 0.  1.
         12    1    6    6    0    0  0.55710344758E+02  0.97334344048E+01 -0.55894075828E+02  0.79514338147E+02  0.00000000000E+00 0. -1.
         -5    1    3    3    0  503  0.27380979883E+02 -0.49544927253E+01 -0.18480983362E+02  0.33732800114E+02  0.47000000000E+01 0.  1.
         13    1    4    4    0    0 -0.32494080104E+02 -0.93545305699E+02 -0.57821777745E+03  0.58663650382E+03  0.00000000000E+00 0. -1.
        -14    1    4    4    0    0  0.27689773964E+01  0.17840936525E+02 -0.10946116092E+03  0.11094012801E+03  0.00000000000E+00 0.  1.
</event>
<event>
12    1  0.8728348E-002  0.2122153E+03  0.7818608E-02  0.1141409E+00
         21   -1    0    0  503  502  0.00000000000E+00  0.00000000000E+00  0.68260015562E+02  0.68260015562E+02  0.00000000000E+00 0. -1.
         21   -1    0    0  501  503 -0.00000000000E+00 -0.00000000000E+00 -0.10729611568E+04  0.10729611568E+04  0.00000000000E+00 0.  1.
          6    2    1    2  501    0  0.12096134503E+03  0.28407821663E+02 -0.87243786014E+03  0.89787703355E+03  0.17203690369E+03 0.  0.
         24    2    3    3    0    0  0.12894548536E+03 -0.27935115940E+02 -0.67159660060E+03  0.68907671111E+03  0.79858693689E+02 0.  0.
         -6    2    1    2    0  502 -0.12096134503E+03 -0.28407821663E+02 -0.13226328111E+03  0.24334413883E+03  0.16212385096E+03 0.  0.
        -24    2    5    5    0    0 -0.37538179261E+02  0.40579369817E+00 -0.43469462421E+01  0.87863182623E+02  0.79320636333E+02 0.  0.
          5    1    3    3  501    0 -0.79841403278E+01  0.56342937603E+02 -0.20084125955E+03  0.20880032244E+03  0.47000000000E+01 0. -1.
        -13    1    4    4    0    0  0.13448910882E+03 -0.10250489964E+02 -0.56463591032E+03  0.58052226845E+03  0.00000000000E+00 0.  1.
         14    1    4    4    0    0 -0.55436234644E+01 -0.17684625976E+02 -0.10696069028E+03  0.10855444266E+03  0.00000000000E+00 0. -1.
         -5    1    5    5    0  502 -0.83423165772E+02 -0.28813615361E+02 -0.12791633486E+03  0.15548095620E+03  0.47000000000E+01 0.  1.
         13    1    6    6    0    0 -0.45784772526E+02  0.30216608704E+02 -0.11654301034E+02  0.56081294292E+02  0.00000000000E+00 0. -1.
        -14    1    6    6    0    0  0.82465932654E+01 -0.29810815006E+02  0.73073547920E+01  0.31781888331E+02  0.00000000000E+00 0.  1.
</event>
<event>
12    1  0.8728348E-002  0.1891920E+03  0.7818608E-02  0.1159800E+00
         21   -1    0    0  503  502  0.00000000000E+00  0.00000000000E+00  0.22662644587E+04  0.22662644587E+04  0.00000000000E+00 0. -1.
         21   -1    0    0  501  503 -0.00000000000E+00 -0.00000000000E+00 -0.15761989564E+02  0.15761989564E+02  0.00000000000E+00 0. -1.
          6    2    1    2  501    0  0.72976141538E+02  0.20742024144E+01  0.12581102410E+04  0.12722558648E+04  0.17453878479E+03 0.  0.
         24    2    3    3    0    0  0.55704854701E+02  0.11805593568E+02  0.12431232245E+04  0.12469636133E+04  0.79501563795E+02 0.  0.
         -6    2    1    2    0  502 -0.72976141538E+02 -0.20742024144E+01  0.99239222812E+03  0.10097705835E+04  0.17165219854E+03 0.  0.
        -24    2    5    5    0    0 -0.10806804076E+03 -0.97838940319E+01  0.56411435815E+03  0.57996259769E+03  0.79731923550E+02 0.  0.
          5    1    3    3  501    0  0.17271286836E+02 -0.97313911538E+01  0.14987016502E+02  0.25292251509E+02  0.47000000000E+01 0. -1.
        -13    1    4    4    0    0 -0.59587925181E+00  0.36209459166E+02  0.42227560855E+03  0.42382563582E+03  0.00000000000E+00 0.  1.
         14    1    4    4    0    0  0.56300733953E+02 -0.24403865598E+02  0.82084761599E+03  0.82313797748E+03  0.00000000000E+00 0. -1.
         -5    1    5    5    0  502  0.35091899223E+02  0.77096916176E+01  0.42827786997E+03  0.42980798578E+03  0.47000000000E+01 0.  1.
         11    1    6    6    0    0 -0.43159842043E+02  0.34745486473E+02  0.20807701087E+03  0.21532780417E+03  0.00000000000E+00 0. -1.
        -12    1    6    6    0    0 -0.64908198718E+02 -0.44529380505E+02  0.35603734728E+03  0.36463479352E+03  0.00000000000E+00 0.  1.
</event>
<event>
12    1  0.8728348E-002  0.1736920E+03  0.7818608E-02  0.1174191E+00
         21   -1    0    0  503  502  0.00000000000E+00  0.00000000000E+00  0.13416396473E+04  0.13416396473E+04  0.00000000000E+00 0. -1.
         21   -1    0    0  501  503 -0.00000000000E+00 -0.00000000000E+00 -0.36893606509E+02  0.36893606509E+02  0.00000000000E+00 0. -1.
          6    2    1    2  501    0  0.28882407806E+00  0.20855354964E+02  0.10847821215E+04  0.10985996322E+04  0.17243512247E+03 0.  0.
         24    2    3    3    0    0  0.81195140427E+01  0.41037580205E+02  0.10648914530E+04  0.10688276552E+04  0.81539808145E+02 0.  0.
         -6    2    1    2    0  502 -0.28882407806E+00 -0.20855354964E+02  0.21996391925E+03  0.27993362159E+03  0.17188274338E+03 0.  0.
        -24    2    5    5    0    0  0.24782284612E+02  0.70374688038E-01  0.23062872647E+03  0.24525978757E+03  0.79678022968E+02 0.  0.
          5    1    3    3  501    0 -0.78306899647E+01 -0.20182225242E+02  0.19890668488E+02  0.29771976990E+02  0.47000000000E+01 0. -1.
        -13    1    4    4    0    0  0.41070920054E+02  0.56494753724E+01  0.59922838543E+03  0.60066079858E+03  0.00000000000E+00 0.  1.
         14    1    4    4    0    0 -0.32951406012E+02  0.35388104833E+02  0.46566306759E+03  0.46816685662E+03  0.00000000000E+00 0. -1.
         -5    1    5    5    0  502 -0.25071108690E+02 -0.20925729652E+02 -0.10664807214E+02  0.34673834016E+02  0.47000000000E+01 0.  1.
         13    1    6    6    0    0  0.36924558148E+02  0.54148787476E+01  0.42079267976E+02  0.56244188141E+02  0.00000000000E+00 0. -1.
        -14    1    6    6    0    0 -0.12142273536E+02 -0.53445040595E+01  0.18854945849E+03  0.18901559943E+03  0.00000000000E+00 0.  1.
</event>
<event>
12    1  0.8728348E-002  0.2213907E+03  0.7818608E-02  0.1133274E+00
         21   -1    0    0  503  502  0.00000000000E+00  0.00000000000E+00  0.94023757981E+02  0.94023757981E+02  0.00000000000E+00 0.  1.
         21   -1    0    0  501  503 -0.00000000000E+00 -0.00000000000E+00 -0.52509428519E+03  0.52509428519E+03  0.00000000000E+00 0.  1.
          6    2    1    2  501    0 -0.13530442752E+03 -0.32765660088E+02 -0.25751495132E+03  0.33959942923E+03  0.17214222490E+03 0.  0.
         24    2    3    3    0    0 -0.72043251300E+02 -0.63515858792E+02 -0.23402190181E+03  0.26529219868E+03  0.79932507654E+02 0.  0.
         -6    2    1    2    0  502  0.13530442752E+03  0.32765660088E+02 -0.17355557589E+03  0.27951861394E+03  0.16919882101E+03 0.  0.
        -24    2    5    5    0    0  0.13807887858E+03  0.64936928968E+02 -0.17630956494E+03  0.24677166636E+03  0.80799821629E+02 0.  0.
          5    1    3    3  501    0 -0.63261176215E+02  0.30750198704E+02 -0.23493049515E+02  0.74307230550E+02  0.47000000000E+01 0. -1.
        -13    1    4    4    0    0 -0.43365322409E+02 -0.69402356809E+02 -0.10572494456E+03  0.13369742787E+03  0.00000000000E+00 0.  1.
         14    1    4    4    0    0 -0.28677928891E+02  0.58864980172E+01 -0.12829695725E+03  0.13159477081E+03  0.00000000000E+00 0. -1.
         -5    1    5    5    0  502 -0.27744510635E+01 -0.32171268881E+02  0.27539890539E+01  0.32746947580E+02  0.47000000000E+01 0.  1.
         13    1    6    6    0    0  0.93743706740E+01 -0.15571078611E+02 -0.34677052640E+02  0.39151440516E+02  0.00000000000E+00 0. -1.
        -14    1    6    6    0    0  0.12870450791E+03  0.80508007579E+02 -0.14163251230E+03  0.20762022585E+03  0.00000000000E+00 0.  1.
</event>
<event>
12    1  0.8728348E-002  0.2736815E+03  0.7818608E-02  0.1099273E+00
         21   -1    0    0  503  502  0.00000000000E+00  0.00000000000E+00  0.59339454529E+03  0.59339454529E+03  0.00000000000E+00 0.  1.
         21   -1    0    0  501  503 -0.00000000000E+00 -0.00000000000E+00 -0.19013757533E+03  0.19013757533E+03  0.00000000000E+00 0. -1.
          6    2    1    2  501    0  0.15410662510E+03  0.14540963948E+03 -0.25841630088E+02  0.27489875913E+03  0.17323025940E+03 0.  0.
         24    2    3    3    0    0  0.13558772131E+03  0.17594129339E+03 -0.25782889014E+02  0.23888174733E+03  0.84025965949E+02 0.  0.
         -6    2    1    2    0  502 -0.15410662510E+03 -0.14540963948E+03  0.42909860005E+03  0.50863336150E+03  0.17230633392E+03 0.  0.
        -24    2    5    5    0    0 -0.12949745917E+03 -0.15703186137E+03  0.27152266809E+03  0.34865538982E+03  0.80046387464E+02 0.  0.
          5    1    3    3  501    0  0.18518903791E+02 -0.30531653910E+02 -0.58741073711E-01  0.36017011794E+02  0.47000000000E+01 0. -1.
        -13    1    4    4    0    0  0.13457137094E+02  0.72378142229E+02  0.11391252682E+02  0.74494635034E+02  0.00000000000E+00 0.  1.
         14    1    4    4    0    0  0.12213058421E+03  0.10356315116E+03 -0.37174141696E+02  0.16438711230E+03  0.00000000000E+00 0. -1.
         -5    1    5    5    0  502 -0.24609165930E+02  0.11622221893E+02  0.15757593195E+03  0.15997797167E+03  0.47000000000E+01 0.  1.
         13    1    6    6    0    0 -0.82206314762E+02 -0.12937111848E+03  0.24189637452E+03  0.28637147289E+03  0.00000000000E+00 0. -1.
        -14    1    6    6    0    0 -0.47291144408E+02 -0.27660742892E+02  0.29626293577E+02  0.62283916928E+02  0.00000000000E+00 0.  1.
</event>
<event>
12    1  0.8728348E-002  0.2041015E+03  0.7818608E-02  0.1147350E+00
         21   -1    0    0  503  502  0.00000000000E+00  0.00000000000E+00  0.89564590481E+02  0.89564590481E+02  0.00000000000E+00 0. -1.
         21   -1    0    0  501  503 -0.00000000000E+00 -0.00000000000E+00 -0.46097185004E+03  0.46097185004E+03  0.00000000000E+00 0. -1.
          6    2    1    2  501    0 -0.81477293599E+02  0.71706474509E+02 -0.21745054327E+03  0.29488026708E+03  0.16700079427E+03 0.  0.
         24    2    3    3    0    0  0.14062821464E+02  0.39938356959E+02 -0.63869025506E+02  0.11117806383E+03  0.80551065509E+02 0.  0.
         -6    2    1    2    0  502  0.81477293599E+02 -0.71706474509E+02 -0.15395671629E+03  0.25565617344E+03  0.17284976329E+03 0.  0.
        -24    2    5    5    0    0  0.95205655685E+02 -0.89133283215E+02 -0.17206326306E+03  0.22663723784E+03  0.68918880051E+02 0.  0.
          5    1    3    3  501    0 -0.95540115063E+02  0.31768117550E+02 -0.15358151776E+03  0.18370220324E+03  0.47000000000E+01 0. -1.
        -13    1    4    4    0    0  0.14464838346E+02 -0.21876517516E+02 -0.32792389044E+02  0.41989931486E+02  0.00000000000E+00 0.  1.
         14    1    4    4    0    0 -0.40201688175E+00  0.61814874475E+02 -0.31076636462E+02  0.69188132348E+02  0.00000000000E+00 0. -1.
         -5    1    5    5    0  502 -0.13728362086E+02  0.17426808707E+02  0.18106546777E+02  0.29018935602E+02  0.47000000000E+01 0.  1.
         11    1    6    6    0    0  0.77267341518E+02 -0.57966023043E+02 -0.72488457848E+02  0.12076786996E+03  0.00000000000E+00 0. -1.
        -12    1    6    6    0    0  0.17938314167E+02 -0.31167260173E+02 -0.99574805217E+02  0.10586936788E+03  0.00000000000E+00 0.  1.
</event>
<event>
12    1  0.8728348E-002  0.2333553E+03  0.7818608E-02  0.1124511E+00
         21   -1    0    0  501  502  0.00000000000E+00  0.00000000000E+00  0.42740874666E+03  0.42740874666E+03  0.00000000000E+00 0.  1.
         21   -1    0    0  502  503 -0.00000000000E+00 -0.00000000000E+00 -0.13797593400E+03  0.13797593400E+03  0.00000000000E+00 0.  1.
         -6    2    1    2    0  503 -0.11647740061E+03  0.10419775109E+03  0.22503050680E+03  0.32330546879E+03  0.17164947124E+03 0.  0.
        -24    2    3    3    0    0 -0.61638458968E+02 -0.47636975161E+00  0.51092557302E+02  0.11297125529E+03  0.79702751256E+02 0.  0.
          6    2    1    2  501    0  0.11647740061E+03 -0.10419775109E+03  0.64402305854E+02  0.24207921186E+03  0.17329319558E+03 0.  0.
         24    2    5    5    0    0  0.10500315526E+03 -0.12788380890E+03  0.90105527206E+02  0.20499237824E+03  0.80764707074E+02 0.  0.
          5    1    5    5  501    0  0.11474245343E+02  0.23686057806E+02 -0.25703221352E+02  0.37086833627E+02  0.47000000000E+01 0. -1.
        -11    1    6    6    0    0  0.99619142374E+02 -0.61436083949E+02  0.50681030676E+02  0.12754188649E+03  0.00000000000E+00 0.  1.
         12    1    6    6    0    0  0.53840128888E+01 -0.66447724948E+02  0.39424496530E+02  0.77450491749E+02  0.00000000000E+00 0. -1.
         -5    1    3    3    0  503 -0.54838941638E+02  0.10467412084E+03  0.17393794950E+03  0.21033421350E+03  0.47000000000E+01 0.  1.
         11    1    4    4    0    0  0.83594551146E+01  0.50476208681E+01  0.40864025864E+02  0.42014611459E+02  0.00000000000E+00 0. -1.
        -12    1    4    4    0    0 -0.69997914082E+02 -0.55239906197E+01  0.10228531439E+02  0.70956643830E+02  0.00000000000E+00 0.  1.
</event>
<event>
12    1  0.8728348E-002  0.2074221E+03  0.7818608E-02  0.1143935E+00
         21   -1    0    0  503  502  0.00000000000E+00  0.00000000000E+00  0.24477330670E+03  0.24477330670E+03  0.00000000000E+00 0.  1.
         21   -1    0    0  501  503 -0.00000000000E+00 -0.00000000000E+00 -0.31840278261E+03  0.31840278261E+03  0.00000000000E+00 0.  1.
          6    2    1    2  501    0 -0.69855065475E+02  0.92954691242E+02 -0.22606569883E+03  0.30576450705E+03  0.16989976100E+03 0.  0.
         24    2    3    3    0    0  0.25430532455E+01  0.40627777026E+02 -0.37393504166E+02  0.96961057403E+02  0.79662344385E+02 0.  0.
         -6    2    1    2    0  502  0.69855065475E+02 -0.92954691242E+02  0.15243622292E+03  0.25741158226E+03  0.17176616613E+03 0.  0.
        -24    2    5    5    0    0  0.11268650706E+03 -0.45030728256E+02  0.67353044397E+02  0.15067604045E+03  0.58658513598E+02 0.  0.
          5    1    3    3  501    0 -0.72398118720E+02  0.52326914216E+02 -0.18867219466E+03  0.20880344965E+03  0.47000000000E+01 0. -1.
        -13    1    4    4    0    0 -0.27893892918E+02 -0.11218495279E+01  0.70682744733E+01  0.28797366416E+02  0.00000000000E+00 0.  1.
         14    1    4    4    0    0  0.30436946163E+02  0.41749626554E+02 -0.44461778639E+02  0.68163690986E+02  0.00000000000E+00 0. -1.
         -5    1    5    5    0  502 -0.42831441582E+02 -0.47923962986E+02  0.85083178525E+02  0.10673554180E+03  0.47000000000E+01 0.  1.
         13    1    6    6    0    0  0.34719305662E+02 -0.49061257814E+01  0.50350041688E+02  0.61356555916E+02  0.00000000000E+00 0. -1.
        -14    1    6    6    0    0  0.77967201395E+02 -0.40124602474E+02  0.17003002708E+02  0.89319484538E+02  0.00000000000E+00 0.  1.
</event>
<event>
12    1  0.8728348E-002  0.1908669E+03  0.7818608E-02  0.1158164E+00
         21   -1    0    0  501  502  0.00000000000E+00  0.00000000000E+00  0.96325773853E+03  0.96325773853E+03  0.00000000000E+00 0.  1.
         21   -1    0    0  502  503 -0.00000000000E+00 -0.00000000000E+00 -0.38421337568E+02  0.38421337568E+02  0.00000000000E+00 0.  1.
         -6    2    1    2    0  503  0.69633189414E+02 -0.43028266339E+02  0.37812536137E+03  0.42260816913E+03  0.17005488210E+03 0.  0.
        -24    2    3    3    0    0  0.10474723141E+03 -0.31380301939E+02  0.34750704654E+03  0.37435630674E+03  0.86167227903E+02 0.  0.
          6    2    1    2  501    0 -0.69633189414E+02  0.43028266339E+02  0.54671103959E+03  0.57907090697E+03  0.17242372726E+03 0.  0.
         24    2    5    5    0    0 -0.97150330706E+02  0.66025183141E+02  0.32832052348E+03  0.35770569115E+03  0.79758910356E+02 0.  0.
          5    1    5    5  501    0  0.27517141292E+02 -0.22996916802E+02  0.21839051611E+03  0.22136521582E+03  0.47000000000E+01 0. -1.
        -13    1    6    6    0    0 -0.63397128377E+02  0.11622826718E+02  0.24074442211E+03  0.24922311844E+03  0.00000000000E+00 0.  1.
         14    1    6    6    0    0 -0.33753202329E+02  0.54402356423E+02  0.87576101369E+02  0.10848257271E+03  0.00000000000E+00 0. -1.
         -5    1    3    3    0  503 -0.35114042001E+02 -0.11647964400E+02  0.30618314831E+02  0.48251862383E+02  0.47000000000E+01 0.  1.
         13    1    4    4    0    0  0.41345454101E+01 -0.31849313351E+02  0.14141091039E+03  0.14501213329E+03  0.00000000000E+00 0. -1.
        -14    1    4    4    0    0  0.10061268600E+03  0.46901141180E+00  0.20609613616E+03  0.22934417345E+03  0.00000000000E+00 0.  1.
</event>
<event>
12    1  0.8728348E-002  0.1969414E+03  0.7818608E-02  0.1152778E+00
         21   -1    0    0  503  502  0.00000000000E+00  0.00000000000E+00  0.14740814426E+03  0.14740814426E+03  0.00000000000E+00 0. -1.
         21   -1    0    0  501  503 -0.00000000000E+00 -0.00000000000E+00 -0.11223165271E+04  0.11223165271E+04  0.00000000000E+00 0. -1.
          6    2    1    2  501    0 -0.65299106010E+02 -0.67017927362E+02 -0.10443709175E+04  0.10627777502E+04  0.17329326975E+03 0.  0.
         24    2    3    3    0    0 -0.50361747636E+02 -0.11080297484E+03 -0.66944704444E+03  0.68498117056E+03  0.78906614790E+02 0.  0.
         -6    2    1    2    0  502  0.65299106010E+02  0.67017927362E+02  0.69462534561E+02  0.20694692117E+03  0.17101639875E+03 0.  0.
        -24    2    5    5    0    0  0.94621680235E+02  0.10193759639E+02  0.67342097582E+02  0.14279564956E+03  0.82452800563E+02 0.  0.
          5    1    3    3  501    0 -0.14937358374E+02  0.43785047477E+02 -0.37492387301E+03  0.37779657967E+03  0.47000000000E+01 0. -1.
        -13    1    4    4    0    0 -0.13607951585E+02 -0.10172112777E+02 -0.17877268685E+02  0.24662622738E+02  0.00000000000E+00 0.  1.
         14    1    4    4    0    0 -0.36753796051E+02 -0.10063086206E+03 -0.65156977575E+03  0.66031854782E+03  0.00000000000E+00 0. -1.
         -5    1    5    5    0  502 -0.29322574225E+02  0.56824167723E+02  0.21204369788E+01  0.64151271613E+02  0.47000000000E+01 0.  1.
         13    1    6    6    0    0 -0.10150331783E+02  0.91141527675E+01  0.27501848499E+02  0.30699327140E+02  0.00000000000E+00 0. -1.
        -14    1    6    6    0    0  0.10477201202E+03  0.10796068710E+01  0.39840249083E+02  0.11209632242E+03  0.00000000000E+00 0.  1.
</event>
<event>
12    1  0.8728348E-002  0.1842121E+03  0.7818608E-02  0.1164146E+00
         21   -1    0    0  503  502  0.00000000000E+00  0.00000000000E+00  0.76226943350E+03  0.76226943350E+03  0.00000000000E+00 0. -1.
         21   -1    0    0  501  503 -0.00000000000E+00 -0.00000000000E+00 -0.90587016882E+02  0.90587016882E+02  0.00000000000E+00 0. -1.
          6    2    1    2  501    0 -0.18679614440E+02 -0.55857610775E+02  0.31209803642E+02  0.18683722985E+03  0.17454253905E+03 0.  0.
         24    2    3    3    0    0 -0.28215337549E+02  0.20519725241E+02  0.60013137095E+02  0.10451985932E+03  0.78138722616E+02 0.  0.
         -6    2    1    2    0  502  0.18679614440E+02  0.55857610775E+02  0.64047261298E+03  0.66601922054E+03  0.17293765776E+03 0.  0.
        -24    2    5    5    0    0  0.75698580598E+02  0.99553689426E+01  0.41115004341E+03  0.42525147099E+03  0.77233871527E+02 0.  0.
          5    1    3    3  501    0  0.95357231091E+01 -0.76377336016E+02 -0.28803333453E+02  0.82317370525E+02  0.47000000000E+01 0. -1.
        -11    1    4    4    0    0  0.18035512158E+02 -0.17273034612E+02  0.24746980119E+02  0.35157509134E+02  0.00000000000E+00 0.  1.
         12    1    4    4    0    0 -0.46250849707E+02  0.37792759853E+02  0.35266156976E+02  0.69362350189E+02  0.00000000000E+00 0. -1.
         -5    1    5    5    0  502 -0.57018966157E+02  0.45902241832E+02  0.22932256957E+03  0.24076774955E+03  0.47000000000E+01 0.  1.
         11    1    6    6    0    0  0.43925312850E+02  0.36971626435E+02  0.14673457839E+03  0.15756703578E+03  0.00000000000E+00 0. -1.
        -12    1    6    6    0    0  0.31773267748E+02 -0.27016257492E+02  0.26441546502E+03  0.26768443521E+03  0.00000000000E+00 0.  1.
</event>
<event>
12    1  0.8728348E-002  0.2772536E+03  0.7818608E-02  0.1097241E+00
         21   -1    0    0  501  502  0.00000000000E+00  0.00000000000E+00  0.26840446772E+04  0.26840446772E+04  0.00000000000E+00 0. -1.
         21   -1    0    0  502  503 -0.00000000000E+00 -0.00000000000E+00 -0.11659373980E+03  0.11659373980E+03  0.00000000000E+00 0. -1.
         -6    2    1    2    0  503 -0.80532328730E+02  0.20265873746E+03  0.67094374807E+02  0.28495710328E+03  0.17071284586E+03 0.  0.
        -24    2    3    3    0    0 -0.86138804793E+02  0.19459899991E+03  0.98891808299E+01  0.22672552971E+03  0.77575804650E+02 0.  0.
          6    2    1    2  501    0  0.80532328730E+02 -0.20265873746E+03  0.25003565626E+04  0.25156813138E+04  0.17121189296E+03 0.  0.
         24    2    5    5    0    0 -0.11084130492E+02 -0.31510087079E+02  0.10031385004E+04  0.10059232364E+04  0.66925055999E+02 0.  0.
          5    1    5    5  501    0  0.91616459221E+02 -0.17114865038E+03  0.14972180622E+04  0.15097580773E+04  0.47000000000E+01 0. -1.
        -11    1    6    6    0    0 -0.13242082256E+02 -0.35289055762E+02  0.25486000265E+03  0.25763208487E+03  0.00000000000E+00 0.  1.
         12    1    6    6    0    0  0.21579517640E+01  0.37789686839E+01  0.74827849774E+03  0.74829115158E+03  0.00000000000E+00 0. -1.
         -5    1    3    3    0  503  0.56064760633E+01  0.80597375494E+01  0.57205193977E+02  0.58231573576E+02  0.47000000000E+01 0.  1.
         13    1    4    4    0    0 -0.23732439586E+01  0.80924760948E+02 -0.17650419407E+02  0.82861248642E+02  0.00000000000E+00 0. -1.
        -14    1    4    4    0    0 -0.83765560834E+02  0.11367423896E+03  0.27539600237E+02  0.14386428106E+03  0.00000000000E+00 0.  1.
</event>
<event>
12    1  0.8728348E-002  0.1811000E+03  0.7818608E-02  0.1167068E+00
         21   -1    0    0  503  502  0.00000000000E+00  0.00000000000E+00  0.81562804788E+02  0.81562804788E+02  0.00000000000E+00 0.  1.
         21   -1    0    0  501  503 -0.00000000000E+00 -0.00000000000E+00 -0.40149541271E+03  0.40149541271E+03  0.00000000000E+00 0.  1.
          6    2    1    2  501    0  0.53458747692E+02  0.92574514291E+01 -0.17915855524E+03  0.25474496893E+03  0.17278215523E+03 0.  0.
         24    2    3    3    0    0 -0.60294037577E+01 -0.42631423187E+02 -0.55641717742E+02  0.10808279037E+03  0.82049356301E+02 0.  0.
         -6    2    1    2    0  502 -0.53458747692E+02 -0.92574514291E+01 -0.14077405268E+03  0.22831324857E+03  0.17136530411E+03 0.  0.
        -24    2    5    5    0    0  0.19633744364E+02 -0.16004574762E+02 -0.36623277178E+02  0.10080830708E+03  0.90440146025E+02 0.  0.
          5    1    3    3  501    0  0.59488151450E+02  0.51888874616E+02 -0.12351683750E+03  0.14666217855E+03  0.47000000000E+01 0. -1.
        -13    1    4    4    0    0  0.13829301861E+02  0.18563574967E+02 -0.32096272181E+02  0.39573053880E+02  0.00000000000E+00 0.  1.
         14    1    4    4    0    0 -0.19858705619E+02 -0.61194998154E+02 -0.23545445561E+02  0.68509736494E+02  0.00000000000E+00 0. -1.
         -5    1    5    5    0  502 -0.73092492056E+02  0.67471233327E+01 -0.10415077550E+03  0.12750494150E+03  0.47000000000E+01 0.  1.
         13    1    6    6    0    0  0.11195410644E+02  0.36952354010E+02 -0.60559812167E+01  0.39083098584E+02  0.00000000000E+00 0. -1.
        -14    1    6    6    0    0  0.84383337201E+01 -0.52956928772E+02 -0.30567295961E+02  0.61725208492E+02  0.00000000000E+00 0.  1.
</event>
<event>
12    1  0.8728348E-002  0.1876428E+03  0.7818608E-02  0.1160687E+00
         21   -1    0    0  503  502  0.00000000000E+00  0.00000000000E+00  0.10994528521E+04  0.10994528521E+04  0.00000000000E+00 0. -1.
         21   -1    0    0  501  503 -0.00000000000E+00 -0.00000000000E+00 -0.57556981353E+02  0.57556981353E+02  0.00000000000E+00 0. -1.
          6    2    1    2  501    0  0.73396993106E+02 -0.15012447400E+02  0.13546045403E+03  0.23142895240E+03  0.17203875503E+03 0.  0.
         24    2    3    3    0    0  0.11903911922E+03  0.13310188987E+01  0.80913507767E+02  0.15830049069E+03  0.65878419046E+02 0.  0.
         -6    2    1    2    0  502 -0.73396993106E+02  0.15012447400E+02  0.90643541671E+03  0.92558088104E+03  0.17164588695E+03 0.  0.
        -24    2    5    5    0    0 -0.10223471731E+03 -0.30741124408E+02  0.59541959646E+03  0.60986275657E+03  0.77531489442E+02 0.  0.
          5    1    3    3  501    0 -0.45642126115E+02 -0.16343466299E+02  0.54546946261E+02  0.73128461719E+02  0.47000000000E+01 0. -1.
        -11    1    4    4    0    0  0.67671967602E+02  0.21356269178E+02  0.74349545145E+02  0.10277859843E+03  0.00000000000E+00 0.  1.
         12    1    4    4    0    0  0.51367151619E+02 -0.20025250279E+02  0.65639626221E+01  0.55521892254E+02  0.00000000000E+00 0. -1.
         -5    1    5    5    0  502  0.28837724202E+02  0.45753571808E+02  0.31101582026E+03  0.31571812447E+03  0.47000000000E+01 0.  1.
         11    1    6    6    0    0 -0.16711817002E+02 -0.33440249558E+02  0.29939517665E+03  0.30172008040E+03  0.00000000000E+00 0. -1.
        -12    1    6    6    0    0 -0.85522900306E+02  0.26991251500E+01  0.29602441981E+03  0.30814267617E+03  0.00000000000E+00 0.  1.
</event>
<event>
12    1  0.8728348E-002  0.2011087E+03  0.7818608E-02  0.1149438E+00
         21   -1    0    0  503  502  0.00000000000E+00  0.00000000000E+00  0.13422167314E+04  0.13422167314E+04  0.00000000000E+00 0. -1.
         21   -1    0    0  501  503 -0.00000000000E+00 -0.00000000000E+00 -0.34874145940E+02  0.34874145940E+02  0.00000000000E+00 0. -1.
          6    2    1    2  501    0 -0.93990277724E+02  0.28704191954E+02  0.38393929894E+03  0.43204149711E+03  0.17202432100E+03 0.  0.
         24    2    3    3    0    0 -0.16447783198E+02  0.68529622815E+02  0.19698673988E+03  0.22571105161E+03  0.84704571054E+02 0.  0.
         -6    2    1    2    0  502  0.93990277724E+02 -0.28704191954E+02  0.92340328650E+03  0.94504938021E+03  0.17546110272E+03 0.  0.
        -24    2    5    5    0    0  0.61278753078E+02  0.23481042792E+02  0.80312971715E+03  0.80984152521E+03  0.80743472959E+02 0.  0.
          5    1    3    3  501    0 -0.77542494527E+02 -0.39825430861E+02  0.18695255906E+03  0.20633044550E+03  0.47000000000E+01 0. -1.
        -13    1    4    4    0    0 -0.45197391681E+02  0.39875155492E+02  0.15930436331E+03  0.17032531347E+03  0.00000000000E+00 0.  1.
         14    1    4    4    0    0  0.28749608483E+02  0.28654467324E+02  0.37682376569E+02  0.55385738141E+02  0.00000000000E+00 0. -1.
         -5    1    5    5    0  502  0.32711524646E+02 -0.52185234746E+02  0.12027356935E+03  0.13520785500E+03  0.47000000000E+01 0.  1.
         13    1    6    6    0    0  0.51981764349E+02 -0.94912787093E+01  0.67954881528E+03  0.68160016178E+03  0.00000000000E+00 0. -1.
        -14    1    6    6    0    0  0.92969887289E+01  0.32972321502E+02  0.12358090188E+03  0.12824136343E+03  0.00000000000E+00 0.  1.
</event>
<event>
12    1  0.8728348E-002  0.1895019E+03  0.7818608E-02  0.1159067E+00
         21   -1    0    0  503  502  0.00000000000E+00  0.00000000000E+00  0.58648960360E+02  0.58648960360E+02  0.00000000000E+00 0. -1.
         21   -1    0    0  501  503 -0.00000000000E+00 -0.00000000000E+00 -0.15402989289E+04  0.15402989289E+04  0.00000000000E+00 0.  1.
          6    2    1    2  501    0 -0.64424066654E+02 -0.46105144520E+02 -0.11900313617E+03  0.22318724262E+03  0.17139035602E+03 0.  0.
         24    2    3    3    0    0 -0.45015421862E+02 -0.88635048184E+01  0.50803401352E+01  0.92105457804E+02  0.79703548092E+02 0.  0.
         -6    2    1    2    0  502  0.64424066654E+02  0.46105144520E+02 -0.13626468324E+04  0.13757606467E+04  0.17214767597E+03 0.  0.
        -24    2    5    5    0    0  0.17654535832E+02  0.84399606597E+02 -0.63761828635E+03  0.64820148245E+03  0.78569119490E+02 0.  0.
          5    1    3    3  501    0 -0.19408644792E+02 -0.37241639701E+02 -0.12408347630E+03  0.13108178482E+03  0.47000000000E+01 0. -1.
        -13    1    4    4    0    0  0.25403350593E+01 -0.17446962009E+02 -0.28321507137E+02  0.33361018451E+02  0.00000000000E+00 0.  1.
         14    1    4    4    0    0 -0.47555756921E+02  0.85834571910E+01  0.33401847273E+02  0.58744439353E+02  0.00000000000E+00 0. -1.
         -5    1    5    5    0  502  0.46769530821E+02 -0.38294462077E+02 -0.72502854606E+03  0.72755916422E+03  0.47000000000E+01 0.  1.
         11    1    6    6    0    0  0.16397810467E+02  0.12726829208E+02 -0.30664876528E+02  0.37029650583E+02  0.00000000000E+00 0. -1.
        -12    1    6    6    0    0  0.12567253655E+01  0.71672777389E+02 -0.60695340982E+03  0.61117183187E+03  0.00000000000E+00 0.  1.
</event>
<event>
12    1  0.8728348E-002  0.2543724E+03  0.7818608E-02  0.1111747E+00
         21   -1    0    0  501  502  0.00000000000E+00  0.00000000000E+00  0.10117456866E+04  0.10117456866E+04  0.00000000000E+00 0. -1.
         21   -1    0    0  502  503 -0.00000000000E+00 -0.00000000000E+00 -0.63975803390E+02  0.63975803390E+02  0.00000000000E+00 0. -1.
         -6    2    1    2    0  503 -0.11713885258E+02  0.17720891441E+03  0.57314694880E+03  0.62705879277E+03  0.18211285022E+03 0.  0.
        -24    2    3    3    0    0 -0.71317102070E+02  0.80608359201E+02  0.37285705309E+03  0.39679298322E+03  0.82694938650E+02 0.  0.
          6    2    1    2  501    0  0.11713885258E+02 -0.17720891441E+03  0.37462293439E+03  0.44866269720E+03  0.17150993684E+03 0.  0.
         24    2    5    5    0    0 -0.53087929379E+00 -0.13632409960E+03  0.37318349298E+03  0.40570150155E+03  0.82117275620E+02 0.  0.
          5    1    5    5  501    0  0.12244764552E+02 -0.40884814801E+02  0.14394414017E+01  0.42961195652E+02  0.47000000000E+01 0. -1.
        -13    1    6    6    0    0  0.15553827854E+01  0.97681575063E+01  0.92822746313E+01  0.13564539764E+02  0.00000000000E+00 0.  1.
         14    1    6    6    0    0 -0.20862620792E+01 -0.14609225711E+03  0.36390121835E+03  0.39213696178E+03  0.00000000000E+00 0. -1.
         -5    1    3    3    0  503  0.59603216812E+02  0.96600555204E+02  0.20028989572E+03  0.23026580955E+03  0.47000000000E+01 0.  1.
         11    1    4    4    0    0 -0.50549714899E+02  0.67744197613E+02  0.14660869084E+03  0.16922960207E+03  0.00000000000E+00 0. -1.
        -12    1    4    4    0    0 -0.20767387171E+02  0.12864161589E+02  0.22624836225E+03  0.22756338116E+03  0.00000000000E+00 0.  1.
</event>
<event>
12    1  0.8728348E-002  0.2294803E+03  0.7818608E-02  0.1127119E+00
         21   -1    0    0  501  502  0.00000000000E+00  0.00000000000E+00  0.12052215789E+03  0.12052215789E+03  0.00000000000E+00 0.  1.
         21   -1    0    0  502  503 -0.00000000000E+00 -0.00000000000E+00 -0.44726046776E+03  0.44726046776E+03  0.00000000000E+00 0. -1.
         -6    2    1    2    0  503 -0.14606413192E+03  0.35848646371E+02 -0.20918911319E+03  0.31051781617E+03  0.17332447318E+03 0.  0.
        -24    2    3    3    0    0 -0.15986165585E+03  0.49430444412E+01 -0.21060922418E+03  0.27631789494E+03  0.80094638097E+02 0.  0.
          6    2    1    2  501    0  0.14606413192E+03 -0.35848646371E+02 -0.11754919667E+03  0.25726480948E+03  0.17247467199E+03 0.  0.
         24    2    5    5    0    0  0.10051041197E+03 -0.29878957377E+01 -0.25884325014E+01  0.12922951109E+03  0.81131351028E+02 0.  0.
          5    1    5    5  501    0  0.45553719952E+02 -0.32860750633E+02 -0.11496076417E+03  0.12803529839E+03  0.47000000000E+01 0. -1.
        -13    1    6    6    0    0  0.64893719743E+02 -0.77127031459E+01 -0.40591863951E+02  0.76931008513E+02  0.00000000000E+00 0.  1.
         14    1    6    6    0    0  0.35616692224E+02  0.47248074082E+01  0.38003431450E+02  0.52298502579E+02  0.00000000000E+00 0. -1.
         -5    1    3    3    0  503  0.13797523933E+02  0.30905601930E+02  0.14201109911E+01  0.34199921236E+02  0.47000000000E+01 0.  1.
         11    1    4    4    0    0 -0.79646555074E+02  0.34947229911E+02 -0.14227223765E+03  0.16675212808E+03  0.00000000000E+00 0. -1.
        -12    1    4    4    0    0 -0.80215100778E+02 -0.30004185470E+02 -0.68336986532E+02  0.10956576686E+03  0.00000000000E+00 0.  1.
</event>
<event>
12    1  0.8728348E-002  0.2580516E+03  0.7818608E-02  0.1110682E+00
         21   -1    0    0  501  502  0.00000000000E+00  0.00000000000E+00  0.49821669617E+03  0.49821669617E+03  0.00000000000E+00 0. -1.
         21   -1    0    0  502  503 -0.00000000000E+00 -0.00000000000E+00 -0.17227386237E+03  0.17227386237E+03  0.00000000000E+00 0. -1.
         -6    2    1    2    0  503 -0.12088452995E+03 -0.12628484012E+03 -0.14380465175E+02  0.24339507687E+03  0.16874073379E+03 0.  0.
        -24    2    3    3    0    0 -0.14825583698E+03 -0.11280504307E+03 -0.35200663472E+02  0.20615982430E+03  0.80981575096E+02 0.  0.
          6    2    1    2  501    0  0.12088452995E+03  0.12628484012E+03  0.34032329897E+03  0.42709548168E+03  0.18981483667E+03 0.  0.
         24    2    5    5    0    0  0.21705243771E+02 -0.16760260441E+02  0.11105447029E+03  0.13919842124E+03  0.79316336071E+02 0.  0.
          5    1    5    5  501    0  0.99179286181E+02  0.14304510056E+03  0.22926882869E+03  0.28789706044E+03  0.47000000000E+01 0. -1.
        -13    1    6    6    0    0  0.19197618474E+02 -0.12373743810E+02 -0.47127586418E+01  0.23320981647E+02  0.00000000000E+00 0.  1.
         14    1    6    6    0    0  0.25076252972E+01 -0.43865166314E+01  0.11576722893E+03  0.11587743959E+03  0.00000000000E+00 0. -1.
         -5    1    3    3    0  503  0.27371307026E+02 -0.13479797048E+02  0.20820198297E+02  0.37235252570E+02  0.47000000000E+01 0.  1.
         11    1    4    4    0    0 -0.13506136887E+02  0.84676210326E+01 -0.18024130016E+02  0.24062119657E+02  0.00000000000E+00 0. -1.
        -12    1    4    4    0    0 -0.13474970009E+03 -0.12127266411E+03 -0.17176533456E+02  0.18209770464E+03  0.00000000000E+00 0.  1.
</event>
<event>
12    1  0.8728348E-002  0.1948312E+03  0.7818608E-02  0.1154836E+00
         21   -1    0    0  501  502  0.00000000000E+00  0.00000000000E+00  0.26613212089E+03  0.26613212089E+03  0.00000000000E+00 0.  1.
         21   -1    0    0  502  503 -0.00000000000E+00 -0.00000000000E+00 -0.16684331145E+03  0.16684331145E+03  0.00000000000E+00 0.  1.
         -6    2    1    2    0  503  0.83178792618E+02 -0.33674689831E+02 -0.36149179413E+02  0.19815638534E+03  0.17293494038E+03 0.  0.
        -24    2    3    3    0    0  0.20665504760E+02 -0.92354961379E+02 -0.18245874094E+02  0.11044148485E+03  0.53925019014E+02 0.  0.
          6    2    1    2  501    0 -0.83178792618E+02  0.33674689831E+02  0.13543798885E+03  0.23481904699E+03  0.16954008295E+03 0.  0.
         24    2    5    5    0    0 -0.88133456547E+02 -0.33148879754E+02  0.10274655927E+03  0.16011457781E+03  0.78825555462E+02 0.  0.
          5    1    5    5  501    0  0.49546639290E+01  0.66823569585E+02  0.32691429580E+02  0.74704469175E+02  0.47000000000E+01 0. -1.
        -13    1    6    6    0    0 -0.35593775879E+02  0.55493862905E+01 -0.26847816418E+01  0.36123685056E+02  0.00000000000E+00 0.  1.
         14    1    6    6    0    0 -0.52539680668E+02 -0.38698266045E+02  0.10543134092E+03  0.12399089276E+03  0.00000000000E+00 0. -1.
         -5    1    3    3    0  503  0.62513287858E+02  0.58680271548E+02 -0.17903305320E+02  0.87714900497E+02  0.47000000000E+01 0.  1.
         11    1    4    4    0    0  0.17806062927E+02 -0.83017446563E+02 -0.34363800602E+02  0.91595977546E+02  0.00000000000E+00 0. -1.
        -12    1    4    4    0    0  0.28594418326E+01 -0.93375148159E+01  0.16117926508E+02  0.18845507302E+02  0.00000000000E+00 0.  1.
</event>
<event>
12    1  0.8728348E-002  0.1856066E+03  0.7818608E-02  0.1162630E+00
         21   -1    0    0  501  502  0.00000000000E+00  0.00000000000E+00  0.83150711010E+03  0.83150711010E+03  0.00000000000E+00 0.  1.
         21   -1    0    0  502  503 -0.00000000000E+00 -0.00000000000E+00 -0.41538877167E+02  0.41538877167E+02  0.00000000000E+00 0. -1.
         -6    2    1    2    0  503 -0.27230688155E+02  0.60114788062E+02  0.42799065270E+03  0.46625661666E+03  0.17281185046E+03 0.  0.
        -24    2    3    3    0    0 -0.41405440223E+02 -0.25836547665E+02  0.16426771516E+03  0.18847894748E+03  0.78476071027E+02 0.  0.
          6    2    1    2  501    0  0.27230688155E+02 -0.60114788062E+02  0.36197758023E+03  0.40678937061E+03  0.17347773727E+03 0.  0.
         24    2    5    5    0    0 -0.97428880389E+01 -0.10156536396E+03  0.26521706894E+03  0.29512074420E+03  0.79659983524E+02 0.  0.
          5    1    5    5  501    0  0.36973576194E+02  0.41450575896E+02  0.96760511288E+02  0.11166862641E+03  0.47000000000E+01 0. -1.
        -13    1    6    6    0    0 -0.48065317584E+01 -0.51856134133E+02  0.22511885788E+03  0.23106419361E+03  0.00000000000E+00 0.  1.
         14    1    6    6    0    0 -0.49363562805E+01 -0.49709229825E+02  0.40098211062E+02  0.64056550590E+02  0.00000000000E+00 0. -1.
         -5    1    3    3    0  503  0.14174752068E+02  0.85951335728E+02  0.26372293754E+03  0.27777766918E+03  0.47000000000E+01 0.  1.
         13    1    4    4    0    0  0.84326874301E+01 -0.39455374086E+02  0.80838962712E+02  0.90348074987E+02  0.00000000000E+00 0. -1.
        -14    1    4    4    0    0 -0.49838127653E+02  0.13618826420E+02  0.83428752443E+02  0.98130872488E+02  0.00000000000E+00 0.  1.
</event>
<event>
12    1  0.8728348E-002  0.2161366E+03  0.7818608E-02  0.1136957E+00
         21   -1    0    0  501  502  0.00000000000E+00  0.00000000000E+00  0.79002805354E+03  0.79002805354E+03  0.00000000000E+00 0.  1.
         21   -1    0    0  502  503 -0.00000000000E+00 -0.00000000000E+00 -0.60027012074E+02  0.60027012074E+02  0.00000000000E+00 0. -1.
         -6    2    1    2    0  503  0.39297896586E+02  0.12260972171E+03  0.30609173581E+03  0.37422512708E+03  0.17255383644E+03 0.  0.
        -24    2    3    3    0    0  0.64432811865E+02  0.66644000983E+02  0.28404427431E+03  0.30886377442E+03  0.78247500079E+02 0.  0.
          6    2    1    2  501    0 -0.39297896586E+02 -0.12260972171E+03  0.42390930565E+03  0.47582993853E+03  0.17360173517E+03 0.  0.
         24    2    5    5    0    0 -0.57279363278E+02 -0.76052281022E+02  0.40796941530E+03  0.42322672065E+03  0.60140987187E+02 0.  0.
          5    1    5    5  501    0  0.17981466692E+02 -0.46557440689E+02  0.15939890349E+02  0.52603217888E+02  0.47000000000E+01 0. -1.
        -13    1    6    6    0    0 -0.29345129552E+02  0.21004915472E+01  0.11815299023E+03  0.12176073996E+03  0.00000000000E+00 0.  1.
         14    1    6    6    0    0 -0.27934233726E+02 -0.78152772569E+02  0.28981642507E+03  0.30146598069E+03  0.00000000000E+00 0. -1.
         -5    1    3    3    0  503 -0.25134915279E+02  0.55965720728E+02  0.22047461503E+02  0.65361352659E+02  0.47000000000E+01 0.  1.
         13    1    4    4    0    0 -0.58216259586E+01 -0.50345185179E+01  0.90653680400E+02  0.90979819057E+02  0.00000000000E+00 0. -1.
        -14    1    4    4    0    0  0.70254437824E+02  0.71678519501E+02  0.19339059391E+03  0.21788395536E+03  0.00000000000E+00 0.  1.
</event>
<event>
12    1  0.8728348E-002  0.2016335E+03  0.7818608E-02  0.1148422E+00
         21   -1    0    0  503  502  0.00000000000E+00  0.00000000000E+00  0.16695391509E+03  0.16695391509E+03  0.00000000000E+00 0. -1.
         21   -1    0    0  501  503 -0.00000000000E+00 -0.00000000000E+00 -0.30673592992E+03  0.30673592992E+03  0.00000000000E+00 0.  1.
          6    2    1    2  501    0 -0.27952423861E+02  0.10069260509E+03 -0.17764476473E+03  0.26853221284E+03  0.17213816595E+03 0.  0.
         24    2    3    3    0    0 -0.28275460539E+02  0.11133110687E+03 -0.19974472356E+03  0.24355661969E+03  0.78916128769E+02 0.  0.
         -6    2    1    2    0  502  0.27952423861E+02 -0.10069260509E+03  0.37862749902E+02  0.20515763216E+03  0.17244050419E+03 0.  0.
        -24    2    5    5    0    0  0.69191097686E+02 -0.24324019147E+02  0.37227613223E+02  0.11823650391E+03  0.84940624937E+02 0.  0.
          5    1    3    3  501    0  0.32303667755E+00 -0.10638501783E+02  0.22099958828E+02  0.24975593148E+02  0.47000000000E+01 0. -1.
        -11    1    4    4    0    0  0.25320109378E+02  0.58742145657E+02 -0.83848996972E+02  0.10546279870E+03  0.00000000000E+00 0.  1.
         12    1    4    4    0    0 -0.53595569917E+02  0.52588961215E+02 -0.11589572659E+03  0.13809382100E+03  0.00000000000E+00 0. -1.
         -5    1    5    5    0  502 -0.41238673824E+02 -0.76368585943E+02  0.63513667949E+00  0.86921128251E+02  0.47000000000E+01 0.  1.
         11    1    6    6    0    0  0.24934438084E+00 -0.39476997951E+02  0.24637956997E+02  0.46535195979E+02  0.00000000000E+00 0. -1.
        -12    1    6    6    0    0  0.68941753305E+02  0.15152978804E+02  0.12589656225E+02  0.71701307933E+02  0.00000000000E+00 0.  1.
</event>
<event>
12    1  0.8728348E-002  0.2462661E+03  0.7818608E-02  0.1116693E+00
         21   -1    0    0  503  502  0.00000000000E+00  0.00000000000E+00  0.43621007442E+03  0.43621007442E+03  0.00000000000E+00 0.  1.
         21   -1    0    0  501  503 -0.00000000000E+00 -0.00000000000E+00 -0.14236649833E+03  0.14236649833E+03  0.00000000000E+00 0. -1.
          6    2    1    2  501    0 -0.10175361832E+03 -0.13701019251E+03  0.85525795901E+02  0.26069453762E+03  0.17754263851E+03 0.  0.
         24    2    3    3    0    0 -0.10988204051E+03 -0.35062542575E+02  0.69979593074E+02  0.15714180228E+03  0.80578892144E+02 0.  0.
         -6    2    1    2    0  502  0.10175361832E+03  0.13701019251E+03  0.20831778019E+03  0.31788203513E+03  0.16889967147E+03 0.  0.
        -24    2    5    5    0    0  0.14166300925E+02  0.51518407492E+02  0.16009219890E+03  0.18624548943E+03  0.78759379075E+02 0.  0.
          5    1    3    3  501    0  0.81284221875E+01 -0.10194764993E+03  0.15546202827E+02  0.10355273534E+03  0.47000000000E+01 0. -1.
        -13    1    4    4    0    0 -0.45457277248E+02 -0.29603593630E+02  0.74694252326E+02  0.92314506667E+02  0.00000000000E+00 0.  1.
         14    1    4    4    0    0 -0.64424763259E+02 -0.54589489447E+01 -0.47146592521E+01  0.64827295613E+02  0.00000000000E+00 0. -1.
         -5    1    5    5    0  502  0.87587317394E+02  0.85491785013E+02  0.48225581298E+02  0.13163654570E+03  0.47000000000E+01 0.  1.
         13    1    6    6    0    0 -0.10007552012E+02  0.52690605933E+02  0.49327048701E+02  0.72867062411E+02  0.00000000000E+00 0. -1.
        -14    1    6    6    0    0  0.24173852937E+02 -0.11721984408E+01  0.11076515020E+03  0.11337842702E+03  0.00000000000E+00 0.  1.
</event>
<event>
12    1  0.8728348E-002  0.2383633E+03  0.7818608E-02  0.1121028E+00
         21   -1    0    0  501  502  0.00000000000E+00  0.00000000000E+00  0.37018982006E+03  0.37018982006E+03  0.00000000000E+00 0.  1.
         21   -1    0    0  502  503 -0.00000000000E+00 -0.00000000000E+00 -0.19964463042E+03  0.19964463042E+03  0.00000000000E+00 0. -1.
         -6    2    1    2    0  503  0.12050676696E+03 -0.11273931109E+03 -0.52409759162E+02  0.24405709418E+03  0.17200305002E+03 0.  0.
        -24    2    3    3    0    0 -0.28565740645E+01 -0.50404299673E+02  0.41926050985E+01  0.94624550212E+02  0.79921674935E+02 0.  0.
          6    2    1    2  501    0 -0.12050676696E+03  0.11273931109E+03  0.22295494881E+03  0.32577735630E+03  0.17085064686E+03 0.  0.
         24    2    5    5    0    0 -0.63181729103E+02  0.14035633753E+03  0.16247445183E+03  0.23786353128E+03  0.80556065204E+02 0.  0.
          5    1    5    5  501    0 -0.57325037855E+02 -0.27617026436E+02  0.60480496982E+02  0.87913825019E+02  0.47000000000E+01 0. -1.
        -13    1    6    6    0    0 -0.65445372340E+02  0.59159769240E+02  0.11063565009E+03  0.14150343504E+03  0.00000000000E+00 0.  1.
         14    1    6    6    0    0  0.22636432372E+01  0.81196568285E+02  0.51838801735E+02  0.96360096240E+02  0.00000000000E+00 0. -1.
         -5    1    3    3    0  503  0.12336334102E+03 -0.62335011416E+02 -0.56602364261E+02  0.14943254397E+03  0.47000000000E+01 0.  1.
         11    1    4    4    0    0 -0.40156430091E+02 -0.14318165636E+02  0.18314956953E+01  0.42672041447E+02  0.00000000000E+00 0. -1.
        -12    1    4    4    0    0  0.37299856026E+02 -0.36086134037E+02  0.23611094033E+01  0.51952508765E+02  0.00000000000E+00 0.  1.
</event>
<event>
12    1  0.8728348E-002  0.1927459E+03  0.7818608E-02  0.1156907E+00
         21   -1    0    0  503  502  0.00000000000E+00  0.00000000000E+00  0.12511557215E+03  0.12511557215E+03  0.00000000000E+00 0. -1.
         21   -1    0    0  501  503 -0.00000000000E+00 -0.00000000000E+00 -0.33035548034E+03  0.33035548034E+03  0.00000000000E+00 0.  1.
          6    2    1    2  501    0  0.75497621288E+02 -0.43648025406E+02 -0.24748738650E+02  0.19432826345E+03  0.17188930440E+03 0.  0.
         24    2    3    3    0    0 -0.85882313361E+01  0.17365484808E+02  0.13806027969E+02  0.83415509133E+02  0.79951378822E+02 0.  0.
         -6    2    1    2    0  502 -0.75497621288E+02  0.43648025406E+02 -0.18049116954E+03  0.26114278905E+03  0.16737219915E+03 0.  0.
        -24    2    5    5    0    0 -0.11199064313E+03  0.18795524975E+02 -0.10454379263E+03  0.17316846620E+03  0.78503103121E+02 0.  0.
          5    1    3    3  501    0  0.84085852624E+02 -0.61013510214E+02 -0.38554766619E+02  0.11091275431E+03  0.47000000000E+01 0. -1.
        -11    1    4    4    0    0 -0.10687190153E+02 -0.30607046570E+02 -0.29603417696E+01  0.32554123494E+02  0.00000000000E+00 0.  1.
         12    1    4    4    0    0  0.20989588166E+01  0.47972531377E+02  0.16766369739E+02  0.50861385639E+02  0.00000000000E+00 0. -1.
         -5    1    5    5    0  502  0.36493021846E+02  0.24852500431E+02 -0.75947376906E+02  0.87974322845E+02  0.47000000000E+01 0.  1.
         11    1    6    6    0    0 -0.29734516430E+02  0.42770445944E+02 -0.44932985981E+02  0.68792628550E+02  0.00000000000E+00 0. -1.
        -12    1    6    6    0    0 -0.82256126704E+02 -0.23974920969E+02 -0.59610806652E+02  0.10437583765E+03  0.00000000000E+00 0.  1.
</event>
<event>
12    1  0.8728348E-002  0.2058528E+03  0.7818608E-02  0.1145743E+00
         21   -1    0    0  501  502  0.00000000000E+00  0.00000000000E+00  0.12859737179E+04  0.12859737179E+04  0.00000000000E+00 0.  1.
         21   -1    0    0  502  503 -0.00000000000E+00 -0.00000000000E+00 -0.76434788192E+02  0.76434788192E+02  0.00000000000E+00 0.  1.
         -6    2    1    2    0  503 -0.24517358346E+01  0.10538737616E+03  0.84509276715E+02  0.21870089775E+03  0.17197602962E+03 0.  0.
        -24    2    3    3    0    0  0.79365589888E+01  0.10696620964E+03  0.11933141695E+03  0.18202555406E+03  0.85956711714E+02 0.  0.
          6    2    1    2  501    0  0.24517358346E+01 -0.10538737616E+03  0.11250296530E+04  0.11437076083E+04  0.17681307415E+03 0.  0.
         24    2    5    5    0    0 -0.11879276285E+02  0.84735664183E+01  0.28893751567E+03  0.29976338965E+03  0.78487472141E+02 0.  0.
          5    1    5    5  501    0  0.14331012119E+02 -0.11386094258E+03  0.83609213729E+03  0.84394421865E+03  0.47000000000E+01 0. -1.
        -13    1    6    6    0    0 -0.12736976432E+02 -0.22628964457E+02  0.24237380128E+03  0.24376086673E+03  0.00000000000E+00 0.  1.
         14    1    6    6    0    0  0.85770014780E+00  0.31102530876E+02  0.46563714390E+02  0.56002522927E+02  0.00000000000E+00 0. -1.
         -5    1    3    3    0  503 -0.10388294823E+02 -0.15788334722E+01 -0.34822140233E+02  0.36675343691E+02  0.47000000000E+01 0.  1.
         11    1    4    4    0    0 -0.23279850077E+02  0.10337976767E+03  0.89701368981E+02  0.13883682285E+03  0.00000000000E+00 0. -1.
        -12    1    4    4    0    0  0.31216409065E+02  0.35864419653E+01  0.29630047967E+02  0.43188731209E+02  0.00000000000E+00 0.  1.
</event>
<event>
12    1  0.8728348E-002  0.2182478E+03  0.7818608E-02  0.1137012E+00
         21   -1    0    0  501  502  0.00000000000E+00  0.00000000000E+00  0.55119701423E+03  0.55119701423E+03  0.00000000000E+00 0.  1.
         21   -1    0    0  502  503 -0.00000000000E+00 -0.00000000000E+00 -0.14302378189E+03  0.14302378189E+03  0.00000000000E+00 0.  1.
         -6    2    1    2    0  503 -0.11626361359E+03 -0.24203950866E+02 -0.23861789641E+02  0.21018942843E+03  0.17177645863E+03 0.  0.
        -24    2    3    3    0    0 -0.63166447193E+02  0.28164646179E+02  0.42522516071E+02  0.11023571374E+03  0.74568766020E+02 0.  0.
          6    2    1    2  501    0  0.11626361359E+03  0.24203950866E+02  0.43203502198E+03  0.48403136769E+03  0.18310938153E+03 0.  0.
         24    2    5    5    0    0  0.90324271536E+02 -0.13871066529E+02  0.41950895761E+03  0.43605690881E+03  0.76203554327E+02 0.  0.
          5    1    5    5  501    0  0.25939342054E+02  0.38075017395E+02  0.12526064373E+02  0.47974458877E+02  0.47000000000E+01 0. -1.
        -13    1    6    6    0    0  0.64728670828E+01  0.82422845726E+01  0.19652298637E+03  0.19680222924E+03  0.00000000000E+00 0.  1.
         14    1    6    6    0    0  0.83851404453E+02 -0.22113351102E+02  0.22298597124E+03  0.23925467957E+03  0.00000000000E+00 0. -1.
         -5    1    3    3    0  503 -0.53097166397E+02 -0.52368597045E+02 -0.66384305712E+02  0.99953714692E+02  0.47000000000E+01 0.  1.
         11    1    4    4    0    0 -0.29959001908E+02  0.25846929051E+02 -0.16182906380E+02  0.42749175379E+02  0.00000000000E+00 0. -1.
        -12    1    4    4    0    0 -0.33207445284E+02  0.23177171288E+01  0.58705422451E+02  0.67486538362E+02  0.00000000000E+00 0.  1.
</event>
<event>
12    1  0.8728348E-002  0.1871637E+03  0.7818608E-02  0.1161381E+00
         21   -1    0    0  503  502  0.00000000000E+00  0.00000000000E+00  0.26885703691E+03  0.26885703691E+03  0.00000000000E+00 0. -1.
         21   -1    0    0  501  503 -0.00000000000E+00 -0.00000000000E+00 -0.18237959290E+03  0.18237959290E+03  0.00000000000E+00 0. -1.
          6    2    1    2  501    0 -0.62517824970E+02 -0.34776379255E+02 -0.78617742929E+02  0.20166361525E+03  0.17137557942E+03 0.  0.
         24    2    3    3    0    0 -0.51659930968E+02  0.44425187171E+02 -0.29401321451E+02  0.10766825297E+03  0.78010699733E+02 0.  0.
         -6    2    1    2    0  502  0.62517824970E+02  0.34776379255E+02  0.16509518694E+03  0.24957301457E+03  0.17295199871E+03 0.  0.
        -24    2    5    5    0    0  0.99184591494E+02  0.54941447606E+02  0.93933577759E+02  0.16688597586E+03  0.78557406102E+02 0.  0.
          5    1    3    3  501    0 -0.10857894002E+02 -0.79201566426E+02 -0.49216421478E+02  0.93995362277E+02  0.47000000000E+01 0. -1.
        -13    1    4    4    0    0  0.68661731223E+01  0.30044921157E+02  0.13545342723E+02  0.33664787689E+02  0.00000000000E+00 0.  1.
         14    1    4    4    0    0 -0.58526104090E+02  0.14380266014E+02 -0.42946664174E+02  0.74003465286E+02  0.00000000000E+00 0. -1.
         -5    1    5    5    0  502 -0.36666766524E+02 -0.20165068351E+02  0.71161609181E+02  0.82687038707E+02  0.47000000000E+01 0.  1.
         13    1    6    6    0    0  0.57862296584E+02 -0.11672185638E+02  0.47584029961E+02  0.75819029214E+02  0.00000000000E+00 0. -1.
        -14    1    6    6    0    0  0.41322294910E+02  0.66613633244E+02  0.46349547798E+02  0.91066946647E+02  0.00000000000E+00 0.  1.
</event>
<event>
12    1  0.8728348E-002  0.2136646E+03  0.7818608E-02  0.1138902E+00
         21   -1    0    0  501  502  0.00000000000E+00  0.00000000000E+00  0.10511379443E+03  0.10511379443E+03  0.00000000000E+00 0.  1.
         21   -1    0    0  502  503 -0.00000000000E+00 -0.00000000000E+00 -0.43290842419E+03  0.43290842419E+03  0.00000000000E+00 0.  1.
         -6    2    1    2    0  503  0.10008523047E+03  0.77020191288E+02 -0.15238498481E+03  0.26157856315E+03  0.17103507792E+03 0.  0.
        -24    2    3    3    0    0  0.57077118833E+02  0.64549988083E+01 -0.12596525404E+02  0.99122269214E+02  0.79794030466E+02 0.  0.
          6    2    1    2  501    0 -0.10008523047E+03 -0.77020191288E+02 -0.17540964494E+03  0.27644365547E+03  0.17234670838E+03 0.  0.
         24    2    5    5    0    0 -0.11778224233E+03 -0.63248521338E+02 -0.19228814417E+03  0.24798637418E+03  0.81544339664E+02 0.  0.
          5    1    5    5  501    0  0.17697011864E+02 -0.13771669951E+02  0.16878499229E+02  0.28457281289E+02  0.47000000000E+01 0. -1.
        -11    1    6    6    0    0 -0.64428176095E+02 -0.66764605317E+02 -0.75786015651E+02  0.11979992724E+03  0.00000000000E+00 0.  1.
         12    1    6    6    0    0 -0.53354066238E+02  0.35160839789E+01 -0.11650212852E+03  0.12818644694E+03  0.00000000000E+00 0. -1.
         -5    1    3    3    0  503  0.43008111636E+02  0.70565192480E+02 -0.13978845941E+03  0.16245629394E+03  0.47000000000E+01 0.  1.
         13    1    4    4    0    0  0.47047533316E+02 -0.29337328139E+02 -0.23744699920E+02  0.60315503710E+02  0.00000000000E+00 0. -1.
        -14    1    4    4    0    0  0.10029585517E+02  0.35792326947E+02  0.11148174516E+02  0.38806765505E+02  0.00000000000E+00 0.  1.
</event>
<event>
12    1  0.8728348E-002  0.1774826E+03  0.7818608E-02  0.1170396E+00
         21   -1    0    0  503  502  0.00000000000E+00  0.00000000000E+00  0.90714619370E+02  0.90714619370E+02  0.00000000000E+00 0.  1.
         21   -1    0    0  501  503 -0.00000000000E+00 -0.00000000000E+00 -0.55634198786E+03  0.55634198786E+03  0.00000000000E+00 0. -1.
          6    2    1    2  501    0  0.11105890888E+02 -0.40097833534E+02 -0.43143796222E+03  0.46631099920E+03  0.17197690446E+03 0.  0.
         24    2    3    3    0    0  0.39451695310E+02  0.35228559974E+02 -0.21245999008E+03  0.23296363481E+03  0.79594723813E+02 0.  0.
         -6    2    1    2    0  502 -0.11105890888E+02  0.40097833534E+02 -0.34189406267E+02  0.18074560802E+03  0.17253661134E+03 0.  0.
        -24    2    5    5    0    0  0.72190157618E+01  0.43066926197E+02  0.44360968930E+02  0.99894701047E+02  0.78129260922E+02 0.  0.
          5    1    3    3  501    0 -0.28345804423E+02 -0.75326393507E+02 -0.21897797214E+03  0.23334736439E+03  0.47000000000E+01 0. -1.
        -11    1    4    4    0    0  0.47665782066E+02 -0.99243831255E+01 -0.92640734490E+02  0.10465574923E+03  0.00000000000E+00 0.  1.
         12    1    4    4    0    0 -0.82140867553E+01  0.45152943099E+02 -0.11981925559E+03  0.12830788558E+03  0.00000000000E+00 0. -1.
         -5    1    5    5    0  502 -0.18324906649E+02 -0.29690926627E+01 -0.78550375198E+02  0.80850906975E+02  0.47000000000E+01 0.  1.
         13    1    6    6    0    0 -0.94477979296E+01  0.24881068506E+02 -0.18469513582E+02  0.32395237114E+02  0.00000000000E+00 0. -1.
        -14    1    6    6    0    0  0.16666813691E+02  0.18185857690E+02  0.62830482512E+02  0.67499463933E+02  0.00000000000E+00 0.  1.
</event>
<event>
12    1  0.8728348E-002  0.1976390E+03  0.7818608E-02  0.1151908E+00
         21   -1    0    0  503  502  0.00000000000E+00  0.00000000000E+00  0.23439350843E+03  0.23439350843E+03  0.00000000000E+00 0. -1.
         21   -1    0    0  501  503 -0.00000000000E+00 -0.00000000000E+00 -0.17832481253E+03  0.17832481253E+03  0.00000000000E+00 0. -1.
          6    2    1    2  501    0 -0.79691702999E+02  0.55963070924E+02 -0.26133651746E+02  0.19935934080E+03  0.17198414513E+03 0.  0.
         24    2    3    3    0    0 -0.24239423864E+02  0.96405036307E+02  0.99632301231E+01  0.12167032802E+03  0.69447261080E+02 0.  0.
         -6    2    1    2    0  502  0.79691702999E+02 -0.55963070924E+02  0.82202347639E+02  0.21335898016E+03  0.17112041265E+03 0.  0.
        -24    2    5    5    0    0  0.92203393848E+02 -0.40331051422E+02  0.11510816942E+03  0.17455452747E+03  0.84210051943E+02 0.  0.
          5    1    3    3  501    0 -0.55452279135E+02 -0.40441965383E+02 -0.36096881869E+02  0.77689012775E+02  0.47000000000E+01 0. -1.
        -11    1    4    4    0    0 -0.36323013803E+02  0.75642504831E+02  0.31281176714E+02  0.89552564929E+02  0.00000000000E+00 0.  1.
         12    1    4    4    0    0  0.12083589939E+02  0.20762531476E+02 -0.21317946591E+02  0.32117763091E+02  0.00000000000E+00 0. -1.
         -5    1    5    5    0  502 -0.12511690849E+02 -0.15632019502E+02 -0.32905821778E+02  0.38804452689E+02  0.47000000000E+01 0.  1.
         13    1    6    6    0    0  0.71273570127E+02 -0.23866692370E+02  0.22894644772E+02  0.78572931488E+02  0.00000000000E+00 0. -1.
        -14    1    6    6    0    0  0.20929823721E+02 -0.16464359052E+02  0.92213524646E+02  0.95981595984E+02  0.00000000000E+00 0.  1.
</event>
<event>
12    1  0.8728348E-002  0.1708171E+03  0.7818608E-02  0.1178962E+00
         21   -1    0    0  501  502  0.00000000000E+00  0.00000000000E+00  0.76066196494E+03  0.76066196494E+03  0.00000000000E+00 0.  1.
         21   -1    0    0  502  503 -0.00000000000E+00 -0.00000000000E+00 -0.41693516913E+02  0.41693516913E+02  0.00000000000E+00 0.  1.
         -6    2    1    2    0  503 -0.36077341132E+01 -0.10336992593E+02  0.49106870692E+03  0.51754538819E+03  0.16304871897E+03 0.  0.
        -24    2    3    3    0    0  0.50118816558E+02  0.22696337718E+02  0.35939103536E+03  0.37146718193E+03  0.76150715231E+02 0.  0.
          6    2    1    2  501    0  0.36077341132E+01  0.10336992593E+02  0.22789974111E+03  0.28481009366E+03  0.17046591534E+03 0.  0.
         24    2    5    5    0    0 -0.35227219113E+02 -0.15776097745E+02  0.50892289001E+02  0.10166049585E+03  0.79088489109E+02 0.  0.
          5    1    5    5  501    0  0.38834953226E+02  0.26113090338E+02  0.17700745211E+03  0.18314959782E+03  0.47000000000E+01 0. -1.
        -13    1    6    6    0    0 -0.32596697452E+02  0.10829101665E+02 -0.94807000638E+01  0.35632819161E+02  0.00000000000E+00 0.  1.
         14    1    6    6    0    0 -0.26305216606E+01 -0.26605199410E+02  0.60372989065E+02  0.66027676685E+02  0.00000000000E+00 0. -1.
         -5    1    3    3    0  503 -0.53726550671E+02 -0.33033330311E+02  0.13167767156E+03  0.14607820627E+03  0.47000000000E+01 0.  1.
         13    1    4    4    0    0  0.43478593534E+01  0.42477696376E+02  0.19787038241E+03  0.20242516347E+03  0.00000000000E+00 0. -1.
        -14    1    4    4    0    0  0.45770957205E+02 -0.19781358658E+02  0.16152065295E+03  0.16904201846E+03  0.00000000000E+00 0.  1.
</event>
<event>
12    1  0.8728348E-002  0.2172862E+03  0.7818608E-02  0.1135957E+00
         21   -1    0    0  503  502  0.00000000000E+00  0.00000000000E+00  0.19017142708E+03  0.19017142708E+03  0.00000000000E+00 0.  1.
         21   -1    0    0  501  503 -0.00000000000E+00 -0.00000000000E+00 -0.36536276449E+03  0.36536276449E+03  0.00000000000E+00 0. -1.
          6    2    1    2  501    0 -0.73567807682E+02  0.10973129207E+03 -0.24500988413E+03  0.32747996536E+03  0.17251117530E+03 0.  0.
         24    2    3    3    0    0  0.13163157484E+02  0.14285277782E+02 -0.13314097095E+03  0.15669078040E+03  0.80300340228E+02 0.  0.
         -6    2    1    2    0  502  0.73567807682E+02 -0.10973129207E+03  0.69818546724E+02  0.22805422621E+03  0.17228151915E+03 0.  0.
        -24    2    5    5    0    0  0.94089874374E+02 -0.11179318802E+03  0.12249812025E+02  0.16672188686E+03  0.79344239331E+02 0.  0.
          5    1    3    3  501    0 -0.86730965165E+02  0.95446014289E+02 -0.11186891318E+03  0.17078918495E+03  0.47000000000E+01 0. -1.
        -13    1    4    4    0    0 -0.25528076927E+02  0.18412100854E+02 -0.10232186068E+03  0.10705349757E+03  0.00000000000E+00 0.  1.
         14    1    4    4    0    0  0.38691234410E+02 -0.41268230712E+01 -0.30819110276E+02  0.49637282833E+02  0.00000000000E+00 0. -1.
         -5    1    5    5    0  502 -0.20522066692E+02  0.20618959468E+01  0.57568734699E+02  0.61332339358E+02  0.47000000000E+01 0.  1.
         11    1    6    6    0    0 -0.10646999327E+02 -0.32088548023E+02 -0.42552618286E+01  0.34075515581E+02  0.00000000000E+00 0. -1.
        -12    1    6    6    0    0  0.10473687370E+03 -0.79704639995E+02  0.16505073853E+02  0.13264637127E+03  0.00000000000E+00 0.  1.
</event>
<event>
12    1  0.8728348E-002  0.2680744E+03  0.7818608E-02  0.1102406E+00
         21   -1    0    0  503  502  0.00000000000E+00  0.00000000000E+00  0.10782148753E+03  0.10782148753E+03  0.00000000000E+00 0.  1.
         21   -1    0    0  501  503 -0.00000000000E+00 -0.00000000000E+00 -0.10000955781E+04  0.10000955781E+04  0.00000000000E+00 0. -1.
          6    2    1    2  501    0 -0.20183506166E+03  0.38903040407E+02 -0.76629995784E+03  0.81183710836E+03  0.17208435854E+03 0.  0.
         24    2    3    3    0    0 -0.14402196285E+03  0.87725829689E+02 -0.56004129447E+03  0.59208555463E+03  0.92091831998E+02 0.  0.
         -6    2    1    2    0  502  0.20183506166E+03 -0.38903040407E+02 -0.12597413272E+03  0.29607995726E+03  0.17188083170E+03 0.  0.
        -24    2    5    5    0    0  0.22229194054E+03 -0.48686037748E+02 -0.12694081435E+03  0.27290204959E+03  0.81101918714E+02 0.  0.
          5    1    3    3  501    0 -0.57813098808E+02 -0.48822789282E+02 -0.20625866337E+03  0.21975155372E+03  0.47000000000E+01 0. -1.
        -11    1    4    4    0    0 -0.85054491547E+01  0.22312192888E+02 -0.20617769875E+03  0.20755582400E+03  0.00000000000E+00 0.  1.
         12    1    4    4    0    0 -0.13551651370E+03  0.65413636801E+02 -0.35386359572E+03  0.38452973063E+03  0.00000000000E+00 0. -1.
         -5    1    5    5    0  502 -0.20456878881E+02  0.97829973413E+01  0.96668163375E+00  0.23177907669E+02  0.47000000000E+01 0.  1.
         11    1    6    6    0    0  0.29850360567E+02 -0.14406585861E+01 -0.54055538994E+02  0.61766664303E+02  0.00000000000E+00 0. -1.
        -12    1    6    6    0    0  0.19244157997E+03 -0.47245379162E+02 -0.72885275360E+02  0.21113538529E+03  0.00000000000E+00 0.  1.
</event>
<event>
12    1  0.8728348E-002  0.1963588E+03  0.7818608E-02  0.1153032E+00
         21   -1    0    0  501  502  0.00000000000E+00  0.00000000000E+00  0.20728680579E+03  0.20728680579E+03  0.00000000000E+00 0.  1.
         21   -1    0    0  502  503 -0.00000000000E+00 -0.00000000000E+00 -0.18539372260E+03  0.18539372260E+03  0.00000000000E+00 0.  1.
         -6    2    1    2    0  503  0.46896021442E+02 -0.83177663651E+02  0.46793651233E+01  0.19641452684E+03  0.17157799782E+03 0.  0.
        -24    2    3    3    0    0  0.16815768828E+02  0.15508547560E+02  0.10111366100E+02  0.92996025034E+02  0.89569726019E+02 0.  0.
          6    2    1    2  501    0 -0.46896021442E+02  0.83177663651E+02  0.17213718063E+02  0.19626600155E+03  0.17060559990E+03 0.  0.
         24    2    5    5    0    0  0.42992003860E+01 -0.95677714521E+01 -0.25065802744E+02  0.82106839192E+02  0.77480405268E+02 0.  0.
          5    1    5    5  501    0 -0.51195221828E+02  0.92745435104E+02  0.42279520807E+02  0.11415916236E+03  0.47000000000E+01 0. -1.
        -11    1    6    6    0    0  0.99600184930E+01  0.22561995504E+02  0.16196219022E+02  0.29505306643E+02  0.00000000000E+00 0.  1.
         12    1    6    6    0    0 -0.56608181070E+01 -0.32129766956E+02 -0.41262021767E+02  0.52601532549E+02  0.00000000000E+00 0. -1.
         -5    1    3    3    0  503  0.30080252613E+02 -0.98686211211E+02 -0.54320009764E+01  0.10341850180E+03  0.47000000000E+01 0.  1.
         11    1    4    4    0    0  0.40193135222E+01 -0.15336163242E+02  0.43180544833E+02  0.45999046036E+02  0.00000000000E+00 0. -1.
        -12    1    4    4    0    0  0.12796455306E+02  0.30844710802E+02 -0.33069178733E+02  0.46996978998E+02  0.00000000000E+00 0.  1.
</event>
<event>
12    1  0.8728348E-002  0.2454011E+03  0.7818608E-02  0.1116473E+00
         21   -1    0    0  503  502  0.00000000000E+00  0.00000000000E+00  0.23052540167E+03  0.23052540167E+03  0.00000000000E+00 0. -1.
         21   -1    0    0  501  503 -0.00000000000E+00 -0.00000000000E+00 -0.26169386819E+03  0.26169386819E+03  0.00000000000E+00 0. -1.
          6    2    1    2  501    0 -0.15687300384E+03  0.74864170857E+02  0.55727997443E+01  0.24546438716E+03  0.17322795922E+03 0.  0.
         24    2    3    3    0    0 -0.15486624072E+03  0.50273176779E+02  0.56229008920E+02  0.18892337889E+03  0.77584771894E+02 0.  0.
         -6    2    1    2    0  502  0.15687300384E+03 -0.74864170857E+02 -0.36741266264E+02  0.24675488270E+03  0.17124330082E+03 0.  0.
        -24    2    5    5    0    0  0.14866134438E+03 -0.88613191621E+02  0.15230943670E+02  0.19216855173E+03  0.82123550740E+02 0.  0.
          5    1    3    3  501    0 -0.20067631183E+01  0.24590994078E+02 -0.50656209175E+02  0.56541008268E+02  0.47000000000E+01 0. -1.
        -13    1    4    4    0    0  0.82005839876E+00  0.13086791124E+02  0.21422543240E+02  0.25116965512E+02  0.00000000000E+00 0.  1.
         14    1    4    4    0    0 -0.15568629912E+03  0.37186385655E+02  0.34806465680E+02  0.16380641338E+03  0.00000000000E+00 0. -1.
         -5    1    5    5    0  502  0.82116594555E+01  0.13749020764E+02 -0.51972209934E+02  0.54586330967E+02  0.47000000000E+01 0.  1.
         11    1    6    6    0    0  0.78870735876E+02 -0.67566334913E+01  0.27727995406E+02  0.83875424308E+02  0.00000000000E+00 0. -1.
        -12    1    6    6    0    0  0.69790608505E+02 -0.81856558130E+02 -0.12497051736E+02  0.10829312742E+03  0.00000000000E+00 0.  1.
</event>
<event>
12    1  0.8728348E-002  0.3275043E+03  0.7818608E-02  0.1072355E+00
         21   -1    0    0  503  502  0.00000000000E+00  0.00000000000E+00  0.36940192289E+03  0.36940192289E+03  0.00000000000E+00 0.  1.
         21   -1    0    0  501  503 -0.00000000000E+00 -0.00000000000E+00 -0.31775932833E+03  0.31775932833E+03  0.00000000000E+00 0. -1.
          6    2    1    2  501    0  0.21351636861E+03 -0.17969524066E+03  0.12831733332E+03  0.35174478499E+03  0.17140430730E+03 0.  0.
         24    2    3    3    0    0  0.86543934372E+02 -0.15879960846E+03  0.91738250367E+02  0.21788386534E+03  0.79688794508E+02 0.  0.
         -6    2    1    2    0  502 -0.21351636861E+03  0.17969524066E+03 -0.76674738759E+02  0.33541646623E+03  0.16954518889E+03 0.  0.
        -24    2    5    5    0    0 -0.18821618836E+03  0.99445601684E+02 -0.10291012711E+03  0.24715271785E+03  0.71966731373E+02 0.  0.
          5    1    3    3  501    0  0.12697243424E+03 -0.20895632198E+02  0.36579082952E+02  0.13386091966E+03  0.47000000000E+01 0. -1.
        -13    1    4    4    0    0  0.53332288678E+02 -0.26102923119E+02  0.15863684162E+02  0.61460166663E+02  0.00000000000E+00 0.  1.
         14    1    4    4    0    0  0.33211645694E+02 -0.13269668534E+03  0.75874566205E+02  0.15642369868E+03  0.00000000000E+00 0. -1.
         -5    1    5    5    0  502 -0.25300180254E+02  0.80249638975E+02  0.26235388350E+02  0.88263748381E+02  0.47000000000E+01 0.  1.
         11    1    6    6    0    0 -0.99845875159E+02  0.66710770172E+02 -0.93993069079E+02  0.15249335290E+03  0.00000000000E+00 0. -1.
        -12    1    6    6    0    0 -0.88370313200E+02  0.32734831512E+02 -0.89170580293E+01  0.94659364952E+02  0.00000000000E+00 0.  1.
</event>
<event>
12    1  0.8728348E-002  0.1859652E+03  0.7818608E-02  0.1162481E+00
         21   -1    0    0  501  502  0.00000000000E+00  0.00000000000E+00  0.13611947129E+03  0.13611947129E+03  0.00000000000E+00 0. -1.
         21   -1    0    0  502  503 -0.00000000000E+00 -0.00000000000E+00 -0.26009498029E+03  0.26009498029E+03  0.00000000000E+00 0.  1.
         -6    2    1    2    0  503  0.54229321413E+02  0.40209240593E+02 -0.96414233568E+02  0.20821799469E+03  0.17175979317E+03 0.  0.
        -24    2    3    3    0    0  0.76258386935E+02  0.64064725627E+02 -0.11419243906E+03  0.17090153071E+03  0.79042959274E+02 0.  0.
          6    2    1    2  501    0 -0.54229321413E+02 -0.40209240593E+02 -0.27561275434E+02  0.18799645688E+03  0.17327850867E+03 0.  0.
         24    2    5    5    0    0 -0.84781117954E+02  0.18942543262E+02 -0.11640930568E+02  0.11938236806E+03  0.81055417039E+02 0.  0.
          5    1    5    5  501    0  0.30551796541E+02 -0.59151783855E+02 -0.15920344866E+02  0.68614088829E+02  0.47000000000E+01 0. -1.
        -11    1    6    6    0    0 -0.35471311870E+02  0.47654975115E+02 -0.17734502985E+02  0.61997767824E+02  0.00000000000E+00 0.  1.
         12    1    6    6    0    0 -0.49309806084E+02 -0.28712431853E+02  0.60935724171E+01  0.57384600232E+02  0.00000000000E+00 0. -1.
         -5    1    3    3    0  503 -0.22029065522E+02 -0.23855485034E+02  0.17778205495E+02  0.37316463988E+02  0.47000000000E+01 0.  1.
         11    1    4    4    0    0  0.45511146770E+02  0.23503527822E+02 -0.63021428610E+01  0.51608112783E+02  0.00000000000E+00 0. -1.
        -12    1    4    4    0    0  0.30747240165E+02  0.40561197805E+02 -0.10789029620E+03  0.11929341792E+03  0.00000000000E+00 0.  1.
</event>
<event>
12    1  0.8728348E-002  0.2118213E+03  0.7818608E-02  0.1140259E+00
         21   -1    0    0  501  502  0.00000000000E+00  0.00000000000E+00  0.53934017811E+03  0.53934017811E+03  0.00000000000E+00 0. -1.
         21   -1    0    0  502  503 -0.00000000000E+00 -0.00000000000E+00 -0.11920149374E+03  0.11920149374E+03  0.00000000000E+00 0. -1.
         -6    2    1    2    0  503  0.88381067345E+02 -0.85907440488E+02  0.28675860349E+02  0.21375351061E+03  0.17227001172E+03 0.  0.
        -24    2    3    3    0    0  0.14276962337E+02 -0.79425426378E+02  0.64645994439E+02  0.13099255706E+03  0.80422107658E+02 0.  0.
          6    2    1    2  501    0 -0.88381067345E+02  0.85907440488E+02  0.39146282402E+03  0.44478816124E+03  0.17147030180E+03 0.  0.
         24    2    5    5    0    0 -0.60524686732E+02  0.12615617707E+03  0.28462721549E+03  0.32717916505E+03  0.80342613388E+02 0.  0.
          5    1    5    5  501    0 -0.27856380613E+02 -0.40248736580E+02  0.10683560852E+03  0.11760899619E+03  0.47000000000E+01 0. -1.
        -11    1    6    6    0    0  0.86048075537E+01 -0.39288704514E+01  0.44277942692E+02  0.45277090731E+02  0.00000000000E+00 0.  1.
         12    1    6    6    0    0 -0.69129494286E+02  0.13008504752E+03  0.24034927280E+03  0.28190207432E+03  0.00000000000E+00 0. -1.
         -5    1    3    3    0  503  0.74104105008E+02 -0.64820141096E+01 -0.35970134090E+02  0.82760953549E+02  0.47000000000E+01 0.  1.
         11    1    4    4    0    0  0.21834000743E+02 -0.91315177188E+02  0.38868873400E+02  0.10161680222E+03  0.00000000000E+00 0. -1.
        -12    1    4    4    0    0 -0.75570384066E+01  0.11889750809E+02  0.25777121039E+02  0.29375754848E+02  0.00000000000E+00 0.  1.
</event>
<event>
12    1  0.8728348E-002  0.2617805E+03  0.7818608E-02  0.1106141E+00
         21   -1    0    0  501  502  0.00000000000E+00  0.00000000000E+00  0.12876540139E+03  0.12876540139E+03  0.00000000000E+00 0.  1.
         21   -1    0    0  502  503 -0.00000000000E+00 -0.00000000000E+00 -0.10975803325E+04  0.10975803325E+04  0.00000000000E+00 0. -1.
         -6    2    1    2    0  503  0.11838357414E+03 -0.15816103339E+03 -0.92463527292E+03  0.96086338644E+03  0.17110954494E+03 0.  0.
        -24    2    3    3    0    0  0.29688952451E+02 -0.29700448942E+02 -0.51338030358E+03  0.52095248923E+03  0.77901279670E+02 0.  0.
          6    2    1    2  501    0 -0.11838357414E+03  0.15816103339E+03 -0.44179658197E+02  0.26548234745E+03  0.17175404363E+03 0.  0.
         24    2    5    5    0    0 -0.59807764638E+02  0.25880210514E+02  0.23767470924E+02  0.10558161602E+03  0.79597933135E+02 0.  0.
          5    1    5    5  501    0 -0.58575809500E+02  0.13228082287E+03 -0.67947129121E+02  0.15990073144E+03  0.47000000000E+01 0. -1.
        -11    1    6    6    0    0  0.60261036542E+01  0.85680131360E+01  0.35049162046E+02  0.36580985969E+02  0.00000000000E+00 0.  1.
         12    1    6    6    0    0 -0.65833868292E+02  0.17312197378E+02 -0.11281691122E+02  0.69000630047E+02  0.00000000000E+00 0. -1.
         -5    1    3    3    0  503  0.88694621687E+02 -0.12846058444E+03 -0.41125496934E+03  0.43991089721E+03  0.47000000000E+01 0.  1.
         11    1    4    4    0    0 -0.16665940418E+02 -0.37902352878E+02 -0.24576875883E+03  0.24923207005E+03  0.00000000000E+00 0. -1.
        -12    1    4    4    0    0  0.46354892869E+02  0.82019039359E+01 -0.26761154475E+03  0.27172041919E+03  0.00000000000E+00 0.  1.
</event>
<event>
12    1  0.8728348E-002  0.1906082E+03  0.7818608E-02  0.1158055E+00
         21   -1    0    0  501  502  0.00000000000E+00  0.00000000000E+00  0.24137742679E+03  0.24137742679E+03  0.00000000000E+00 0. -1.
         21   -1    0    0  502  503 -0.00000000000E+00 -0.00000000000E+00 -0.21835837445E+03  0.21835837445E+03  0.00000000000E+00 0. -1.
         -6    2    1    2    0  503 -0.43415510527E+02  0.70307934527E+02 -0.11709509301E+03  0.22316985741E+03  0.17107136592E+03 0.  0.
        -24    2    3    3    0    0 -0.44902650543E+02  0.11023281034E+03 -0.12090840209E+03  0.18276145951E+03  0.67936653485E+02 0.  0.
          6    2    1    2  501    0  0.43415510527E+02 -0.70307934527E+02  0.14011414534E+03  0.23656594382E+03  0.17176542097E+03 0.  0.
         24    2    5    5    0    0 -0.14228056524E+02  0.89636469086E+01  0.38101167275E+02  0.95019124221E+02  0.85405798759E+02 0.  0.
          5    1    5    5  501    0  0.57643567050E+02 -0.79271581435E+02  0.10201297807E+03  0.14154681960E+03  0.47000000000E+01 0. -1.
        -11    1    6    6    0    0  0.29583628054E+02 -0.51346565759E+01 -0.67280820204E+01  0.30770486422E+02  0.00000000000E+00 0.  1.
         12    1    6    6    0    0 -0.43811684577E+02  0.14098303484E+02  0.44829249296E+02  0.64248637799E+02  0.00000000000E+00 0. -1.
         -5    1    3    3    0  503  0.14871400164E+01 -0.39924875817E+02  0.38133090764E+01  0.40408397896E+02  0.47000000000E+01 0.  1.
         11    1    4    4    0    0 -0.12219269048E+02  0.67373865358E+02 -0.25282089538E+02  0.72991316749E+02  0.00000000000E+00 0. -1.
        -12    1    4    4    0    0 -0.32683381495E+02  0.42858944986E+02 -0.95626312548E+02  0.10977014277E+03  0.00000000000E+00 0.  1.
</event>
<event>
12    1  0.8728348E-002  0.1990576E+03  0.7818608E-02  0.1154769E+00
         21   -1    0    0  503  502  0.00000000000E+00  0.00000000000E+00  0.42131630018E+02  0.42131630018E+02  0.00000000000E+00 0.  1.
         21   -1    0    0  501  503 -0.00000000000E+00 -0.00000000000E+00 -0.12076561584E+04  0.12076561584E+04  0.00000000000E+00 0.  1.
          6    2    1    2  501    0 -0.98726323143E+02  0.14178085498E+02 -0.94150613167E+03  0.96231892075E+03  0.17226724668E+03 0.  0.
         24    2    3    3    0    0 -0.10159514724E+03  0.65336828268E+02 -0.59424841408E+03  0.61126983653E+03  0.77001041129E+02 0.  0.
         -6    2    1    2    0  502  0.98726323143E+02 -0.14178085498E+02 -0.22401839676E+03  0.28746886771E+03  0.15002067467E+03 0.  0.
        -24    2    5    5    0    0  0.54341495065E+02 -0.23316498545E+02 -0.56421221733E+02  0.11378977676E+03  0.79171344837E+02 0.  0.
          5    1    3    3  501    0  0.28688240982E+01 -0.51158742771E+02 -0.34725771759E+03  0.35104908423E+03  0.47000000000E+01 0. -1.
        -11    1    4    4    0    0 -0.35003887033E+02  0.95291007599E+01 -0.60865302120E+02  0.70856621927E+02  0.00000000000E+00 0.  1.
         12    1    4    4    0    0 -0.66591260208E+02  0.55807727509E+02 -0.53338311196E+03  0.54041321460E+03  0.00000000000E+00 0. -1.
         -5    1    5    5    0  502  0.44384828078E+02  0.91384130468E+01 -0.16759717503E+03  0.17367909095E+03  0.47000000000E+01 0.  1.
         13    1    6    6    0    0 -0.16702155122E+01 -0.21764577074E+01 -0.53793946838E+02  0.53863858982E+02  0.00000000000E+00 0. -1.
        -14    1    6    6    0    0  0.56011710577E+02 -0.21140040837E+02 -0.26272748950E+01  0.59925917780E+02  0.00000000000E+00 0.  1.
</event>
<event>
12    1  0.8728348E-002  0.1733989E+03  0.7818608E-02  0.1174800E+00
         21   -1    0    0  501  502  0.00000000000E+00  0.00000000000E+00  0.40485316502E+02  0.40485316502E+02  0.00000000000E+00 0.  1.
         21   -1    0    0  502  503 -0.00000000000E+00 -0.00000000000E+00 -0.84804352713E+03  0.84804352713E+03  0.00000000000E+00 0.  1.
         -6    2    1    2    0  503 -0.19589718729E+02 -0.16075386951E+02 -0.23987158317E+03  0.29495046350E+03  0.16975047676E+03 0.  0.
        -24    2    3    3    0    0  0.41363990995E+02  0.36937724443E+02 -0.11284939798E+03  0.14434345755E+03  0.70884919954E+02 0.  0.
          6    2    1    2  501    0  0.19589718729E+02  0.16075386951E+02 -0.56768662746E+03  0.59357838013E+03  0.17153720069E+03 0.  0.
         24    2    5    5    0    0 -0.26293450900E+02  0.22754787904E+02 -0.52006652159E+03  0.52694772551E+03  0.77431212117E+02 0.  0.
          5    1    5    5  501    0  0.45883169629E+02 -0.66794009529E+01 -0.47620105868E+02  0.66630654621E+02  0.47000000000E+01 0. -1.
        -11    1    6    6    0    0 -0.87549184739E+01 -0.20928887120E+02 -0.54860334116E+02  0.59366010249E+02  0.00000000000E+00 0.  1.
         12    1    6    6    0    0 -0.17538532426E+02  0.43683675024E+02 -0.46520618748E+03  0.46758171526E+03  0.00000000000E+00 0. -1.
         -5    1    3    3    0  503 -0.60953709724E+02 -0.53013111394E+02 -0.12702218519E+03  0.15060700595E+03  0.47000000000E+01 0.  1.
         11    1    4    4    0    0  0.17379204777E+02  0.37891583796E+02 -0.11288857172E+03  0.12033967968E+03  0.00000000000E+00 0. -1.
        -12    1    4    4    0    0  0.23984786217E+02 -0.95385935291E+00  0.39173741811E-01  0.24003777872E+02  0.00000000000E+00 0.  1.
</event>
<event>
12    1  0.8728348E-002  0.1793649E+03  0.7818608E-02  0.1168699E+00
         21   -1    0    0  501  502  0.00000000000E+00  0.00000000000E+00  0.45151055445E+03  0.45151055445E+03  0.00000000000E+00 0.  1.
         21   -1    0    0  502  503 -0.00000000000E+00 -0.00000000000E+00 -0.81355354761E+02  0.81355354761E+02  0.00000000000E+00 0.  1.
         -6    2    1    2    0  503  0.35908252385E+02  0.31218590143E+02  0.28053636997E+03  0.33235833719E+03  0.17174809013E+03 0.  0.
        -24    2    3    3    0    0  0.30718589682E+02  0.57307415521E+02  0.81388112672E+02  0.13138650386E+03  0.80066328037E+02 0.  0.
          6    2    1    2  501    0 -0.35908252385E+02 -0.31218590143E+02  0.89618829720E+02  0.20050757202E+03  0.17293856955E+03 0.  0.
         24    2    5    5    0    0  0.43491533447E+02  0.28728055467E+00  0.23339581779E+02  0.92285695370E+02  0.77976390533E+02 0.  0.
          5    1    5    5  501    0 -0.79399785832E+02 -0.31505870698E+02  0.66279247941E+02  0.10822187665E+03  0.47000000000E+01 0. -1.
        -11    1    6    6    0    0  0.18597710311E+02  0.38748778999E+02  0.16127158542E+02  0.45906730937E+02  0.00000000000E+00 0.  1.
         12    1    6    6    0    0  0.24893823136E+02 -0.38461498444E+02  0.72124232367E+01  0.46378964432E+02  0.00000000000E+00 0. -1.
         -5    1    3    3    0  503  0.51896627031E+01 -0.26088825378E+02  0.19914825730E+03  0.20097183333E+03  0.47000000000E+01 0.  1.
         13    1    4    4    0    0  0.55638929814E+02  0.52850124316E+02  0.69018242927E+02  0.10321019333E+03  0.00000000000E+00 0. -1.
        -14    1    4    4    0    0 -0.24920340132E+02  0.44572912053E+01  0.12369869746E+02  0.28176310524E+02  0.00000000000E+00 0.  1.
</event>
<event>
12    1  0.8728348E-002  0.2189063E+03  0.7818608E-02  0.1134850E+00
         21   -1    0    0  503  502  0.00000000000E+00  0.00000000000E+00  0.14299261821E+04  0.14299261821E+04  0.00000000000E+00 0. -1.
         21   -1    0    0  501  503 -0.00000000000E+00 -0.00000000000E+00 -0.58120700747E+02  0.58120700747E+02  0.00000000000E+00 0.  1.
          6    2    1    2  501    0  0.11703963356E+03 -0.68322230721E+02  0.19986727752E+03  0.29583920764E+03  0.17090261882E+03 0.  0.
         24    2    3    3    0    0  0.88161079539E+02 -0.74471304881E+02  0.59091123355E+02  0.15192326836E+03  0.79186914416E+02 0.  0.
         -6    2    1    2    0  502 -0.11703963356E+03  0.68322230721E+02  0.11719382039E+04  0.11922076752E+04  0.17191214092E+03 0.  0.
        -24    2    5    5    0    0 -0.10675482255E+03  0.36034761615E+02  0.47833840878E+03  0.49776471593E+03  0.79164278107E+02 0.  0.
          5    1    3    3  501    0  0.28878554022E+02  0.61490741599E+01  0.14077615417E+03  0.14391593928E+03  0.47000000000E+01 0. -1.
        -13    1    4    4    0    0  0.11550466392E+02 -0.27336503342E+02 -0.16917582016E+02  0.34159951261E+02  0.00000000000E+00 0.  1.
         14    1    4    4    0    0  0.76610613147E+02 -0.47134801538E+02  0.76008705371E+02  0.11776331710E+03  0.00000000000E+00 0. -1.
         -5    1    5    5    0  502 -0.10284811011E+02  0.32287469106E+02  0.69359979507E+03  0.69444295930E+03  0.47000000000E+01 0.  1.
         13    1    6    6    0    0 -0.74160659893E+02 -0.15750234540E+02  0.23953324416E+03  0.25124499681E+03  0.00000000000E+00 0. -1.
        -14    1    6    6    0    0 -0.32594162656E+02  0.51784996155E+02  0.23880516462E+03  0.24651971912E+03  0.00000000000E+00 0.  1.
</event>
<event>
12    1  0.8728348E-002  0.1820256E+03  0.7818608E-02  0.1166009E+00
         21   -1    0    0  503  502  0.00000000000E+00  0.00000000000E+00  0.17022550926E+03  0.17022550926E+03  0.00000000000E+00 0. -1.
         21   -1    0    0  501  503 -0.00000000000E+00 -0.00000000000E+00 -0.22461934838E+03  0.22461934838E+03  0.00000000000E+00 0. -1.
          6    2    1    2  501    0  0.54375766352E+02  0.15911795819E+02  0.45693604139E+02  0.18767318686E+03  0.17298384431E+03 0.  0.
         24    2    3    3    0    0 -0.13840586962E+02 -0.43486963074E+02  0.29145991112E+02  0.95599320239E+02  0.78784918782E+02 0.  0.
         -6    2    1    2    0  502 -0.54375766352E+02 -0.15911795819E+02 -0.10008744326E+03  0.20717167078E+03  0.17231568606E+03 0.  0.
        -24    2    5    5    0    0  0.14028439925E+02  0.16443142299E+02 -0.98572630278E+02  0.13134052866E+03  0.84063053557E+02 0.  0.
          5    1    3    3  501    0  0.68216353314E+02  0.59398758892E+02  0.16547613026E+02  0.92073866619E+02  0.47000000000E+01 0. -1.
        -13    1    4    4    0    0  0.14057698697E+02 -0.51066951284E+02  0.38200442194E+02  0.65304871104E+02  0.00000000000E+00 0.  1.
         14    1    4    4    0    0 -0.27898285659E+02  0.75799882109E+01 -0.90544510815E+01  0.30294449135E+02  0.00000000000E+00 0. -1.
         -5    1    5    5    0  502 -0.68404206276E+02 -0.32354938118E+02 -0.15148129831E+01  0.75831142120E+02  0.47000000000E+01 0.  1.
         13    1    6    6    0    0 -0.28017350728E+02 -0.17134538468E+02 -0.33684808460E+02  0.47044985613E+02  0.00000000000E+00 0. -1.
        -14    1    6    6    0    0  0.42045790652E+02  0.33577680767E+02 -0.64887821818E+02  0.84295543047E+02  0.00000000000E+00 0.  1.
</event>
<event>
12    1  0.8728348E-002  0.2847940E+03  0.7818608E-02  0.1093242E+00
         21   -1    0    0  503  502  0.00000000000E+00  0.00000000000E+00  0.94257556219E+02  0.94257556219E+02  0.00000000000E+00 0. -1.
         21   -1    0    0  501  503 -0.00000000000E+00 -0.00000000000E+00 -0.85987370653E+03  0.85987370653E+03  0.00000000000E+00 0.  1.
          6    2    1    2  501    0 -0.17015235220E+03  0.14948275788E+03 -0.40978975941E+03  0.49903436206E+03  0.17265784004E+03 0.  0.
         24    2    3    3    0    0 -0.17101920487E+03  0.75847880713E+02 -0.24406657898E+03  0.31762568227E+03  0.79480246728E+02 0.  0.
         -6    2    1    2    0  502  0.17015235220E+03 -0.14948275788E+03 -0.35582639090E+03  0.45509690070E+03  0.17089134179E+03 0.  0.
        -24    2    5    5    0    0  0.81105850301E+02 -0.30464747652E+02 -0.81950184091E+02  0.14344832792E+03  0.79720325559E+02 0.  0.
          5    1    3    3  501    0  0.86685266449E+00  0.73634877167E+02 -0.16572318043E+03  0.18140867979E+03  0.47000000000E+01 0. -1.
        -11    1    4    4    0    0 -0.10850716613E+03  0.18648474393E+02 -0.18155636670E+03  0.21233060304E+03  0.00000000000E+00 0.  1.
         12    1    4    4    0    0 -0.62512038737E+02  0.57199406320E+02 -0.62510212283E+02  0.10529507923E+03  0.00000000000E+00 0. -1.
         -5    1    5    5    0  502  0.89046501901E+02 -0.11901801023E+03 -0.27387620681E+03  0.31164857278E+03  0.47000000000E+01 0.  1.
         13    1    6    6    0    0 -0.13921870281E+02 -0.14487559811E+02 -0.66811075316E+01  0.21174160178E+02  0.00000000000E+00 0. -1.
        -14    1    6    6    0    0  0.95027720581E+02 -0.15977187841E+02 -0.75269076559E+02  0.12227416774E+03  0.00000000000E+00 0.  1.
</event>
<event>
12    1  0.8728348E-002  0.2093574E+03  0.7818608E-02  0.1142440E+00
         21   -1    0    0  501  502  0.00000000000E+00  0.00000000000E+00  0.32963649394E+03  0.32963649394E+03  0.00000000000E+00 0.  1.
         21   -1    0    0  502  503 -0.00000000000E+00 -0.00000000000E+00 -0.19703945679E+03  0.19703945679E+03  0.00000000000E+00 0. -1.
         -6    2    1    2    0  503  0.11907626686E+03  0.94777977855E+01 -0.85022379436E+02  0.22596309775E+03  0.17193466946E+03 0.  0.
        -24    2    3    3    0    0 -0.93841263821E+01  0.11664067577E+02 -0.30412457702E+02  0.86280650899E+02  0.79343057892E+02 0.  0.
          6    2    1    2  501    0 -0.11907626686E+03 -0.94777977855E+01  0.21761941658E+03  0.30071285297E+03  0.16970864294E+03 0.  0.
         24    2    5    5    0    0 -0.13426898632E+03  0.91337519009E+01  0.22690719040E+03  0.27452962840E+03  0.75947730082E+02 0.  0.
          5    1    5    5  501    0  0.15192719458E+02 -0.18611549686E+02 -0.92877738201E+01  0.26183224568E+02  0.47000000000E+01 0. -1.
        -13    1    6    6    0    0 -0.10247702990E+03 -0.18302691854E+02  0.11559458515E+03  0.15555911514E+03  0.00000000000E+00 0.  1.
         14    1    6    6    0    0 -0.31791956414E+02  0.27436443754E+02  0.11131260525E+03  0.11897051326E+03  0.00000000000E+00 0. -1.
         -5    1    3    3    0  503  0.12846039324E+03 -0.21862697916E+01 -0.54609921734E+02  0.13968244685E+03  0.47000000000E+01 0.  1.
         13    1    4    4    0    0  0.31709360793E+02  0.12977001517E+02 -0.29410835381E+02  0.45153996148E+02  0.00000000000E+00 0. -1.
        -14    1    4    4    0    0 -0.41093487175E+02 -0.13129339395E+01 -0.10016223209E+01  0.41126654751E+02  0.00000000000E+00 0.  1.
</event>
<event>
12    1  0.8728348E-002  0.1804427E+03  0.7818608E-02  0.1168646E+00
         21   -1    0    0  503  502  0.00000000000E+00  0.00000000000E+00  0.16005955661E+03  0.16005955661E+03  0.00000000000E+00 0. -1.
         21   -1    0    0  501  503 -0.00000000000E+00 -0.00000000000E+00 -0.22262446284E+03  0.22262446284E+03  0.00000000000E+00 0. -1.
          6    2    1    2  501    0 -0.56341788716E+02  0.89649941110E+00 -0.95813822289E+02  0.20430331134E+03  0.17141865014E+03 0.  0.
         24    2    3    3    0    0  0.33398229449E+02  0.21653344765E+01 -0.71599519866E+02  0.11122644394E+03  0.78260463733E+02 0.  0.
         -6    2    1    2    0  502  0.56341788716E+02 -0.89649941110E+00  0.33248916057E+02  0.17838070811E+03  0.16594874431E+03 0.  0.
        -24    2    5    5    0    0  0.17423509035E+02 -0.57492774221E+02  0.36895256712E+01  0.10345662402E+03  0.84146673730E+02 0.  0.
          5    1    3    3  501    0 -0.89740018165E+02 -0.12688350654E+01 -0.24214302423E+02  0.93076867397E+02  0.47000000000E+01 0. -1.
        -13    1    4    4    0    0  0.20070022759E+02  0.39561811578E+02 -0.46449518937E+02  0.64230059617E+02  0.00000000000E+00 0.  1.
         14    1    4    4    0    0  0.13328206690E+02 -0.37396477101E+02 -0.25150000928E+02  0.46996384327E+02  0.00000000000E+00 0. -1.
         -5    1    5    5    0  502  0.38918279681E+02  0.56596274810E+02  0.29559390385E+02  0.74924084083E+02  0.47000000000E+01 0.  1.
         11    1    6    6    0    0  0.48137388494E+02 -0.54156290523E+02  0.38799953295E+01  0.72561465930E+02  0.00000000000E+00 0. -1.
        -12    1    6    6    0    0 -0.30713879459E+02 -0.33364836984E+01 -0.19046965831E+00  0.30895158093E+02  0.00000000000E+00 0.  1.
</event>
<event>
12    1  0.8728348E-002  0.1968740E+03  0.7818608E-02  0.1152625E+00
         21   -1    0    0  501  502  0.00000000000E+00  0.00000000000E+00  0.86708840700E+03  0.86708840700E+03  0.00000000000E+00 0. -1.
         21   -1    0    0  502  503 -0.00000000000E+00 -0.00000000000E+00 -0.17987701757E+03  0.17987701757E+03  0.00000000000E+00 0.  1.
         -6    2    1    2    0  503 -0.80437233938E+02  0.52191996010E+02 -0.11080646154E+03  0.22502147533E+03  0.17077013612E+03 0.  0.
        -24    2    3    3    0    0 -0.11861717535E+03  0.14667365729E+02 -0.57116712895E+02  0.14905776747E+03  0.68342762929E+02 0.  0.
          6    2    1    2  501    0  0.80437233938E+02 -0.52191996010E+02  0.79801785097E+03  0.82194394924E+03  0.17194537557E+03 0.  0.
         24    2    5    5    0    0  0.65366879830E+01  0.18402866759E+02  0.51021727180E+03  0.51649970112E+03  0.77903035995E+02 0.  0.
          5    1    5    5  501    0  0.73900545955E+02 -0.70594862769E+02  0.28780057917E+03  0.30544424812E+03  0.47000000000E+01 0. -1.
        -11    1    6    6    0    0 -0.18156461577E+02 -0.11227502185E+02  0.46329199875E+02  0.51010868091E+02  0.00000000000E+00 0.  1.
         12    1    6    6    0    0  0.24693149560E+02  0.29630368944E+02  0.46388807193E+03  0.46548883303E+03  0.00000000000E+00 0. -1.
         -5    1    3    3    0  503  0.38179941410E+02  0.37524630280E+02 -0.53689748641E+02  0.75963707867E+02  0.47000000000E+01 0.  1.
         11    1    4    4    0    0 -0.10544708232E+03 -0.78618608179E+01 -0.61901712016E+02  0.12252639705E+03  0.00000000000E+00 0. -1.
        -12    1    4    4    0    0 -0.13170093032E+02  0.22529226547E+02  0.47849991216E+01  0.26531370411E+02  0.00000000000E+00 0.  1.
</event>
<event>
12    1  0.8728348E-002  0.2101482E+03  0.7818608E-02  0.1141550E+00
         21   -1    0    0  501  502  0.00000000000E+00  0.00000000000E+00  0.39393233886E+03  0.39393233886E+03  0.00000000000E+00 0. -1.
         21   -1    0    0  502  503 -0.00000000000E+00 -0.00000000000E+00 -0.12504769936E+03  0.12504769936E+03  0.00000000000E+00 0. -1.
         -6    2    1    2    0  503 -0.10895690727E+03 -0.51125381982E+02  0.49938517490E+02  0.21550076264E+03  0.17164297493E+03 0.  0.
        -24    2    3    3    0    0 -0.57804973089E+02 -0.34322909709E+02 -0.38254627379E+02  0.11206496493E+03  0.81090460628E+02 0.  0.
          6    2    1    2  501    0  0.10895690727E+03  0.51125381982E+02  0.21894612200E+03  0.30347927558E+03  0.17226971307E+03 0.  0.
         24    2    5    5    0    0  0.72004526433E+02  0.95180659665E+02  0.11478501369E+03  0.18440798422E+03  0.81158459047E+02 0.  0.
          5    1    5    5  501    0  0.36952380842E+02 -0.44055277683E+02  0.10416110831E+03  0.11907129136E+03  0.47000000000E+01 0. -1.
        -11    1    6    6    0    0 -0.16196167936E+02  0.28111464584E+02  0.35922733795E+02  0.48404680560E+02  0.00000000000E+00 0.  1.
         12    1    6    6    0    0  0.88200694368E+02  0.67069195081E+02  0.78862279897E+02  0.13600330366E+03  0.00000000000E+00 0. -1.
         -5    1    3    3    0  503 -0.51151934186E+02 -0.16802472273E+02  0.88193144869E+02  0.10343579771E+03  0.47000000000E+01 0.  1.
         11    1    4    4    0    0 -0.76537038735E+02 -0.17071278615E+02 -0.20601415226E+02  0.81078759001E+02  0.00000000000E+00 0. -1.
        -12    1    4    4    0    0  0.18732065646E+02 -0.17251631094E+02 -0.17653212154E+02  0.30986205932E+02  0.00000000000E+00 0.  1.
</event>
<event>
12    1  0.8728348E-002  0.2928882E+03  0.7818608E-02  0.1088934E+00
         21   -1    0    0  501  502  0.00000000000E+00  0.00000000000E+00  0.31330821044E+03  0.31330821044E+03  0.00000000000E+00 0. -1.
         21   -1    0    0  502  503 -0.00000000000E+00 -0.00000000000E+00 -0.30957360800E+03  0.30957360800E+03  0.00000000000E+00 0. -1.
         -6    2    1    2    0  503 -0.16960798997E+03 -0.16441703897E+03  0.10862326839E+03  0.31177871803E+03  0.17206720088E+03 0.  0.
        -24    2    3    3    0    0 -0.11749137774E+03 -0.12479544109E+03  0.14332364329E+03  0.23753440306E+03  0.80639940146E+02 0.  0.
          6    2    1    2  501    0  0.16960798997E+03  0.16441703897E+03 -0.10488866595E+03  0.31110310040E+03  0.17315794486E+03 0.  0.
         24    2    5    5    0    0  0.11069948715E+03  0.92392928728E+02 -0.13435260918E+03  0.21338975376E+03  0.81815241143E+02 0.  0.
          5    1    5    5  501    0  0.58908502820E+02  0.72024110246E+02  0.29463943226E+02  0.97713346640E+02  0.47000000000E+01 0. -1.
        -13    1    6    6    0    0  0.41384348049E+01  0.28708883445E+01 -0.50825655203E+02  0.51074610809E+02  0.00000000000E+00 0.  1.
         14    1    6    6    0    0  0.10656105234E+03  0.89522040383E+02 -0.83526953974E+02  0.16231514295E+03  0.00000000000E+00 0. -1.
         -5    1    3    3    0  503 -0.52116612222E+02 -0.39621597879E+02 -0.34700374904E+02  0.74244314977E+02  0.47000000000E+01 0.  1.
         13    1    4    4    0    0 -0.10416554058E+03 -0.10139968748E+03  0.73906017394E+02  0.16307806680E+03  0.00000000000E+00 0. -1.
        -14    1    4    4    0    0 -0.13325837169E+02 -0.23395753619E+02  0.69417625900E+02  0.74456336260E+02  0.00000000000E+00 0.  1.
</event>
<event>
12    1  0.8728348E-002  0.2077785E+03  0.7818608E-02  0.1143340E+00
         21   -1    0    0  503  502  0.00000000000E+00  0.00000000000E+00  0.68707814933E+02  0.68707814933E+02  0.00000000000E+00 0.  1.
         21   -1    0    0  501  503 -0.00000000000E+00 -0.00000000000E+00 -0.10353636404E+04  0.10353636404E+04  0.00000000000E+00 0.  1.
          6    2    1    2  501    0 -0.11233473335E+03 -0.25534981842E+02 -0.13717954601E+03  0.24896748550E+03  0.17290301726E+03 0.  0.
         24    2    3    3    0    0 -0.11632978731E+03 -0.10229341227E+02 -0.34640817575E+02  0.14510939039E+03  0.78863743884E+02 0.  0.
         -6    2    1    2    0  502  0.11233473335E+03  0.25534981842E+02 -0.82947627948E+03  0.85510396985E+03  0.17291840107E+03 0.  0.
        -24    2    5    5    0    0  0.14111328391E+03  0.39228868151E+02 -0.57879687669E+03  0.60236303436E+03  0.79897044363E+02 0.  0.
          5    1    3    3  501    0  0.39950539574E+01 -0.15305640615E+02 -0.10253872844E+03  0.10385809511E+03  0.47000000000E+01 0. -1.
        -11    1    4    4    0    0 -0.31011477749E+02 -0.37479785618E+02  0.11467841008E+01  0.48659646484E+02  0.00000000000E+00 0.  1.
         12    1    4    4    0    0 -0.85318309562E+02  0.27250444391E+02 -0.35787601676E+02  0.96449743907E+02  0.00000000000E+00 0. -1.
         -5    1    5    5    0  502 -0.28778550560E+02 -0.13693886309E+02 -0.25067940278E+03  0.25274093550E+03  0.47000000000E+01 0.  1.
         13    1    6    6    0    0  0.75499764336E+02  0.44851228023E+02 -0.20823126869E+03  0.22599138995E+03  0.00000000000E+00 0. -1.
        -14    1    6    6    0    0  0.65613519578E+02 -0.56223598728E+01 -0.37056560800E+03  0.37637164441E+03  0.00000000000E+00 0.  1.
</event>
<event>
12    1  0.8728348E-002  0.1824845E+03  0.7818608E-02  0.1165436E+00
         21   -1    0    0  501  502  0.00000000000E+00  0.00000000000E+00  0.16753095600E+03  0.16753095600E+03  0.00000000000E+00 0.  1.
         21   -1    0    0  502  503 -0.00000000000E+00 -0.00000000000E+00 -0.20196205279E+03  0.20196205279E+03  0.00000000000E+00 0.  1.
         -6    2    1    2    0  503  0.31597197144E+01 -0.60289486385E+02 -0.40701886321E+02  0.18690081487E+03  0.17213501983E+03 0.  0.
        -24    2    3    3    0    0  0.35018084663E+01 -0.75979239392E+02 -0.85118242074E+02  0.13955962739E+03  0.80291138871E+02 0.  0.
          6    2    1    2  501    0 -0.31597197144E+01  0.60289486385E+02  0.62707895402E+01  0.18259219392E+03  0.17220853777E+03 0.  0.
         24    2    5    5    0    0  0.22944302237E+02  0.42492224788E+02 -0.59451686369E+02  0.10951896817E+03  0.78280720510E+02 0.  0.
          5    1    5    5  501    0 -0.26104021952E+02  0.17797261597E+02  0.65722475909E+02  0.73073225753E+02  0.47000000000E+01 0. -1.
        -11    1    6    6    0    0  0.29311041197E+02  0.32727506274E+02  0.48207005572E+01  0.44198031142E+02  0.00000000000E+00 0.  1.
         12    1    6    6    0    0 -0.63667389596E+01  0.97647185144E+01 -0.64272386926E+02  0.65320937025E+02  0.00000000000E+00 0. -1.
         -5    1    3    3    0  503 -0.34208875190E+00  0.15689753007E+02  0.44416355753E+02  0.47341187485E+02  0.47000000000E+01 0.  1.
         11    1    4    4    0    0  0.23367712317E+02 -0.46926881978E+02 -0.89872936584E+02  0.10404483150E+03  0.00000000000E+00 0. -1.
        -12    1    4    4    0    0 -0.19865903851E+02 -0.29052357414E+02  0.47546945098E+01  0.35514795888E+02  0.00000000000E+00 0.  1.
</event>
<event>
12    1  0.8728348E-002  0.2198884E+03  0.7818608E-02  0.1134343E+00
         21   -1    0    0  503  502  0.00000000000E+00  0.00000000000E+00  0.70057378359E+02  0.70057378359E+02  0.00000000000E+00 0.  1.
         21   -1    0    0  501  503 -0.00000000000E+00 -0.00000000000E+00 -0.97465124267E+03  0.97465124267E+03  0.00000000000E+00 0.  1.
          6    2    1    2  501    0 -0.85560869688E+02 -0.10184623453E+03 -0.73615160260E+03  0.76771817506E+03  0.17256504973E+03 0.  0.
         24    2    3    3    0    0 -0.49006878823E+02 -0.89973114416E+02 -0.70898474757E+03  0.72041814079E+03  0.76459726670E+02 0.  0.
         -6    2    1    2    0  502  0.85560869688E+02  0.10184623453E+03 -0.16844226171E+03  0.27699044598E+03  0.17509310015E+03 0.  0.
        -24    2    5    5    0    0  0.71811122305E+02  0.13399533509E+03 -0.97514017033E+02  0.19777222766E+03  0.80580912164E+02 0.  0.
          5    1    3    3  501    0 -0.36553990865E+02 -0.11873120117E+02 -0.27166855035E+02  0.47300034270E+02  0.47000000000E+01 0. -1.
        -11    1    4    4    0    0 -0.21272960122E+02 -0.87698682716E+02 -0.39380423580E+03  0.40401160122E+03  0.00000000000E+00 0.  1.
         12    1    4    4    0    0 -0.27733918701E+02 -0.22744317004E+01 -0.31518051176E+03  0.31640653957E+03  0.00000000000E+00 0. -1.
         -5    1    5    5    0  502  0.13749747383E+02 -0.32149100553E+02 -0.70928244680E+02  0.79218218314E+02  0.47000000000E+01 0.  1.
         13    1    6    6    0    0 -0.68135973978E+01  0.67874754259E+02 -0.28037537838E+02  0.73753039959E+02  0.00000000000E+00 0. -1.
        -14    1    6    6    0    0  0.78624719703E+02  0.66120580827E+02 -0.69476479195E+02  0.12401918770E+03  0.00000000000E+00 0.  1.
</event>
<event>
12    1  0.8728348E-002  0.2271494E+03  0.7818608E-02  0.1128915E+00
         21   -1    0    0  503  502  0.00000000000E+00  0.00000000000E+00  0.12946581998E+03  0.12946581998E+03  0.00000000000E+00 0.  1.
         21   -1    0    0  501  503 -0.00000000000E+00 -0.00000000000E+00 -0.50621759589E+03  0.50621759589E+03  0.00000000000E+00 0. -1.
          6    2    1    2  501    0  0.67855774771E+02  0.13161324472E+03 -0.33617752620E+03  0.40493874470E+03  0.17039250419E+03 0.  0.
         24    2    3    3    0    0  0.24392128037E+02 -0.29417508330E+01 -0.13845452581E+03  0.16181200759E+03  0.80061478098E+02 0.  0.
         -6    2    1    2    0  502 -0.67855774771E+02 -0.13161324472E+03 -0.40574249718E+02  0.23074467117E+03  0.17225092504E+03 0.  0.
        -24    2    5    5    0    0  0.38259411263E+01 -0.13605019444E+02 -0.46434855502E+02  0.92467245940E+02  0.78703630073E+02 0.  0.
          5    1    3    3  501    0  0.43463646734E+02  0.13455499556E+03 -0.19772300039E+03  0.24312673711E+03  0.47000000000E+01 0. -1.
        -11    1    4    4    0    0  0.32097251003E+02  0.16036449863E+02 -0.18973691239E+02  0.40588202786E+02  0.00000000000E+00 0.  1.
         12    1    4    4    0    0 -0.77051229662E+01 -0.18978200696E+02 -0.11948083457E+03  0.12122380480E+03  0.00000000000E+00 0. -1.
         -5    1    5    5    0  502 -0.71681715897E+02 -0.11800822528E+03  0.58606057839E+01  0.13827742523E+03  0.47000000000E+01 0.  1.
         11    1    6    6    0    0 -0.48782312236E+01 -0.44892129780E+02 -0.15851064864E+02  0.47857671416E+02  0.00000000000E+00 0. -1.
        -12    1    6    6    0    0  0.87041723499E+01  0.31287110335E+02 -0.30583790638E+02  0.44609574524E+02  0.00000000000E+00 0.  1.
</event>
<event>
12    1  0.8728348E-002  0.2524213E+03  0.7818608E-02  0.1111794E+00
         21   -1    0    0  503  502  0.00000000000E+00  0.00000000000E+00  0.30295187808E+03  0.30295187808E+03  0.00000000000E+00 0.  1.
         21   -1    0    0  501  503 -0.00000000000E+00 -0.00000000000E+00 -0.37338619486E+03  0.37338619486E+03  0.00000000000E+00 0.  1.
          6    2    1    2  501    0  0.14177688291E+03 -0.11820871093E+03 -0.25873623281E+03  0.36147052850E+03  0.17217003497E+03 0.  0.
         24    2    3    3    0    0  0.71122757380E+02 -0.17230847750E+02 -0.16569266360E+03  0.20697868381E+03  0.10015372209E+03 0.  0.
         -6    2    1    2    0  502 -0.14177688291E+03  0.11820871093E+03  0.18830191603E+03  0.31486754443E+03  0.17207549241E+03 0.  0.
        -24    2    5    5    0    0 -0.13923755592E+03  0.51385953811E+02  0.77816938393E+02  0.18563616537E+03  0.79860483130E+02 0.  0.
          5    1    3    3  501    0  0.70654125527E+02 -0.10097786318E+03 -0.93043569210E+02  0.15449184470E+03  0.47000000000E+01 0. -1.
        -11    1    4    4    0    0  0.63316231669E+02 -0.55954648977E+02 -0.11534373569E+03  0.14298267482E+03  0.00000000000E+00 0.  1.
         12    1    4    4    0    0  0.78065257105E+01  0.38723801226E+02 -0.50348927906E+02  0.63996008988E+02  0.00000000000E+00 0. -1.
         -5    1    5    5    0  502 -0.25393269882E+01  0.66822757118E+02  0.11048497764E+03  0.12923137906E+03  0.47000000000E+01 0.  1.
         11    1    6    6    0    0 -0.12399645649E+02  0.36126702155E+02  0.32285321425E+02  0.50012316486E+02  0.00000000000E+00 0. -1.
        -12    1    6    6    0    0 -0.12683791027E+03  0.15259251656E+02  0.45531616968E+02  0.13562384889E+03  0.00000000000E+00 0.  1.
</event>
<event>
12    1  0.8728348E-002  0.2108913E+03  0.7818608E-02  0.1141070E+00
         21   -1    0    0  501  502  0.00000000000E+00  0.00000000000E+00  0.16077986504E+04  0.16077986504E+04  0.00000000000E+00 0.  1.
         21   -1    0    0  502  503 -0.00000000000E+00 -0.00000000000E+00 -0.88198329051E+02  0.88198329051E+02  0.00000000000E+00 0. -1.
         -6    2    1    2    0  503  0.11305789021E+03 -0.40974749790E+02  0.55866643503E+02  0.21714897777E+03  0.17196389166E+03 0.  0.
        -24    2    3    3    0    0  0.64034271817E+02  0.10735596351E+02  0.93194222994E+02  0.13657160348E+03  0.75835339258E+02 0.  0.
          6    2    1    2  501    0 -0.11305789021E+03  0.40974749790E+02  0.14637336779E+04  0.14788480017E+04  0.17324582462E+03 0.  0.
         24    2    5    5    0    0 -0.11315843982E+03 -0.22134248912E+02  0.81912436077E+03  0.83113972051E+03  0.80831671588E+02 0.  0.
          5    1    5    5  501    0  0.10054961612E+00  0.63108998701E+02  0.64460931712E+03  0.64770828120E+03  0.47000000000E+01 0. -1.
        -11    1    6    6    0    0 -0.70626194437E+01  0.31352791908E+01  0.32630254377E+03  0.32639402667E+03  0.00000000000E+00 0.  1.
         12    1    6    6    0    0 -0.10609582038E+03 -0.25269528102E+02  0.49282181699E+03  0.50474569385E+03  0.00000000000E+00 0. -1.
         -5    1    3    3    0  503  0.49023618390E+02 -0.51710346141E+02 -0.37327579491E+02  0.80577374297E+02  0.47000000000E+01 0.  1.
         11    1    4    4    0    0  0.62652203869E+01  0.68112871402E+01 -0.12798808058E+02  0.15794179520E+02  0.00000000000E+00 0. -1.
        -12    1    4    4    0    0  0.57769051430E+02  0.39243092109E+01  0.10599303105E+03  0.12077742396E+03  0.00000000000E+00 0.  1.
</event>
<event>
12    1  0.8728348E-002  0.1920647E+03  0.7818608E-02  0.1156849E+00
         21   -1    0    0  503  502  0.00000000000E+00  0.00000000000E+00  0.23435769108E+03  0.23435769108E+03  0.00000000000E+00 0.  1.
         21   -1    0    0  501  503 -0.00000000000E+00 -0.00000000000E+00 -0.16021825987E+03  0.16021825987E+03  0.00000000000E+00 0.  1.
          6    2    1    2  501    0 -0.71584790542E+02  0.45018635577E+02  0.72535161357E+01  0.19220161517E+03  0.17244647747E+03 0.  0.
         24    2    3    3    0    0 -0.54227877584E+02  0.95018593921E+02 -0.15679560618E+02  0.13432870034E+03  0.76348904481E+02 0.  0.
         -6    2    1    2    0  502  0.71584790542E+02 -0.45018635577E+02  0.66885915073E+02  0.20237433578E+03  0.17126174809E+03 0.  0.
        -24    2    5    5    0    0  0.59783480165E+02  0.40626657774E+02  0.58479909944E+02  0.11538503688E+03  0.68331669426E+02 0.  0.
          5    1    3    3  501    0 -0.17356912958E+02 -0.49999958344E+02  0.22933076754E+02  0.57872914832E+02  0.47000000000E+01 0. -1.
        -13    1    4    4    0    0 -0.72362406832E+02  0.62165747667E+02 -0.60662892851E+01  0.95591306985E+02  0.00000000000E+00 0.  1.
         14    1    4    4    0    0  0.18134529248E+02  0.32852846254E+02 -0.96132713332E+01  0.38737393353E+02  0.00000000000E+00 0. -1.
         -5    1    5    5    0  502  0.11801310377E+02 -0.85645293352E+02  0.84060051283E+01  0.86989298894E+02  0.47000000000E+01 0.  1.
         13    1    6    6    0    0 -0.70647330770E+01  0.24606919537E+02  0.33684058862E+02  0.42308707898E+02  0.00000000000E+00 0. -1.
        -14    1    6    6    0    0  0.66848213242E+02  0.16019738238E+02  0.24795851082E+02  0.73076328984E+02  0.00000000000E+00 0.  1.
</event>
<event>
12    1  0.8728348E-002  0.2262352E+03  0.7818608E-02  0.1129442E+00
         21   -1    0    0  501  502  0.00000000000E+00  0.00000000000E+00  0.12412613655E+03  0.12412613655E+03  0.00000000000E+00 0.  1.
         21   -1    0    0  502  503 -0.00000000000E+00 -0.00000000000E+00 -0.44139630420E+03  0.44139630420E+03  0.00000000000E+00 0.  1.
         -6    2    1    2    0  503  0.10161119491E+03  0.10545590135E+03 -0.23295664561E+03  0.32473246979E+03  0.17244302290E+03 0.  0.
        -24    2    3    3    0    0  0.88635655793E+02  0.13359348450E+03 -0.14276274272E+03  0.22924886744E+03  0.80438448106E+02 0.  0.
          6    2    1    2  501    0 -0.10161119491E+03 -0.10545590135E+03 -0.84313522046E+02  0.24078997095E+03  0.17153792015E+03 0.  0.
         24    2    5    5    0    0 -0.83404868274E+02 -0.10004050067E+03  0.22310245151E+01  0.15206091464E+03  0.78441509838E+02 0.  0.
          5    1    5    5  501    0 -0.18206326640E+02 -0.54154006834E+01 -0.86544546561E+02  0.88729056310E+02  0.47000000000E+01 0. -1.
        -13    1    6    6    0    0 -0.56919403251E+02 -0.22916074278E+02  0.26709722320E+02  0.66920655953E+02  0.00000000000E+00 0.  1.
         14    1    6    6    0    0 -0.26485465023E+02 -0.77124426388E+02 -0.24478697805E+02  0.85140258688E+02  0.00000000000E+00 0. -1.
         -5    1    3    3    0  503  0.12975539122E+02 -0.28137583151E+02 -0.90193902887E+02  0.95483602357E+02  0.47000000000E+01 0.  1.
         11    1    4    4    0    0 -0.14130069676E+02  0.22706543254E+02 -0.11810337381E+02  0.29235766531E+02  0.00000000000E+00 0. -1.
        -12    1    4    4    0    0  0.10276572547E+03  0.11088694125E+03 -0.13095240534E+03  0.20001310091E+03  0.00000000000E+00 0.  1.
</event>
<event>
12    1  0.8728348E-002  0.2013500E+03  0.7818608E-02  0.1148751E+00
         21   -1    0    0  503  502  0.00000000000E+00  0.00000000000E+00  0.19908712839E+04  0.19908712839E+04  0.00000000000E+00 0. -1.
         21   -1    0    0  501  503 -0.00000000000E+00 -0.00000000000E+00 -0.21690166128E+02  0.21690166128E+02  0.00000000000E+00 0. -1.
          6    2    1    2  501    0  0.92743762198E+02  0.45434358178E+02  0.72762867214E+03  0.75478789910E+03  0.17203372281E+03 0.  0.
         24    2    3    3    0    0 -0.27561814768E+01  0.43558999976E+02  0.21829803599E+03  0.23655673145E+03  0.80000447875E+02 0.  0.
         -6    2    1    2    0  502 -0.92743762198E+02 -0.45434358178E+02  0.12415524457E+04  0.12577735509E+04  0.17284716898E+03 0.  0.
        -24    2    5    5    0    0 -0.29299694387E+02 -0.73551255427E+02  0.10015093547E+04  0.10078565944E+04  0.80533645586E+02 0.  0.
          5    1    3    3  501    0  0.95499943675E+02  0.18753582018E+01  0.50933063614E+03  0.51823116765E+03  0.47000000000E+01 0. -1.
        -13    1    4    4    0    0  0.11965234813E+02  0.23249816342E+02  0.20767800463E+03  0.20931763999E+03  0.00000000000E+00 0.  1.
         14    1    4    4    0    0 -0.14721416289E+02  0.20309183634E+02  0.10620031367E+02  0.27239091462E+02  0.00000000000E+00 0. -1.
         -5    1    5    5    0  502 -0.63444067811E+02  0.28116897249E+02  0.24004309091E+03  0.24991695650E+03  0.47000000000E+01 0.  1.
         13    1    6    6    0    0 -0.54215509394E+02 -0.56107802978E+02  0.83110260333E+03  0.83475681745E+03  0.00000000000E+00 0. -1.
        -14    1    6    6    0    0  0.24915815007E+02 -0.17443452450E+02  0.17040675141E+03  0.17309977700E+03  0.00000000000E+00 0.  1.
</event>
<event>
12    1  0.8728348E-002  0.4004959E+03  0.7818608E-02  0.1043636E+00
         21   -1    0    0  501  502  0.00000000000E+00  0.00000000000E+00  0.36252103027E+03  0.36252103027E+03  0.00000000000E+00 0. -1.
         21   -1    0    0  502  503 -0.00000000000E+00 -0.00000000000E+00 -0.48498680651E+03  0.48498680651E+03  0.00000000000E+00 0. -1.
         -6    2    1    2    0  503  0.26390012911E+03 -0.24774480401E+03 -0.18723376437E+03  0.44180865232E+03  0.17063890731E+03 0.  0.
        -24    2    3    3    0    0  0.11303330257E+03 -0.16082009182E+03 -0.15955828513E+03  0.26544332951E+03  0.79760174292E+02 0.  0.
          6    2    1    2  501    0 -0.26390012911E+03  0.24774480401E+03  0.64767988123E+02  0.40569918446E+03  0.17139477800E+03 0.  0.
         24    2    5    5    0    0 -0.27105280085E+03  0.25611918881E+03  0.76275864870E+02  0.38909158798E+03  0.80669675530E+02 0.  0.
          5    1    5    5  501    0  0.71526717327E+01 -0.83743847976E+01 -0.11507876748E+02  0.16607596482E+02  0.47000000000E+01 0. -1.
        -11    1    6    6    0    0 -0.19798681751E+02  0.54855329148E+02  0.23469488510E+02  0.62864233280E+02  0.00000000000E+00 0.  1.
         12    1    6    6    0    0 -0.25125411909E+03  0.20126385966E+03  0.52806376360E+02  0.32622735470E+03  0.00000000000E+00 0. -1.
         -5    1    3    3    0  503  0.15086682654E+03 -0.86924712191E+02 -0.27675479234E+02  0.17636532281E+03  0.47000000000E+01 0.  1.
         11    1    4    4    0    0  0.82761133286E+02 -0.10353031460E+03 -0.57333909052E+02  0.14441297847E+03  0.00000000000E+00 0. -1.
        -12    1    4    4    0    0  0.30272169287E+02 -0.57289777220E+02 -0.10222437608E+03  0.12103035104E+03  0.00000000000E+00 0.  1.
</event>
<event>
12    1  0.8728348E-002  0.2112318E+03  0.7818608E-02  0.1140661E+00
         21   -1    0    0  503  502  0.00000000000E+00  0.00000000000E+00  0.87487575852E+03  0.87487575852E+03  0.00000000000E+00 0.  1.
         21   -1    0    0  501  503 -0.00000000000E+00 -0.00000000000E+00 -0.50918884531E+02  0.50918884531E+02  0.00000000000E+00 0.  1.
          6    2    1    2  501    0  0.58006810188E+02  0.10782455254E+03  0.41389375915E+03  0.46467937981E+03  0.17212773743E+03 0.  0.
         24    2    3    3    0    0  0.89893204191E+02  0.12428988865E+03  0.31937243895E+03  0.36346564859E+03  0.81115709702E+02 0.  0.
         -6    2    1    2    0  502 -0.58006810188E+02 -0.10782455254E+03  0.41006311483E+03  0.46111526324E+03  0.17171081412E+03 0.  0.
        -24    2    5    5    0    0 -0.32035588511E+01 -0.34433701887E+01  0.24751578344E+03  0.26026070758E+03  0.80308488154E+02 0.  0.
          5    1    3    3  501    0 -0.31886394003E+02 -0.16465336101E+02  0.94521320196E+02  0.10121373122E+03  0.47000000000E+01 0. -1.
        -11    1    4    4    0    0  0.80771504371E+02  0.87004674741E+02  0.15822965212E+03  0.19781423648E+03  0.00000000000E+00 0.  1.
         12    1    4    4    0    0  0.91216998204E+01  0.37285213904E+02  0.16114278684E+03  0.16565141211E+03  0.00000000000E+00 0. -1.
         -5    1    5    5    0  502 -0.54803251337E+02 -0.10438118236E+03  0.16254733140E+03  0.20085455566E+03  0.47000000000E+01 0.  1.
         13    1    6    6    0    0  0.27160769336E+02 -0.13541224329E+02  0.39575899352E+02  0.49873078477E+02  0.00000000000E+00 0. -1.
        -14    1    6    6    0    0 -0.30364328187E+02  0.10097854140E+02  0.20793988409E+03  0.21038762910E+03  0.00000000000E+00 0.  1.
</event>
<event>
12    1  0.8728348E-002  0.2698693E+03  0.7818608E-02  0.1101480E+00
         21   -1    0    0  503  502  0.00000000000E+00  0.00000000000E+00  0.28248344521E+03  0.28248344521E+03  0.00000000000E+00 0.  1.
         21   -1    0    0  501  503 -0.00000000000E+00 -0.00000000000E+00 -0.32355681858E+03  0.32355681858E+03  0.00000000000E+00 0. -1.
          6    2    1    2  501    0  0.20541877714E+03 -0.40973717606E+02 -0.15795847863E+03  0.31194575155E+03  0.16877070659E+03 0.  0.
         24    2    3    3    0    0  0.57601215533E+02 -0.64744798805E+02 -0.57427936998E+02  0.13154737123E+03  0.80603684326E+02 0.  0.
         -6    2    1    2    0  502 -0.20541877714E+03  0.40973717606E+02  0.11688510526E+03  0.29409451224E+03  0.17015797003E+03 0.  0.
        -24    2    5    5    0    0 -0.17369676092E+03 -0.27903028178E+02  0.94954379791E+02  0.21501645497E+03  0.79161846426E+02 0.  0.
          5    1    3    3  501    0  0.14781756161E+03  0.23771081199E+02 -0.10053054163E+03  0.18039838032E+03  0.47000000000E+01 0. -1.
        -13    1    4    4    0    0  0.27633396679E+02 -0.62241261170E+02 -0.71153774960E+02  0.98490806145E+02  0.00000000000E+00 0.  1.
         14    1    4    4    0    0  0.29967818854E+02 -0.25035376356E+01  0.13725837962E+02  0.33056565086E+02  0.00000000000E+00 0. -1.
         -5    1    5    5    0  502 -0.31722016220E+02  0.68876745784E+02  0.21930725465E+02  0.79078057274E+02  0.47000000000E+01 0.  1.
         13    1    6    6    0    0 -0.38453332237E+02 -0.41420555772E+02  0.34879720440E+02  0.66414728025E+02  0.00000000000E+00 0. -1.
        -14    1    6    6    0    0 -0.13524342868E+03  0.13517527594E+02  0.60074659351E+02  0.14860172694E+03  0.00000000000E+00 0.  1.
</event>
<event>
12    1  0.8728348E-002  0.2260525E+03  0.7818608E-02  0.1129809E+00
         21   -1    0    0  503  502  0.00000000000E+00  0.00000000000E+00  0.11715060601E+04  0.11715060601E+04  0.00000000000E+00 0. -1.
         21   -1    0    0  501  503 -0.00000000000E+00 -0.00000000000E+00 -0.58805465098E+02  0.58805465098E+02  0.00000000000E+00 0. -1.
          6    2    1    2  501    0  0.14288808130E+03  0.14146267464E+02  0.87107228049E+03  0.89942792016E+03  0.17200739828E+03 0.  0.
         24    2    3    3    0    0  0.75084173652E+02  0.24646765630E+02  0.76639579659E+03  0.77418061825E+03  0.75815674190E+02 0.  0.
         -6    2    1    2    0  502 -0.14288808130E+03 -0.14146267464E+02  0.24162831455E+03  0.33088360508E+03  0.17459266037E+03 0.  0.
        -24    2    5    5    0    0 -0.12096493343E+03  0.51043720168E+02  0.18757304978E+03  0.24327983490E+03  0.82240212651E+02 0.  0.
          5    1    3    3  501    0  0.67803907649E+02 -0.10500498166E+02  0.10467648390E+03  0.12524730191E+03  0.47000000000E+01 0. -1.
        -11    1    4    4    0    0 -0.73035684937E+01 -0.84796861593E+01  0.23861851379E+02  0.26355931805E+02  0.00000000000E+00 0.  1.
         12    1    4    4    0    0  0.82387742145E+02  0.33126451789E+02  0.74253394521E+03  0.74782468644E+03  0.00000000000E+00 0. -1.
         -5    1    5    5    0  502 -0.21923147870E+02 -0.65189987632E+02  0.54055264777E+02  0.87603770182E+02  0.47000000000E+01 0.  1.
         11    1    6    6    0    0 -0.65028321688E+02  0.21184085475E+02  0.32453449715E+02  0.75701218599E+02  0.00000000000E+00 0. -1.
        -12    1    6    6    0    0 -0.55936611743E+02  0.29859634693E+02  0.15511960006E+03  0.16757861630E+03  0.00000000000E+00 0.  1.
</event>
<event>
12    1  0.8728348E-002  0.2114324E+03  0.7818608E-02  0.1141755E+00
         21   -1    0    0  503  502  0.00000000000E+00  0.00000000000E+00  0.16238611574E+03  0.16238611574E+03  0.00000000000E+00 0. -1.
         21   -1    0    0  501  503 -0.00000000000E+00 -0.00000000000E+00 -0.36469526152E+03  0.36469526152E+03  0.00000000000E+00 0. -1.
          6    2    1    2  501    0 -0.22842541492E+02  0.11049176042E+03 -0.23888593389E+03  0.31901435211E+03  0.17881123179E+03 0.  0.
         24    2    3    3    0    0 -0.25952970185E+02  0.24653191119E+02 -0.31566271701E+02  0.94556188794E+02  0.81627855763E+02 0.  0.
         -6    2    1    2    0  502  0.22842541492E+02 -0.11049176042E+03  0.36576788119E+02  0.20806702515E+03  0.17094974321E+03 0.  0.
        -24    2    5    5    0    0 -0.32705970163E+02 -0.66298374594E+02  0.67945548654E+02  0.13031883138E+03  0.83073733947E+02 0.  0.
          5    1    3    3  501    0  0.31104286923E+01  0.85838569299E+02 -0.20731966219E+03  0.22445816331E+03  0.47000000000E+01 0. -1.
        -11    1    4    4    0    0 -0.52639538710E+02  0.25976249493E+02 -0.33813602354E+02  0.67742499787E+02  0.00000000000E+00 0.  1.
         12    1    4    4    0    0  0.26686568525E+02 -0.13230583738E+01  0.22473306534E+01  0.26813689007E+02  0.00000000000E+00 0. -1.
         -5    1    5    5    0  502  0.55548511655E+02 -0.44193385824E+02 -0.31368760536E+02  0.77748193775E+02  0.47000000000E+01 0.  1.
         13    1    6    6    0    0  0.22142885556E+02 -0.16417026191E+02 -0.29702388055E+01  0.27724509883E+02  0.00000000000E+00 0. -1.
        -14    1    6    6    0    0 -0.54848855718E+02 -0.49881348404E+02  0.70915787460E+02  0.10259432150E+03  0.00000000000E+00 0.  1.
</event>
<event>
12    1  0.8728348E-002  0.1754750E+03  0.7818608E-02  0.1173588E+00
         21   -1    0    0  503  502  0.00000000000E+00  0.00000000000E+00  0.30352656907E+03  0.30352656907E+03  0.00000000000E+00 0. -1.
         21   -1    0    0  501  503 -0.00000000000E+00 -0.00000000000E+00 -0.12473185986E+03  0.12473185986E+03  0.00000000000E+00 0. -1.
          6    2    1    2  501    0 -0.28327414396E-01  0.13868752269E+02  0.18663156563E+03  0.25260851121E+03  0.16966842828E+03 0.  0.
         24    2    3    3    0    0  0.60605188573E+02 -0.12742968392E+01  0.78377555606E+02  0.12752151795E+03  0.80275049687E+02 0.  0.
         -6    2    1    2    0  502  0.28327414396E-01 -0.13868752269E+02 -0.78368564295E+01  0.17564991772E+03  0.17492608206E+03 0.  0.
        -24    2    5    5    0    0  0.58982557875E+02 -0.24349880860E+02 -0.44363829255E+02  0.10535222864E+03  0.71127237416E+02 0.  0.
          5    1    3    3  501    0 -0.60633515988E+02  0.15143049108E+02  0.10825401003E+03  0.12508699326E+03  0.47000000000E+01 0. -1.
        -13    1    4    4    0    0  0.30683310299E+02 -0.32323316598E+02  0.84404216614E+01  0.45359707281E+02  0.00000000000E+00 0.  1.
         14    1    4    4    0    0  0.29921878274E+02  0.31049019759E+02  0.69937133944E+02  0.82161810665E+02  0.00000000000E+00 0. -1.
         -5    1    5    5    0  502 -0.58954230461E+02  0.10481128592E+02  0.36526972825E+02  0.70297689077E+02  0.47000000000E+01 0.  1.
         11    1    6    6    0    0  0.32382335985E+02 -0.45964224898E+02 -0.43462779582E+02  0.71065736211E+02  0.00000000000E+00 0. -1.
        -12    1    6    6    0    0  0.26600221890E+02  0.21614344037E+02 -0.90104967317E+00  0.34286492432E+02  0.00000000000E+00 0.  1.
</event>
<event>
12    1  0.8728348E-002  0.2706141E+03  0.7818608E-02  0.1100950E+00
         21   -1    0    0  501  502  0.00000000000E+00  0.00000000000E+00  0.27044177363E+04  0.27044177363E+04  0.00000000000E+00 0.  1.
         21   -1    0    0  502  503 -0.00000000000E+00 -0.00000000000E+00 -0.43958480556E+02  0.43958480556E+02  0.00000000000E+00 0.  1.
         -6    2    1    2    0  503 -0.20880578242E+03  0.23350286110E+00  0.47853270154E+03  0.54975044120E+03  0.17213974517E+03 0.  0.
        -24    2    3    3    0    0 -0.20228425317E+03  0.12202617566E+02  0.48664568923E+03  0.53320654142E+03  0.80108464052E+02 0.  0.
          6    2    1    2  501    0  0.20880578242E+03 -0.23350286110E+00  0.21819265542E+04  0.21986257756E+04  0.17190667266E+03 0.  0.
         24    2    5    5    0    0  0.19888902801E+03 -0.14064873905E+02  0.21600156400E+04  0.21704863548E+04  0.74758178488E+02 0.  0.
          5    1    5    5  501    0  0.99167544123E+01  0.13831371044E+02  0.21910914158E+02  0.28139420788E+02  0.47000000000E+01 0. -1.
        -13    1    6    6    0    0  0.95016371504E+02  0.30309282031E+02  0.10657780932E+04  0.10704343545E+04  0.00000000000E+00 0.  1.
         14    1    6    6    0    0  0.10387265651E+03 -0.44374155937E+02  0.10942375468E+04  0.11000520003E+04  0.00000000000E+00 0. -1.
         -5    1    3    3    0  503 -0.65215292559E+01 -0.11969114705E+02 -0.81129876950E+01  0.16543899782E+02  0.47000000000E+01 0.  1.
         13    1    4    4    0    0 -0.67188284313E+02 -0.10374229777E+02  0.25677625810E+03  0.26562367537E+03  0.00000000000E+00 0. -1.
        -14    1    4    4    0    0 -0.13509596886E+03  0.22576847343E+02  0.22986943113E+03  0.26758286605E+03  0.00000000000E+00 0.  1.
</event>
<event>
12    1  0.8728348E-002  0.1983517E+03  0.7818608E-02  0.1151275E+00
         21   -1    0    0  503  502  0.00000000000E+00  0.00000000000E+00  0.19101736502E+03  0.19101736502E+03  0.00000000000E+00 0. -1.
         21   -1    0    0  501  503 -0.00000000000E+00 -0.00000000000E+00 -0.20531380809E+03  0.20531380809E+03  0.00000000000E+00 0.  1.
          6    2    1    2  501    0 -0.95985340167E+02  0.26626547493E+02 -0.90001203629E+01  0.19855580013E+03  0.17152622260E+03 0.  0.
         24    2    3    3    0    0 -0.75797310570E+02  0.46809025625E+02 -0.64592455401E+02  0.13588613699E+03  0.79727910812E+02 0.  0.
         -6    2    1    2    0  502  0.95985340167E+02 -0.26626547493E+02 -0.52963226983E+01  0.19777537298E+03  0.17077730694E+03 0.  0.
        -24    2    5    5    0    0  0.14030004570E+02 -0.15177537296E+02  0.51412565504E+02  0.97347563743E+02  0.80038100979E+02 0.  0.
          5    1    3    3  501    0 -0.20188029598E+02 -0.20182478131E+02  0.55592335038E+02  0.62669663135E+02  0.47000000000E+01 0. -1.
        -13    1    4    4    0    0  0.10277963814E+02  0.23823631431E+02 -0.31587845492E+02  0.40877792719E+02  0.00000000000E+00 0.  1.
         14    1    4    4    0    0 -0.86075274383E+02  0.22985394193E+02 -0.33004609908E+02  0.95008344273E+02  0.00000000000E+00 0. -1.
         -5    1    5    5    0  502  0.81955335597E+02 -0.11449010197E+02 -0.56708888202E+02  0.10042780924E+03  0.47000000000E+01 0.  1.
         11    1    6    6    0    0  0.19376757299E+02 -0.44176210000E+02  0.15051438947E+02  0.50532584218E+02  0.00000000000E+00 0. -1.
        -12    1    6    6    0    0 -0.53467527293E+01  0.28998672704E+02  0.36361126557E+02  0.46814979524E+02  0.00000000000E+00 0.  1.
</event>
<event>
12    1  0.8728348E-002  0.1891863E+03  0.7818608E-02  0.1159619E+00
         21   -1    0    0  503  502  0.00000000000E+00  0.00000000000E+00  0.13315231489E+03  0.13315231489E+03  0.00000000000E+00 0. -1.
         21   -1    0    0  501  503 -0.00000000000E+00 -0.00000000000E+00 -0.37508437913E+03  0.37508437913E+03  0.00000000000E+00 0. -1.
          6    2    1    2  501    0  0.42166169937E+02 -0.66825450921E+02 -0.25831480364E+03  0.32018431970E+03  0.17189483420E+03 0.  0.
         24    2    3    3    0    0  0.77667636602E+02 -0.46846811405E+02 -0.10054882962E+03  0.15717606000E+03  0.79795746660E+02 0.  0.
         -6    2    1    2    0  502 -0.42166169937E+02  0.66825450921E+02  0.16382739403E+02  0.18805237432E+03  0.16985780689E+03 0.  0.
        -24    2    5    5    0    0 -0.34470475123E+02 -0.30645325136E+02  0.17269936132E+02  0.90161348066E+02  0.75521310788E+02 0.  0.
          5    1    3    3  501    0 -0.35501466666E+02 -0.19978639517E+02 -0.15776597401E+03  0.16300825969E+03  0.47000000000E+01 0. -1.
        -13    1    4    4    0    0 -0.62993857696E+01 -0.50853681011E+01  0.95708583807E+01  0.12535731329E+02  0.00000000000E+00 0.  1.
         14    1    4    4    0    0  0.83967022372E+02 -0.41761443304E+02 -0.11011968800E+03  0.14464032867E+03  0.00000000000E+00 0. -1.
         -5    1    5    5    0  502 -0.76956948136E+01  0.97470776057E+02 -0.88719672957E+00  0.97891026258E+02  0.47000000000E+01 0.  1.
         11    1    6    6    0    0  0.10809573352E+02  0.55301298673E+01  0.28633367631E+02  0.31101430101E+02  0.00000000000E+00 0. -1.
        -12    1    6    6    0    0 -0.45280048475E+02 -0.36175455003E+02 -0.11363431499E+02  0.59059917965E+02  0.00000000000E+00 0.  1.
</event>
<event>
12    1  0.8728348E-002  0.1901769E+03  0.7818608E-02  0.1158441E+00
         21   -1    0    0  503  502  0.00000000000E+00  0.00000000000E+00  0.32459985556E+03  0.32459985556E+03  0.00000000000E+00 0.  1.
         21   -1    0    0  501  503 -0.00000000000E+00 -0.00000000000E+00 -0.11210507987E+03  0.11210507987E+03  0.00000000000E+00 0.  1.
          6    2    1    2  501    0 -0.79327838343E+02  0.89697660594E+01  0.84989046536E+02  0.20773992542E+03  0.17192840354E+03 0.  0.
         24    2    3    3    0    0 -0.57970370806E+02  0.26110999032E+02  0.12337642557E+03  0.16035169739E+03  0.80303028008E+02 0.  0.
         -6    2    1    2    0  502  0.79327838343E+02 -0.89697660594E+01  0.12750572916E+03  0.22896501001E+03  0.17260910231E+03 0.  0.
        -24    2    5    5    0    0  0.76713046798E+02 -0.10906153716E+02  0.94336797734E+01  0.11075466538E+03  0.78573315132E+02 0.  0.
          5    1    3    3  501    0 -0.21357467537E+02 -0.17141232972E+02 -0.38387379031E+02  0.47388228035E+02  0.47000000000E+01 0. -1.
        -11    1    4    4    0    0 -0.40058619603E+02 -0.14848355281E+02  0.18906255939E+02  0.46718445743E+02  0.00000000000E+00 0.  1.
         12    1    4    4    0    0 -0.17911751203E+02  0.40959354313E+02  0.10447016963E+03  0.11363325164E+03  0.00000000000E+00 0. -1.
         -5    1    5    5    0  502  0.26147915452E+01  0.19363876568E+01  0.11807204938E+03  0.11821034463E+03  0.47000000000E+01 0.  1.
         11    1    6    6    0    0  0.14538444566E+02  0.30336835693E+02  0.12986055876E+02  0.36060055705E+02  0.00000000000E+00 0. -1.
        -12    1    6    6    0    0  0.62174602231E+02 -0.41242989409E+02 -0.35523761025E+01  0.74694609672E+02  0.00000000000E+00 0.  1.
</event>
<event>
12    1  0.8728348E-002  0.1938438E+03  0.7818608E-02  0.1155703E+00
         21   -1    0    0  501  502  0.00000000000E+00  0.00000000000E+00  0.81813318755E+02  0.81813318755E+02  0.00000000000E+00 0. -1.
         21   -1    0    0  502  503 -0.00000000000E+00 -0.00000000000E+00 -0.47617390798E+03  0.47617390798E+03  0.00000000000E+00 0.  1.
         -6    2    1    2    0  503 -0.64381709507E+02  0.46093742897E+02 -0.13605580337E+03  0.23682610719E+03  0.17693441091E+03 0.  0.
        -24    2    3    3    0    0 -0.57004191863E+02 -0.36460319184E+02 -0.10913817252E+03  0.14955497919E+03  0.76659756937E+02 0.  0.
          6    2    1    2  501    0  0.64381709507E+02 -0.46093742897E+02 -0.25830478586E+03  0.32116111955E+03  0.17364752995E+03 0.  0.
         24    2    5    5    0    0  0.73932222295E+02  0.35766833564E+02 -0.15614320668E+03  0.18981636505E+03  0.70030790178E+02 0.  0.
          5    1    5    5  501    0 -0.95505127880E+01 -0.81860576461E+02 -0.10216157918E+03  0.13134475450E+03  0.47000000000E+01 0. -1.
        -11    1    6    6    0    0  0.11611042955E+02  0.16597778126E+01 -0.96056549658E+02  0.96769994901E+02  0.00000000000E+00 0.  1.
         12    1    6    6    0    0  0.62321179340E+02  0.34107055752E+02 -0.60086657020E+02  0.93046370151E+02  0.00000000000E+00 0. -1.
         -5    1    3    3    0  503 -0.73775176437E+01  0.82554062081E+02 -0.26917630853E+02  0.87271128006E+02  0.47000000000E+01 0.  1.
         13    1    4    4    0    0 -0.40457578870E+02 -0.11297195031E+02 -0.63953884312E+01  0.42489331564E+02  0.00000000000E+00 0. -1.
        -14    1    4    4    0    0 -0.16546612993E+02 -0.25163124153E+02 -0.10274278409E+03  0.10706564762E+03  0.00000000000E+00 0.  1.
</event>
<event>
12    1  0.8728348E-002  0.2328523E+03  0.7818608E-02  0.1124868E+00
         21   -1    0    0  503  502  0.00000000000E+00  0.00000000000E+00  0.20960376185E+04  0.20960376185E+04  0.00000000000E+00 0.  1.
         21   -1    0    0  501  503 -0.00000000000E+00 -0.00000000000E+00 -0.43767296122E+02  0.43767296122E+02  0.00000000000E+00 0.  1.
          6    2    1    2  501    0  0.74518240117E+02 -0.13634723034E+03  0.34089644003E+03  0.41283237103E+03  0.17342620453E+03 0.  0.
         24    2    3    3    0    0 -0.21080065965E+02 -0.75620283965E+02  0.21945927072E+03  0.24671231134E+03  0.80881373234E+02 0.  0.
         -6    2    1    2    0  502 -0.74518240117E+02  0.13634723034E+03  0.17113738824E+04  0.17269725436E+04  0.17172671835E+03 0.  0.
        -24    2    5    5    0    0  0.12037654761E+02  0.99713381338E+02  0.76271185356E+03  0.77365428786E+03  0.81999524520E+02 0.  0.
          5    1    3    3  501    0  0.95598306082E+02 -0.60726946370E+02  0.12143716931E+03  0.16612005969E+03  0.47000000000E+01 0. -1.
        -11    1    4    4    0    0  0.10246882030E+02 -0.38782223409E+02  0.27201406772E+02  0.48466235404E+02  0.00000000000E+00 0.  1.
         12    1    4    4    0    0 -0.31326947995E+02 -0.36838060556E+02  0.19225786394E+03  0.19824607594E+03  0.00000000000E+00 0. -1.
         -5    1    5    5    0  502 -0.86555894878E+02  0.36633848997E+02  0.94866202880E+03  0.95331825573E+03  0.47000000000E+01 0.  1.
         13    1    6    6    0    0 -0.25894020131E+02  0.33616065793E+02  0.13979452752E+03  0.14609260790E+03  0.00000000000E+00 0. -1.
        -14    1    6    6    0    0  0.37931674892E+02  0.66097315545E+02  0.62291732604E+03  0.62756167997E+03  0.00000000000E+00 0.  1.
</event>
<event>
12    1  0.8728348E-002  0.1758993E+03  0.7818608E-02  0.1174428E+00
         21   -1    0    0  503  502  0.00000000000E+00  0.00000000000E+00  0.18958880271E+03  0.18958880271E+03  0.00000000000E+00 0. -1.
         21   -1    0    0  501  503 -0.00000000000E+00 -0.00000000000E+00 -0.32966504769E+03  0.32966504769E+03  0.00000000000E+00 0. -1.
          6    2    1    2  501    0  0.27932035314E+02  0.25334323347E+02 -0.26050091832E+03  0.31432675353E+03  0.17180964176E+03 0.  0.
         24    2    3    3    0    0  0.37295718846E+02  0.79603617612E+02 -0.15143121273E+03  0.19205195830E+03  0.78897629359E+02 0.  0.
         -6    2    1    2    0  502 -0.27932035314E+02 -0.25334323347E+02  0.12042467334E+03  0.20492709687E+03  0.16146512486E+03 0.  0.
        -24    2    5    5    0    0  0.38162228507E+02 -0.25135859351E+02  0.41747495126E+02  0.10206466704E+03  0.81155257376E+02 0.  0.
          5    1    3    3  501    0 -0.93636835323E+01 -0.54269294265E+02 -0.10906970560E+03  0.12227479523E+03  0.47000000000E+01 0. -1.
        -13    1    4    4    0    0  0.37013951813E+02  0.92911837951E+00 -0.67662336706E+02  0.77130329302E+02  0.00000000000E+00 0.  1.
         14    1    4    4    0    0  0.28176703284E+00  0.78674499233E+02 -0.83768876023E+02  0.11492162900E+03  0.00000000000E+00 0. -1.
         -5    1    5    5    0  502 -0.66094263820E+02 -0.19846399568E+00  0.78677178210E+02  0.10286242982E+03  0.47000000000E+01 0.  1.
         13    1    6    6    0    0  0.44442794231E+01  0.27232049113E+02  0.25791009975E+02  0.37769197953E+02  0.00000000000E+00 0. -1.
        -14    1    6    6    0    0  0.33717949083E+02 -0.52367908464E+02  0.15956485150E+02  0.64295469091E+02  0.00000000000E+00 0.  1.
</event>
<event>
12    1  0.8728348E-002  0.1833793E+03  0.7818608E-02  0.1164616E+00
         21   -1    0    0  503  502  0.00000000000E+00  0.00000000000E+00  0.18930802149E+03  0.18930802149E+03  0.00000000000E+00 0. -1.
         21   -1    0    0  501  503 -0.00000000000E+00 -0.00000000000E+00 -0.20002990419E+03  0.20002990419E+03  0.00000000000E+00 0. -1.
          6    2    1    2  501    0 -0.16044205976E+02  0.61934128535E+02 -0.70756540673E+02  0.19638165472E+03  0.17165667315E+03 0.  0.
         24    2    3    3    0    0 -0.66732205179E+02  0.58082788425E+02 -0.13987659459E+02  0.12003440881E+03  0.79911245524E+02 0.  0.
         -6    2    1    2    0  502  0.16044205976E+02 -0.61934128535E+02  0.60034657970E+02  0.19295627096E+03  0.17185665400E+03 0.  0.
        -24    2    5    5    0    0  0.38063179590E+02 -0.62133053333E+02 -0.12058265472E+02  0.11742909453E+03  0.91295501083E+02 0.  0.
          5    1    3    3  501    0  0.50687999202E+02  0.38513401107E+01 -0.56768881213E+02  0.76347245910E+02  0.47000000000E+01 0. -1.
        -11    1    4    4    0    0  0.18610356043E+02  0.12967344929E+02 -0.27819530602E+01  0.22852497662E+02  0.00000000000E+00 0.  1.
         12    1    4    4    0    0 -0.85342561222E+02  0.45115443496E+02 -0.11205706399E+02  0.97181911144E+02  0.00000000000E+00 0. -1.
         -5    1    5    5    0  502 -0.22018973614E+02  0.19892479768E+00  0.72092923441E+02  0.75527176436E+02  0.47000000000E+01 0.  1.
         11    1    6    6    0    0  0.12738386807E+01 -0.41635319733E+02  0.34906846076E+02  0.54347128878E+02  0.00000000000E+00 0. -1.
        -12    1    6    6    0    0  0.36789340910E+02 -0.20497733600E+02 -0.46965111548E+02  0.63081965648E+02  0.00000000000E+00 0.  1.
</event>
<event>
12    1  0.8728348E-002  0.2453334E+03  0.7818608E-02  0.1116579E+00
         21   -1    0    0  501  502  0.00000000000E+00  0.00000000000E+00  0.75961872417E+03  0.75961872417E+03  0.00000000000E+00 0. -1.
         21   -1    0    0  502  503 -0.00000000000E+00 -0.00000000000E+00 -0.78722765222E+02  0.78722765222E+02  0.00000000000E+00 0.  1.
         -6    2    1    2    0  503 -0.21055824017E+02 -0.17403610226E+03  0.35092149628E+03  0.42715827237E+03  0.16907507353E+03 0.  0.
        -24    2    3    3    0    0 -0.27766621640E+02 -0.14394620304E+03  0.35816308861E+03  0.39514315876E+03  0.79786109266E+02 0.  0.
          6    2    1    2  501    0  0.21055824017E+02  0.17403610226E+03  0.32997446266E+03  0.41118321701E+03  0.17162919136E+03 0.  0.
         24    2    5    5    0    0 -0.28915788000E+02  0.15570509650E+03  0.29559619047E+03  0.34764469816E+03  0.91648941410E+02 0.  0.
          5    1    5    5  501    0  0.49971612017E+02  0.18331005762E+02  0.34378272191E+02  0.63538518858E+02  0.47000000000E+01 0. -1.
        -13    1    6    6    0    0  0.19463152873E+02  0.95551152141E+02  0.11213133354E+03  0.14860105301E+03  0.00000000000E+00 0.  1.
         14    1    6    6    0    0 -0.48378940874E+02  0.60153944362E+02  0.18346485693E+03  0.19904364514E+03  0.00000000000E+00 0. -1.
         -5    1    3    3    0  503  0.67107976228E+01 -0.30089899226E+02 -0.72415923243E+01  0.32015113611E+02  0.47000000000E+01 0.  1.
         13    1    4    4    0    0 -0.54120279516E+01  0.21122992816E+01  0.79651530205E+02  0.79863121144E+02  0.00000000000E+00 0. -1.
        -14    1    4    4    0    0 -0.22354593688E+02 -0.14605850232E+03  0.27851155840E+03  0.31528003762E+03  0.00000000000E+00 0.  1.
</event>
<event>
12    1  0.8728348E-002  0.1824147E+03  0.7818608E-02  0.1166229E+00
         21   -1    0    0  503  502  0.00000000000E+00  0.00000000000E+00  0.59134735360E+03  0.59134735360E+03  0.00000000000E+00 0.  1.
         21   -1    0    0  501  503 -0.00000000000E+00 -0.00000000000E+00 -0.42754281433E+03  0.42754281433E+03  0.00000000000E+00 0.  1.
          6    2    1    2  501    0  0.50097634749E+02 -0.48500328780E+01 -0.39353163330E+03  0.43246138564E+03  0.17211161446E+03 0.  0.
         24    2    3    3    0    0 -0.11071841257E+02  0.44928504521E+02 -0.14709489541E+03  0.17367042102E+03  0.79895874093E+02 0.  0.
         -6    2    1    2    0  502 -0.50097634749E+02  0.48500328780E+01  0.55733617257E+03  0.58642878229E+03  0.17533342983E+03 0.  0.
        -24    2    5    5    0    0 -0.80998297689E+02  0.50217812360E+02  0.33492598711E+03  0.35729679635E+03  0.80018941087E+02 0.  0.
          5    1    3    3  501    0  0.61169476007E+02 -0.49778537399E+02 -0.24643673789E+03  0.25879096461E+03  0.47000000000E+01 0. -1.
        -13    1    4    4    0    0  0.34416578589E+02  0.20067526948E+02 -0.74252255027E+02  0.84265081120E+02  0.00000000000E+00 0.  1.
         14    1    4    4    0    0 -0.45488419846E+02  0.24860977573E+02 -0.72842640378E+02  0.89405339904E+02  0.00000000000E+00 0. -1.
         -5    1    5    5    0  502  0.30900662940E+02 -0.45367779482E+02  0.22241018546E+03  0.22913198594E+03  0.47000000000E+01 0.  1.
         11    1    6    6    0    0  0.17770077977E+01 -0.14355832012E+02  0.16162673527E+02  0.21690543677E+02  0.00000000000E+00 0. -1.
        -12    1    6    6    0    0 -0.82775305487E+02  0.64573644372E+02  0.31876331358E+03  0.33560625267E+03  0.00000000000E+00 0.  1.
</event>
<event>
12    1  0.8728348E-002  0.1774876E+03  0.7818608E-02  0.1170632E+00
         21   -1    0    0  501  502  0.00000000000E+00  0.00000000000E+00  0.10043149733E+03  0.10043149733E+03  0.00000000000E+00 0.  1.
         21   -1    0    0  502  503 -0.00000000000E+00 -0.00000000000E+00 -0.53978488447E+03  0.53978488447E+03  0.00000000000E+00 0.  1.
         -6    2    1    2    0  503  0.26107443845E+02 -0.32940507734E+02 -0.42862392012E+03  0.46391842646E+03  0.17243887565E+03 0.  0.
        -24    2    3    3    0    0 -0.41403789387E+02 -0.44249267446E+02 -0.32039244231E+03  0.33577086523E+03  0.80115450487E+02 0.  0.
          6    2    1    2  501    0 -0.26107443845E+02  0.32940507734E+02 -0.10729467019E+02  0.17629795534E+03  0.17087765190E+03 0.  0.
         24    2    5    5    0    0 -0.71378715352E+02 -0.17163032907E+02 -0.91277365170E+01  0.10858895779E+03  0.79490599919E+02 0.  0.
          5    1    5    5  501    0  0.45271271506E+02  0.50103540641E+02 -0.16017305017E+01  0.67708997549E+02  0.47000000000E+01 0. -1.
        -13    1    6    6    0    0 -0.26409862808E+02 -0.47083404292E+02 -0.79188892425E+01  0.54562227045E+02  0.00000000000E+00 0.  1.
         14    1    6    6    0    0 -0.44968852543E+02  0.29920371385E+02 -0.12088472745E+01  0.54026730742E+02  0.00000000000E+00 0. -1.
         -5    1    3    3    0  503  0.67511233232E+02  0.11308759713E+02 -0.10823147782E+03  0.12814756123E+03  0.47000000000E+01 0.  1.
         13    1    4    4    0    0 -0.26740186498E+02 -0.73625630882E+01 -0.23838469578E+02  0.36572086910E+02  0.00000000000E+00 0. -1.
        -14    1    4    4    0    0 -0.14663602889E+02 -0.36886704358E+02 -0.29655397273E+03  0.29919877832E+03  0.00000000000E+00 0.  1.
</event>
<event>
12    1  0.8728348E-002  0.1811271E+03  0.7818608E-02  0.1167312E+00
         21   -1    0    0  501  502  0.00000000000E+00  0.00000000000E+00  0.15821462010E+02  0.15821462010E+02  0.00000000000E+00 0. -1.
         21   -1    0    0  502  503 -0.00000000000E+00 -0.00000000000E+00 -0.28393372595E+04  0.28393372595E+04  0.00000000000E+00 0. -1.
         -6    2    1    2    0  503  0.18257411038E+02  0.40422015113E+02 -0.21735625552E+04  0.21810963275E+04  0.17561245992E+03 0.  0.
        -24    2    3    3    0    0  0.33039869557E+02 -0.33848024991E+02 -0.68286859562E+03  0.68847275437E+03  0.73809842443E+02 0.  0.
          6    2    1    2  501    0 -0.18257411038E+02 -0.40422015113E+02 -0.64995324228E+03  0.67406239401E+03  0.17307114577E+03 0.  0.
         24    2    5    5    0    0 -0.36336952897E+02 -0.22532105135E+02 -0.16210925915E+03  0.18553321311E+03  0.79467549075E+02 0.  0.
          5    1    5    5  501    0  0.18079541859E+02 -0.17889909978E+02 -0.48784398313E+03  0.48852918090E+03  0.47000000000E+01 0. -1.
        -13    1    6    6    0    0 -0.37287179800E+02  0.23052533112E+01 -0.15534463958E+03  0.15977360551E+03  0.00000000000E+00 0.  1.
         14    1    6    6    0    0  0.95022690332E+00 -0.24837358446E+02 -0.67646195681E+01  0.25759607599E+02  0.00000000000E+00 0. -1.
         -5    1    3    3    0  503 -0.14782458519E+02  0.74270040104E+02 -0.14906939596E+04  0.14926235732E+04  0.47000000000E+01 0.  1.
         11    1    4    4    0    0 -0.96983859848E+01  0.14913753450E+02 -0.26572975670E+03  0.26632458078E+03  0.00000000000E+00 0. -1.
        -12    1    4    4    0    0  0.42738255541E+02 -0.48761778441E+02 -0.41713883893E+03  0.42214817359E+03  0.00000000000E+00 0.  1.
</event>
<event>
12    1  0.8728348E-002  0.2467700E+03  0.7818608E-02  0.1115872E+00
         21   -1    0    0  503  502  0.00000000000E+00  0.00000000000E+00  0.49567065767E+03  0.49567065767E+03  0.00000000000E+00 0. -1.
         21   -1    0    0  501  503 -0.00000000000E+00 -0.00000000000E+00 -0.44020520586E+03  0.44020520586E+03  0.00000000000E+00 0.  1.
          6    2    1    2  501    0  0.52313367729E+02  0.16605356140E+03 -0.37060042392E+03  0.44350651347E+03  0.17041971595E+03 0.  0.
         24    2    3    3    0    0  0.56548444923E+01  0.17690788216E+03 -0.31915878997E+03  0.37305677413E+03  0.77334645990E+02 0.  0.
         -6    2    1    2    0  502 -0.52313367729E+02 -0.16605356140E+03  0.42606587573E+03  0.49236935006E+03  0.17488559895E+03 0.  0.
        -24    2    5    5    0    0  0.19670998285E+01 -0.17628297818E+03  0.35104800158E+03  0.39909136998E+03  0.70424884102E+02 0.  0.
          5    1    3    3  501    0  0.46658523237E+02 -0.10854320765E+02 -0.51441633942E+02  0.70449739336E+02  0.47000000000E+01 0. -1.
        -13    1    4    4    0    0 -0.87939584900E+01  0.10916416512E+02 -0.82172716193E+02  0.83359805314E+02  0.00000000000E+00 0.  1.
         14    1    4    4    0    0  0.14448802982E+02  0.16599146565E+03 -0.23698607378E+03  0.28969696882E+03  0.00000000000E+00 0. -1.
         -5    1    5    5    0  502 -0.54280467558E+02  0.10229416784E+02  0.75017874153E+02  0.93277980084E+02  0.47000000000E+01 0.  1.
         11    1    6    6    0    0  0.17619609198E+02 -0.14168486468E+03  0.31865101901E+03  0.34917549087E+03  0.00000000000E+00 0. -1.
        -12    1    6    6    0    0 -0.15652509370E+02 -0.34598113505E+02  0.32396982562E+02  0.49915879104E+02  0.00000000000E+00 0.  1.
</event>
<event>
12    1  0.8728348E-002  0.1898276E+03  0.7818608E-02  0.1161595E+00
         21   -1    0    0  503  502  0.00000000000E+00  0.00000000000E+00  0.23849938161E+02  0.23849938161E+02  0.00000000000E+00 0.  1.
         21   -1    0    0  501  503 -0.00000000000E+00 -0.00000000000E+00 -0.18832366468E+04  0.18832366468E+04  0.00000000000E+00 0.  1.
          6    2    1    2  501    0  0.62583473750E+02 -0.93310674994E+01 -0.13826272210E+04  0.13939256667E+04  0.16542965886E+03 0.  0.
         24    2    3    3    0    0  0.25362804309E+02 -0.57506091710E+02 -0.11018509455E+04  0.11065868108E+04  0.80676151674E+02 0.  0.
         -6    2    1    2    0  502 -0.62583473750E+02  0.93310674994E+01 -0.47675948765E+03  0.51316091827E+03  0.17897139148E+03 0.  0.
        -24    2    5    5    0    0 -0.98027188154E+02 -0.37430864390E+02 -0.35037960933E+03  0.37374463942E+03  0.76868625812E+02 0.  0.
          5    1    3    3  501    0  0.37220669440E+02  0.48175024211E+02 -0.28077627555E+03  0.28733885588E+03  0.47000000000E+01 0. -1.
        -11    1    4    4    0    0  0.38508892604E+02 -0.35713825153E+02 -0.31684686822E+03  0.32117028197E+03  0.00000000000E+00 0.  1.
         12    1    4    4    0    0 -0.13146088294E+02 -0.21792266558E+02 -0.78500407725E+03  0.78541652887E+03  0.00000000000E+00 0. -1.
         -5    1    5    5    0  502  0.35443714404E+02  0.46761931890E+02 -0.12637987832E+03  0.13941627885E+03  0.47000000000E+01 0.  1.
         11    1    6    6    0    0 -0.35631425664E+02 -0.30623516780E+02 -0.25681581585E+03  0.26107807558E+03  0.00000000000E+00 0. -1.
        -12    1    6    6    0    0 -0.62395762489E+02 -0.68073476104E+01 -0.93563793473E+02  0.11266656384E+03  0.00000000000E+00 0.  1.
</event>
<event>
12    1  0.8728348E-002  0.2491189E+03  0.7818608E-02  0.1113910E+00
         21   -1    0    0  501  502  0.00000000000E+00  0.00000000000E+00  0.45795975448E+02  0.45795975448E+02  0.00000000000E+00 0. -1.
         21   -1    0    0  502  503 -0.00000000000E+00 -0.00000000000E+00 -0.16768687223E+04  0.16768687223E+04  0.00000000000E+00 0. -1.
         -6    2    1    2    0  503 -0.14640516762E+03  0.10548376835E+03 -0.11941508267E+04  0.12198591732E+04  0.17175245873E+03 0.  0.
        -24    2    3    3    0    0 -0.15517937643E+03  0.70338672514E+02 -0.73846279068E+03  0.76270948146E+03  0.85850405745E+02 0.  0.
          6    2    1    2  501    0  0.14640516762E+03 -0.10548376835E+03 -0.43692192018E+03  0.50280552456E+03  0.17132230650E+03 0.  0.
         24    2    5    5    0    0  0.12759798882E+03 -0.12542723757E+03 -0.26832348990E+03  0.33192845579E+03  0.78522390785E+02 0.  0.
          5    1    5    5  501    0  0.18807178791E+02  0.19943469225E+02 -0.16859843028E+03  0.17087706877E+03  0.47000000000E+01 0. -1.
        -13    1    6    6    0    0  0.16533862520E+02 -0.47383450259E+02 -0.32382537087E+02  0.59725946426E+02  0.00000000000E+00 0.  1.
         14    1    6    6    0    0  0.11106412631E+03 -0.78043787311E+02 -0.23594095282E+03  0.27220250937E+03  0.00000000000E+00 0. -1.
         -5    1    3    3    0  503  0.87742088189E+01  0.35145095832E+02 -0.45568803600E+03  0.45714969174E+03  0.47000000000E+01 0.  1.
         11    1    4    4    0    0 -0.14301295699E+03  0.27009128317E+02 -0.54739253142E+03  0.56641043629E+03  0.00000000000E+00 0. -1.
        -12    1    4    4    0    0 -0.12166419449E+02  0.43329544196E+02 -0.19107025926E+03  0.19629904517E+03  0.00000000000E+00 0.  1.
</event>
<event>
12    1  0.8728348E-002  0.2085161E+03  0.7818608E-02  0.1143063E+00
         21   -1    0    0  503  502  0.00000000000E+00  0.00000000000E+00  0.61029442872E+03  0.61029442872E+03  0.00000000000E+00 0. -1.
         21   -1    0    0  501  503 -0.00000000000E+00 -0.00000000000E+00 -0.73491423832E+02  0.73491423832E+02  0.00000000000E+00 0.  1.
          6    2    1    2  501    0 -0.98676104359E+02  0.60326997066E+02  0.20280820619E+03  0.29087821351E+03  0.17350114250E+03 0.  0.
         24    2    3    3    0    0 -0.35528372310E+02 -0.24121500933E+02  0.14629815396E+03  0.17115076937E+03  0.77751681380E+02 0.  0.
         -6    2    1    2    0  502  0.98676104359E+02 -0.60326997066E+02  0.33399479870E+03  0.39290763904E+03  0.17160293446E+03 0.  0.
        -24    2    5    5    0    0  0.25558927941E+02  0.29090456703E+02  0.11321819149E+03  0.14369687921E+03  0.79567083284E+02 0.  0.
          5    1    3    3  501    0 -0.63147732049E+02  0.84448498000E+02  0.56510052235E+02  0.11972744414E+03  0.47000000000E+01 0. -1.
        -11    1    4    4    0    0 -0.11137794448E+02  0.87368536374E+01 -0.45355757141E+01  0.14864539135E+02  0.00000000000E+00 0.  1.
         12    1    4    4    0    0 -0.24390577862E+02 -0.32858354571E+02  0.15083372967E+03  0.15628623023E+03  0.00000000000E+00 0. -1.
         -5    1    5    5    0  502  0.73117176418E+02 -0.89417453769E+02  0.22077660721E+03  0.24921075983E+03  0.47000000000E+01 0.  1.
         11    1    6    6    0    0  0.92206731291E+01 -0.57458685080E+01  0.10342328901E+03  0.10399236764E+03  0.00000000000E+00 0. -1.
        -12    1    6    6    0    0  0.16338254812E+02  0.34836325211E+02  0.97949024790E+01  0.39704511571E+02  0.00000000000E+00 0.  1.
</event>
<event>
12    1  0.8728348E-002  0.1802597E+03  0.7818608E-02  0.1167928E+00
         21   -1    0    0  501  502  0.00000000000E+00  0.00000000000E+00  0.13047774730E+03  0.13047774730E+03  0.00000000000E+00 0.  1.
         21   -1    0    0  502  503 -0.00000000000E+00 -0.00000000000E+00 -0.25783944951E+03  0.25783944951E+03  0.00000000000E+00 0. -1.
         -6    2    1    2    0  503 -0.45601314685E+02 -0.24397711967E+02 -0.10341585045E+03  0.20647400764E+03  0.17106124475E+03 0.  0.
        -24    2    3    3    0    0 -0.27777412297E+02 -0.77419395675E+02 -0.33484708585E+02  0.11679990300E+03  0.75865961877E+02 0.  0.
          6    2    1    2  501    0  0.45601314685E+02  0.24397711967E+02 -0.23945851755E+02  0.18184318917E+03  0.17268124792E+03 0.  0.
         24    2    5    5    0    0  0.60486260311E+02  0.17745425334E+02  0.45286097072E+02  0.11056228527E+03  0.78738177071E+02 0.  0.
          5    1    5    5  501    0 -0.14884945627E+02  0.66522866327E+01 -0.69231948827E+02  0.71280903909E+02  0.47000000000E+01 0. -1.
        -11    1    6    6    0    0  0.26970519026E+02  0.47584690420E+02  0.16043391266E+02  0.57000895276E+02  0.00000000000E+00 0.  1.
         12    1    6    6    0    0  0.33515741285E+02 -0.29839265086E+02  0.29242705806E+02  0.53561389990E+02  0.00000000000E+00 0. -1.
         -5    1    3    3    0  503 -0.17823902388E+02  0.53021683709E+02 -0.69931141868E+02  0.89674104637E+02  0.47000000000E+01 0.  1.
         13    1    4    4    0    0 -0.45562587114E+02 -0.78737998627E+02 -0.17062888442E+02  0.92556814629E+02  0.00000000000E+00 0. -1.
        -14    1    4    4    0    0  0.17785174817E+02  0.13186029523E+01 -0.16421820143E+02  0.24243088372E+02  0.00000000000E+00 0.  1.
</event>
<event>
12    1  0.8728348E-002  0.1960102E+03  0.7818608E-02  0.1153176E+00
         21   -1    0    0  503  502  0.00000000000E+00  0.00000000000E+00  0.40894874945E+02  0.40894874945E+02  0.00000000000E+00 0. -1.
         21   -1    0    0  501  503 -0.00000000000E+00 -0.00000000000E+00 -0.11787954567E+04  0.11787954567E+04  0.00000000000E+00 0.  1.
          6    2    1    2  501    0  0.56231183919E+02  0.70431905694E+02 -0.84392701346E+03  0.86636261922E+03  0.17392177709E+03 0.  0.
         24    2    3    3    0    0  0.54887979556E+02  0.10063776604E+03 -0.80159325196E+03  0.81412819034E+03  0.84334562701E+02 0.  0.
         -6    2    1    2    0  502 -0.56231183919E+02 -0.70431905694E+02 -0.29397356833E+03  0.35332771246E+03  0.17406152399E+03 0.  0.
        -24    2    5    5    0    0 -0.40311613157E+02  0.28541432319E+02 -0.19325789173E+03  0.21114862862E+03  0.69249484735E+02 0.  0.
          5    1    3    3  501    0  0.13432043625E+01 -0.30205860349E+02 -0.42333761501E+02  0.52234428877E+02  0.47000000000E+01 0. -1.
        -13    1    4    4    0    0  0.71695099254E+02  0.50855206697E+02 -0.43536085450E+03  0.44414582396E+03  0.00000000000E+00 0.  1.
         14    1    4    4    0    0 -0.16807119698E+02  0.49782559345E+02 -0.36623239746E+03  0.36998236638E+03  0.00000000000E+00 0. -1.
         -5    1    5    5    0  502 -0.15919570761E+02 -0.98973338013E+02 -0.10071567660E+03  0.14217908385E+03  0.47000000000E+01 0.  1.
         11    1    6    6    0    0 -0.49964319531E+00  0.28150066774E+02 -0.23168694337E+02  0.36461819757E+02  0.00000000000E+00 0. -1.
        -12    1    6    6    0    0 -0.39811969962E+02  0.39136554511E+00 -0.17008919739E+03  0.17468680886E+03  0.00000000000E+00 0.  1.
</event>
<event>
12    1  0.8728348E-002  0.2312861E+03  0.7818608E-02  0.1125742E+00
         21   -1    0    0  501  502  0.00000000000E+00  0.00000000000E+00  0.11352191972E+04  0.11352191972E+04  0.00000000000E+00 0.  1.
         21   -1    0    0  502  503 -0.00000000000E+00 -0.00000000000E+00 -0.48116365984E+02  0.48116365984E+02  0.00000000000E+00 0. -1.
         -6    2    1    2    0  503  0.55752661446E+02 -0.14503520363E+03  0.62888764549E+03  0.67006935195E+03  0.17131753040E+03 0.  0.
        -24    2    3    3    0    0 -0.75578022544E+01 -0.14977282791E+03  0.46727335406E+03  0.49636866372E+03  0.74487868492E+02 0.  0.
          6    2    1    2  501    0 -0.55752661446E+02  0.14503520363E+03  0.45821518574E+03  0.51326621125E+03  0.17128186599E+03 0.  0.
         24    2    5    5    0    0 -0.99951220589E+02  0.12625891377E+03  0.39374259411E+03  0.43273754081E+03  0.79353569586E+02 0.  0.
          5    1    5    5  501    0  0.44198559142E+02  0.18776289857E+02  0.64472591627E+02  0.80528670436E+02  0.47000000000E+01 0. -1.
        -13    1    6    6    0    0  0.71084666500E+01  0.68043081054E+01  0.77661418822E+02  0.78282340795E+02  0.00000000000E+00 0.  1.
         14    1    6    6    0    0 -0.10705968724E+03  0.11945460566E+03  0.31608117529E+03  0.35445520002E+03  0.00000000000E+00 0. -1.
         -5    1    3    3    0  503  0.63310463701E+02  0.47376242808E+01  0.16161429143E+03  0.17370068823E+03  0.47000000000E+01 0.  1.
         11    1    4    4    0    0  0.11040250238E+02 -0.24883190734E+02  0.26978478000E+02  0.38326212722E+02  0.00000000000E+00 0. -1.
        -12    1    4    4    0    0 -0.18598052492E+02 -0.12488963717E+03  0.44029487606E+03  0.45804245100E+03  0.00000000000E+00 0.  1.
</event>
<event>
12    1  0.8728348E-002  0.2572969E+03  0.7818608E-02  0.1108979E+00
         21   -1    0    0  501  502  0.00000000000E+00  0.00000000000E+00  0.48297450581E+02  0.48297450581E+02  0.00000000000E+00 0. -1.
         21   -1    0    0  502  503 -0.00000000000E+00 -0.00000000000E+00 -0.15303835177E+04  0.15303835177E+04  0.00000000000E+00 0.  1.
         -6    2    1    2    0  503  0.16750837186E+03  0.88290636381E+02 -0.47886902885E+03  0.54299467399E+03  0.17225962403E+03 0.  0.
        -24    2    3    3    0    0  0.64630047168E+02 -0.78178866134E+01 -0.12688676754E+03  0.16387147481E+03  0.80718313470E+02 0.  0.
          6    2    1    2  501    0 -0.16750837186E+03 -0.88290636381E+02 -0.10032170383E+04  0.10356862943E+04  0.17420500336E+03 0.  0.
         24    2    5    5    0    0 -0.55928011556E+02 -0.78938539255E+02 -0.72503716320E+03  0.73578002323E+03  0.79587179336E+02 0.  0.
          5    1    5    5  501    0 -0.11158036030E+03 -0.93520971265E+01 -0.27817987507E+03  0.29990627106E+03  0.47000000000E+01 0. -1.
        -13    1    6    6    0    0 -0.61695569817E+02 -0.57095302524E+02 -0.68211709406E+03  0.68727719801E+03  0.00000000000E+00 0.  1.
         14    1    6    6    0    0  0.57675582611E+01 -0.21843236731E+02 -0.42920069140E+02  0.48502825219E+02  0.00000000000E+00 0. -1.
         -5    1    3    3    0  503  0.10287832469E+03  0.96108522994E+02 -0.35198226130E+03  0.37912319918E+03  0.47000000000E+01 0.  1.
         11    1    4    4    0    0 -0.98755133469E+01 -0.81973361242E+01  0.38457255248E+01  0.13398197200E+02  0.00000000000E+00 0. -1.
        -12    1    4    4    0    0  0.74505560515E+02  0.37944951083E+00 -0.13073249307E+03  0.15047327761E+03  0.00000000000E+00 0.  1.
</event>
<event>
12    1  0.8728348E-002  0.2506595E+03  0.7818608E-02  0.1113038E+00
         21   -1    0    0  503  502  0.00000000000E+00  0.00000000000E+00  0.35411708161E+02  0.35411708161E+02  0.00000000000E+00 0.  1.
         21   -1    0    0  501  503 -0.00000000000E+00 -0.00000000000E+00 -0.17790001572E+04  0.17790001572E+04  0.00000000000E+00 0. -1.
          6    2    1    2  501    0  0.49355106429E+02  0.17427201384E+03 -0.94607982014E+03  0.97872222918E+03  0.17327294792E+03 0.  0.
         24    2    3    3    0    0 -0.13808647958E+02  0.10335127389E+03 -0.32486080768E+03  0.35026812373E+03  0.79253072867E+02 0.  0.
         -6    2    1    2    0  502 -0.49355106429E+02 -0.17427201384E+03 -0.79750862892E+03  0.83568963620E+03  0.17190256982E+03 0.  0.
        -24    2    5    5    0    0 -0.28321516893E+02 -0.68137649012E+02 -0.60499679755E+03  0.61480547991E+03  0.80745312804E+02 0.  0.
          5    1    3    3  501    0  0.63163754387E+02  0.70920739948E+02 -0.62121901246E+03  0.62845410546E+03  0.47000000000E+01 0. -1.
        -11    1    4    4    0    0  0.18014784536E+02  0.48724829329E+02 -0.67052174990E+02  0.84821197975E+02  0.00000000000E+00 0.  1.
         12    1    4    4    0    0 -0.31823432494E+02  0.54626444561E+02 -0.25780863269E+03  0.26544692575E+03  0.00000000000E+00 0. -1.
         -5    1    5    5    0  502 -0.21033589536E+02 -0.10613436483E+03 -0.19251183137E+03  0.22088415630E+03  0.47000000000E+01 0.  1.
         13    1    6    6    0    0  0.23898163072E+02 -0.93196245540E+01 -0.81743337729E+02  0.85673513195E+02  0.00000000000E+00 0. -1.
        -14    1    6    6    0    0 -0.52219679965E+02 -0.58818024458E+02 -0.52325345983E+03  0.52913196671E+03  0.00000000000E+00 0.  1.
</event>
<event>
12    1  0.8728348E-002  0.1926781E+03  0.7818608E-02  0.1157407E+00
         21   -1    0    0  501  502  0.00000000000E+00  0.00000000000E+00  0.62536462431E+02  0.62536462431E+02  0.00000000000E+00 0. -1.
         21   -1    0    0  502  503 -0.00000000000E+00 -0.00000000000E+00 -0.57735209157E+03  0.57735209157E+03  0.00000000000E+00 0. -1.
         -6    2    1    2    0  503 -0.31527347395E+02 -0.66116514379E+02 -0.27969173917E+03  0.33963554429E+03  0.17821185952E+03 0.  0.
        -24    2    3    3    0    0  0.89006496328E+01 -0.10968019922E+03 -0.17086281996E+03  0.21554670016E+03  0.71814406907E+02 0.  0.
          6    2    1    2  501    0  0.31527347395E+02  0.66116514379E+02 -0.23512388996E+03  0.30025300971E+03  0.17176512772E+03 0.  0.
         24    2    5    5    0    0  0.63686465814E+01  0.12146720275E+01 -0.34827878904E+02  0.88154467957E+02  0.80722945835E+02 0.  0.
          5    1    5    5  501    0  0.25158700813E+02  0.64901842352E+02 -0.20029601106E+03  0.21209854175E+03  0.47000000000E+01 0. -1.
        -11    1    6    6    0    0 -0.51659363317E+01 -0.23144714321E+02 -0.51335817306E+02  0.56548482187E+02  0.00000000000E+00 0.  1.
         12    1    6    6    0    0  0.11534582913E+02  0.24359386348E+02  0.16507938401E+02  0.31605985770E+02  0.00000000000E+00 0. -1.
         -5    1    3    3    0  503 -0.40427997028E+02  0.43563684841E+02 -0.10882891921E+03  0.12408884413E+03  0.47000000000E+01 0.  1.
         11    1    4    4    0    0  0.33552598493E+02 -0.39452338382E+02 -0.10081179490E+03  0.11333702776E+03  0.00000000000E+00 0. -1.
        -12    1    4    4    0    0 -0.24651948860E+02 -0.70227860839E+02 -0.70051025055E+02  0.10220967240E+03  0.00000000000E+00 0.  1.
</event>
<event>
12    1  0.8728348E-002  0.2150102E+03  0.7818608E-02  0.1137823E+00
         21   -1    0    0  503  502  0.00000000000E+00  0.00000000000E+00  0.14036882916E+03  0.14036882916E+03  0.00000000000E+00 0.  1.
         21   -1    0    0  501  503 -0.00000000000E+00 -0.00000000000E+00 -0.57783181468E+03  0.57783181468E+03  0.00000000000E+00 0. -1.
          6    2    1    2  501    0  0.12710163565E+03 -0.12971467776E+02 -0.45508207080E+03  0.50331805933E+03  0.17293436015E+03 0.  0.
         24    2    3    3    0    0  0.19769078413E+02 -0.29241629333E+02 -0.10248017063E+03  0.13435303931E+03  0.79389322016E+02 0.  0.
         -6    2    1    2    0  502 -0.12710163565E+03  0.12971467776E+02  0.17619085282E+02  0.21488258451E+03  0.17187497840E+03 0.  0.
        -24    2    5    5    0    0 -0.11811864431E+03 -0.49340326633E+02  0.58922875280E+01  0.15067151349E+03  0.79250892483E+02 0.  0.
          5    1    3    3  501    0  0.10733255724E+03  0.16270161558E+02 -0.35260190017E+03  0.36896502002E+03  0.47000000000E+01 0. -1.
        -11    1    4    4    0    0  0.15128281473E+02 -0.39063573339E+02 -0.11220698497E+03  0.11977159571E+03  0.00000000000E+00 0.  1.
         12    1    4    4    0    0  0.46407969403E+01  0.98219440054E+01  0.97268143359E+01  0.14581443598E+02  0.00000000000E+00 0. -1.
         -5    1    5    5    0  502 -0.89829913344E+01  0.62311794409E+02  0.11726797754E+02  0.64211071018E+02  0.47000000000E+01 0.  1.
         13    1    6    6    0    0 -0.40950204296E+02  0.23925970035E+01 -0.30267424586E+02  0.50978041777E+02  0.00000000000E+00 0. -1.
        -14    1    6    6    0    0 -0.77168440018E+02 -0.51732923636E+02  0.36159712114E+02  0.99693471717E+02  0.00000000000E+00 0.  1.
</event>
<event>
12    1  0.8728348E-002  0.1978877E+03  0.7818608E-02  0.1151563E+00
         21   -1    0    0  503  502  0.00000000000E+00  0.00000000000E+00  0.22185140515E+04  0.22185140515E+04  0.00000000000E+00 0.  1.
         21   -1    0    0  501  503 -0.00000000000E+00 -0.00000000000E+00 -0.19841820655E+02  0.19841820655E+02  0.00000000000E+00 0.  1.
          6    2    1    2  501    0 -0.97975647702E+02  0.74998740794E+01  0.72609785682E+03  0.75254470480E+03  0.17160990468E+03 0.  0.
         24    2    3    3    0    0 -0.37627588406E+02  0.15359856361E+02  0.64432048108E+03  0.65049914259E+03  0.79677422028E+02 0.  0.
         -6    2    1    2    0  502  0.97975647702E+02 -0.74998740794E+01  0.14725743740E+04  0.14858111673E+04  0.17176746594E+03 0.  0.
        -24    2    5    5    0    0  0.12978406541E+03 -0.56936784130E+01  0.13649648278E+04  0.13734860044E+04  0.80364804046E+02 0.  0.
          5    1    3    3  501    0 -0.60348059295E+02 -0.78599822812E+01  0.81777375746E+02  0.10204556221E+03  0.47000000000E+01 0. -1.
        -11    1    4    4    0    0 -0.35112468756E+02  0.37675084014E+02  0.23564302305E+03  0.24120516523E+03  0.00000000000E+00 0.  1.
         12    1    4    4    0    0 -0.25151196502E+01 -0.22315227654E+02  0.40867745802E+03  0.40929397737E+03  0.00000000000E+00 0. -1.
         -5    1    5    5    0  502 -0.31808417706E+02 -0.18061956664E+01  0.10760954623E+03  0.11232516290E+03  0.47000000000E+01 0.  1.
         11    1    6    6    0    0  0.81165852326E+02  0.28966193138E+02  0.99598184730E+03  0.99970334404E+03  0.00000000000E+00 0. -1.
        -12    1    6    6    0    0  0.48618213081E+02 -0.34659871551E+02  0.36898298045E+03  0.37378266038E+03  0.00000000000E+00 0.  1.
</event>
<event>
12    1  0.8728348E-002  0.1857159E+03  0.7818608E-02  0.1162843E+00
         21   -1    0    0  503  502  0.00000000000E+00  0.00000000000E+00  0.20772448418E+03  0.20772448418E+03  0.00000000000E+00 0.  1.
         21   -1    0    0  501  503 -0.00000000000E+00 -0.00000000000E+00 -0.68740459578E+03  0.68740459578E+03  0.00000000000E+00 0.  1.
          6    2    1    2  501    0  0.28943041236E+02 -0.57466297358E+02 -0.62997009864E+03  0.65622013736E+03  0.17211179080E+03 0.  0.
         24    2    3    3    0    0  0.42414870933E+02  0.24941257840E+02 -0.29897390127E+03  0.31482144372E+03  0.85475494529E+02 0.  0.
         -6    2    1    2    0  502 -0.28943041236E+02  0.57466297358E+02  0.15028998704E+03  0.23890894259E+03  0.17421345436E+03 0.  0.
        -24    2    5    5    0    0 -0.73071241551E+02  0.70105956230E+02  0.75817047369E+02  0.15129976624E+03  0.83000862347E+02 0.  0.
          5    1    3    3  501    0 -0.13471829697E+02 -0.82407555198E+02 -0.33099619737E+03  0.34139869364E+03  0.47000000000E+01 0. -1.
        -11    1    4    4    0    0  0.22618826471E+02 -0.17880343350E+02 -0.22661693934E+03  0.22844376811E+03  0.00000000000E+00 0.  1.
         12    1    4    4    0    0  0.19796044462E+02  0.42821601190E+02 -0.72356961929E+02  0.86377675613E+02  0.00000000000E+00 0. -1.
         -5    1    5    5    0  502  0.44128200314E+02 -0.12639658872E+02  0.74472939668E+02  0.87609176358E+02  0.47000000000E+01 0.  1.
         11    1    6    6    0    0 -0.14822271685E+02  0.70757018146E+02  0.47742599573E+02  0.86634930420E+02  0.00000000000E+00 0. -1.
        -12    1    6    6    0    0 -0.58248969866E+02 -0.65106191551E+00  0.28074447796E+02  0.64664835815E+02  0.00000000000E+00 0.  1.
</event>
<event>
12    1  0.8728348E-002  0.1756196E+03  0.7818608E-02  0.1172255E+00
         21   -1    0    0  501  502  0.00000000000E+00  0.00000000000E+00  0.46569025813E+03  0.46569025813E+03  0.00000000000E+00 0. -1.
         21   -1    0    0  502  503 -0.00000000000E+00 -0.00000000000E+00 -0.12854299305E+03  0.12854299305E+03  0.00000000000E+00 0. -1.
         -6    2    1    2    0  503  0.19271346794E+02 -0.29524901154E+02 -0.38796901465E+02  0.17929198420E+03  0.17145644182E+03 0.  0.
        -24    2    3    3    0    0  0.56143759164E+02 -0.50077741568E+02  0.15090516886E+02  0.11067756954E+03  0.79761512056E+02 0.  0.
          6    2    1    2  501    0 -0.19271346794E+02  0.29524901154E+02  0.37594416654E+03  0.41494126698E+03  0.17204398883E+03 0.  0.
         24    2    5    5    0    0  0.72604077263E+01 -0.10227614218E+02  0.34907670303E+03  0.35991266467E+03  0.86748279413E+02 0.  0.
          5    1    5    5  501    0 -0.26531754520E+02  0.39752515372E+02  0.26867463513E+02  0.55028602308E+02  0.47000000000E+01 0. -1.
        -11    1    6    6    0    0 -0.19975991297E+02 -0.15630122763E+01  0.16079467199E+02  0.25691097701E+02  0.00000000000E+00 0.  1.
         12    1    6    6    0    0  0.27236399023E+02 -0.86646019417E+01  0.33299723583E+03  0.33422156697E+03  0.00000000000E+00 0. -1.
         -5    1    3    3    0  503 -0.36872412370E+02  0.20552840414E+02 -0.53887418350E+02  0.68614414663E+02  0.47000000000E+01 0.  1.
         13    1    4    4    0    0  0.30417803327E+02  0.16961800289E+02 -0.70535759440E+01  0.35534467238E+02  0.00000000000E+00 0. -1.
        -14    1    4    4    0    0  0.25725955837E+02 -0.67039541857E+02  0.22144092830E+02  0.75143102301E+02  0.00000000000E+00 0.  1.
</event>
<event>
12    1  0.8728348E-002  0.1998040E+03  0.7818608E-02  0.1150065E+00
         21   -1    0    0  501  502  0.00000000000E+00  0.00000000000E+00  0.29857229525E+03  0.29857229525E+03  0.00000000000E+00 0. -1.
         21   -1    0    0  502  503 -0.00000000000E+00 -0.00000000000E+00 -0.25512163945E+03  0.25512163945E+03  0.00000000000E+00 0. -1.
         -6    2    1    2    0  503 -0.13111260168E+02 -0.10128319189E+03 -0.16967847369E+03  0.26155415833E+03  0.17084965087E+03 0.  0.
        -24    2    3    3    0    0 -0.44169148027E+02 -0.25516113975E+02 -0.14721968957E+03  0.17651458237E+03  0.82956464996E+02 0.  0.
          6    2    1    2  501    0  0.13111260168E+02  0.10128319189E+03  0.21312912949E+03  0.29213977637E+03  0.17173069905E+03 0.  0.
         24    2    5    5    0    0  0.70574799962E+02  0.39390075270E+02  0.14610215586E+03  0.18421609275E+03  0.77828969305E+02 0.  0.
          5    1    5    5  501    0 -0.57463539794E+02  0.61893116620E+02  0.67026973633E+02  0.10792368361E+03  0.47000000000E+01 0. -1.
        -13    1    6    6    0    0 -0.50615075785E+01 -0.83178897071E+00 -0.70587309481E+01  0.87256182850E+01  0.00000000000E+00 0.  1.
         14    1    6    6    0    0  0.75636307541E+02  0.40221864241E+02  0.15316088681E+03  0.17549047447E+03  0.00000000000E+00 0. -1.
         -5    1    3    3    0  503  0.31057887859E+02 -0.75767077915E+02 -0.22458784126E+02  0.85039575954E+02  0.47000000000E+01 0.  1.
         11    1    4    4    0    0  0.24518184150E+02 -0.12040838315E+02 -0.44436852295E+02  0.52160875983E+02  0.00000000000E+00 0. -1.
        -12    1    4    4    0    0 -0.68687332177E+02 -0.13475275660E+02 -0.10278283727E+03  0.12435370639E+03  0.00000000000E+00 0.  1.
</event>
<event>
12    1  0.8728348E-002  0.1930318E+03  0.7818608E-02  0.1156386E+00
         21   -1    0    0  501  502  0.00000000000E+00  0.00000000000E+00  0.32211666995E+03  0.32211666995E+03  0.00000000000E+00 0. -1.
         21   -1    0    0  502  503 -0.00000000000E+00 -0.00000000000E+00 -0.12059725050E+03  0.12059725050E+03  0.00000000000E+00 0. -1.
         -6    2    1    2    0  503  0.70019346112E+02  0.52100510856E+02  0.48224320492E+02  0.19621715553E+03  0.16899235183E+03 0.  0.
        -24    2    3    3    0    0  0.80607856749E+02  0.82401226197E+02  0.27622961979E+01  0.14036793387E+03  0.80049596689E+02 0.  0.
          6    2    1    2  501    0 -0.70019346112E+02 -0.52100510856E+02  0.15329509896E+03  0.24649676491E+03  0.17217460813E+03 0.  0.
         24    2    5    5    0    0  0.11431268140E+02  0.15726405349E+02  0.89025079192E+02  0.12245073086E+03  0.81796840071E+02 0.  0.
          5    1    5    5  501    0 -0.81450614252E+02 -0.67826916205E+02  0.64270019770E+02  0.12404603406E+03  0.47000000000E+01 0. -1.
        -13    1    6    6    0    0  0.20574054504E+02 -0.30382344551E+02  0.44818164265E+02  0.57922762600E+02  0.00000000000E+00 0.  1.
         14    1    6    6    0    0 -0.91427863641E+01  0.46108749900E+02  0.44206914927E+02  0.64527968256E+02  0.00000000000E+00 0. -1.
         -5    1    3    3    0  503 -0.10588510637E+02 -0.30300715341E+02  0.45462024294E+02  0.55849221665E+02  0.47000000000E+01 0.  1.
         13    1    4    4    0    0 -0.71567437680E+01  0.42567797556E+02 -0.60396114955E+01  0.43585700375E+02  0.00000000000E+00 0. -1.
        -14    1    4    4    0    0  0.87764600517E+02  0.39833428641E+02  0.88019076934E+01  0.96782233495E+02  0.00000000000E+00 0.  1.
</event>
<event>
12    1  0.8728348E-002  0.2309519E+03  0.7818608E-02  0.1125978E+00
         21   -1    0    0  503  502  0.00000000000E+00  0.00000000000E+00  0.11073650063E+04  0.11073650063E+04  0.00000000000E+00 0. -1.
         21   -1    0    0  501  503 -0.00000000000E+00 -0.00000000000E+00 -0.48654127748E+02  0.48654127748E+02  0.00000000000E+00 0.  1.
          6    2    1    2  501    0 -0.15029689861E+03 -0.37525195100E+02  0.58756582706E+03  0.63131307112E+03  0.17124629817E+03 0.  0.
         24    2    3    3    0    0 -0.13644413811E+03 -0.48983184684E+02  0.30369441132E+03  0.34683415244E+03  0.83948071005E+02 0.  0.
         -6    2    1    2    0  502  0.15029689861E+03  0.37525195100E+02  0.47114505153E+03  0.52470606297E+03  0.17129359280E+03 0.  0.
        -24    2    5    5    0    0  0.10245560484E+03  0.75505106861E+02  0.21997265606E+03  0.26616994298E+03  0.79122038720E+02 0.  0.
          5    1    3    3  501    0 -0.13852760500E+02  0.11457989584E+02  0.28387141574E+03  0.28447891868E+03  0.47000000000E+01 0. -1.
        -11    1    4    4    0    0 -0.79476306065E+02 -0.47787345345E+02  0.25682087417E+03  0.27305141459E+03  0.00000000000E+00 0.  1.
         12    1    4    4    0    0 -0.56967832046E+02 -0.11958393387E+01  0.46873537154E+02  0.73782737853E+02  0.00000000000E+00 0. -1.
         -5    1    5    5    0  502  0.47841293773E+02 -0.37979911761E+02  0.25117239547E+03  0.25853611998E+03  0.47000000000E+01 0.  1.
         11    1    6    6    0    0  0.35184274326E+02 -0.11627184262E+02  0.35300486107E+02  0.51178597999E+02  0.00000000000E+00 0. -1.
        -12    1    6    6    0    0  0.67271330512E+02  0.87132291123E+02  0.18467216995E+03  0.21499134499E+03  0.00000000000E+00 0.  1.
</event>
<event>
12    1  0.8728348E-002  0.2419149E+03  0.7818608E-02  0.1118534E+00
         21   -1    0    0  501  502  0.00000000000E+00  0.00000000000E+00  0.15845825952E+03  0.15845825952E+03  0.00000000000E+00 0. -1.
         21   -1    0    0  502  503 -0.00000000000E+00 -0.00000000000E+00 -0.40451668680E+03  0.40451668680E+03  0.00000000000E+00 0. -1.
         -6    2    1    2    0  503 -0.16378010128E+03 -0.46852806070E+02 -0.20615364864E+03  0.31779087348E+03  0.17167587311E+03 0.  0.
        -24    2    3    3    0    0 -0.84270546494E+02  0.32465400893E+02 -0.14814712650E+03  0.19129979131E+03  0.80576124276E+02 0.  0.
          6    2    1    2  501    0  0.16378010128E+03  0.46852806070E+02 -0.39904778636E+02  0.24518407284E+03  0.17176650198E+03 0.  0.
         24    2    5    5    0    0  0.96508745878E+02 -0.40437942132E+02 -0.18670131072E+02  0.13285371079E+03  0.79701753321E+02 0.  0.
          5    1    5    5  501    0  0.67271355403E+02  0.87290748202E+02 -0.21234647564E+02  0.11233036204E+03  0.47000000000E+01 0. -1.
        -11    1    6    6    0    0  0.26410225168E+02 -0.45188547062E+02  0.15691571222E+02  0.54641835496E+02  0.00000000000E+00 0.  1.
         12    1    6    6    0    0  0.70098520710E+02  0.47506049296E+01 -0.34361702293E+02  0.78211875297E+02  0.00000000000E+00 0. -1.
         -5    1    3    3    0  503 -0.79509554787E+02 -0.79318206962E+02 -0.58006522139E+02  0.12649108217E+03  0.47000000000E+01 0.  1.
         11    1    4    4    0    0 -0.41297477507E+02 -0.23389600883E+02 -0.39249556037E+02  0.61588007981E+02  0.00000000000E+00 0. -1.
        -12    1    4    4    0    0 -0.42973068987E+02  0.55855001776E+02 -0.10889757047E+03  0.12971178333E+03  0.00000000000E+00 0.  1.
</event>
<event>
12    1  0.8728348E-002  0.1985188E+03  0.7818608E-02  0.1151487E+00
         21   -1    0    0  501  502  0.00000000000E+00  0.00000000000E+00  0.82296550517E+03  0.82296550517E+03  0.00000000000E+00 0.  1.
         21   -1    0    0  502  503 -0.00000000000E+00 -0.00000000000E+00 -0.66976969585E+02  0.66976969585E+02  0.00000000000E+00 0.  1.
         -6    2    1    2    0  503 -0.55291643284E+02  0.82898876426E+02  0.13547615012E+03  0.23844777343E+03  0.16903894188E+03 0.  0.
        -24    2    3    3    0    0  0.23721893029E+02  0.53012264697E+01  0.82178759429E+02  0.11545494415E+03  0.77367075794E+02 0.  0.
          6    2    1    2  501    0  0.55291643284E+02 -0.82898876426E+02  0.62051238546E+03  0.65149470132E+03  0.17169838616E+03 0.  0.
         24    2    5    5    0    0  0.18058555861E+02 -0.19565850883E+02  0.53608987739E+03  0.53948298411E+03  0.54227295193E+02 0.  0.
          5    1    5    5  501    0  0.37233087423E+02 -0.63333025543E+02  0.84422508069E+02  0.11201171721E+03  0.47000000000E+01 0. -1.
        -13    1    6    6    0    0  0.98095270181E+01 -0.10295982219E+02  0.29577492281E+02  0.32818624588E+02  0.00000000000E+00 0.  1.
         14    1    6    6    0    0  0.82490288429E+01 -0.92698686634E+01  0.50651238511E+03  0.50666435953E+03  0.00000000000E+00 0. -1.
         -5    1    3    3    0  503 -0.79013536313E+02  0.77597649956E+02  0.53297390691E+02  0.12299282928E+03  0.47000000000E+01 0.  1.
         13    1    4    4    0    0  0.32798471222E+02  0.24454289322E+02  0.84746717762E+02  0.94105037868E+02  0.00000000000E+00 0. -1.
        -14    1    4    4    0    0 -0.90765781929E+01 -0.19153062853E+02 -0.25679583330E+01  0.21349906284E+02  0.00000000000E+00 0.  1.
</event>
<event>
12    1  0.8728348E-002  0.1781164E+03  0.7818608E-02  0.1170251E+00
         21   -1    0    0  503  502  0.00000000000E+00  0.00000000000E+00  0.23486747131E+02  0.23486747131E+02  0.00000000000E+00 0. -1.
         21   -1    0    0  501  503 -0.00000000000E+00 -0.00000000000E+00 -0.15229699292E+04  0.15229699292E+04  0.00000000000E+00 0. -1.
          6    2    1    2  501    0  0.16243217154E+02  0.29286094900E+02 -0.10281089396E+04  0.10434239062E+04  0.17493981473E+03 0.  0.
         24    2    3    3    0    0  0.21958621502E+02 -0.42503147511E+01 -0.98423224655E+03  0.98770487160E+03  0.79671525599E+02 0.  0.
         -6    2    1    2    0  502 -0.16243217154E+02 -0.29286094900E+02 -0.47137424248E+03  0.50303277019E+03  0.17241454103E+03 0.  0.
        -24    2    5    5    0    0  0.29564755829E+02 -0.70043151669E+02 -0.23064945361E+03  0.25457749848E+03  0.76357150287E+02 0.  0.
          5    1    3    3  501    0 -0.57154043485E+01  0.33536409651E+02 -0.43876693083E+02  0.55719034585E+02  0.47000000000E+01 0. -1.
        -11    1    4    4    0    0  0.30522584152E+02 -0.11376727236E+01 -0.13453017460E+03  0.13795394275E+03  0.00000000000E+00 0.  1.
         12    1    4    4    0    0 -0.85639626498E+01 -0.31126420275E+01 -0.84970207195E+03  0.84975092885E+03  0.00000000000E+00 0. -1.
         -5    1    5    5    0  502 -0.45807972983E+02  0.40757056769E+02 -0.24072478887E+03  0.24845527171E+03  0.47000000000E+01 0.  1.
         13    1    6    6    0    0  0.26517723024E+02 -0.65074136253E+02 -0.91808077187E+02  0.11561382219E+03  0.00000000000E+00 0. -1.
        -14    1    6    6    0    0  0.30470328046E+01 -0.49690154165E+01 -0.13884137642E+03  0.13896367629E+03  0.00000000000E+00 0.  1.
</event>
<event>
12    1  0.8728348E-002  0.2248580E+03  0.7818608E-02  0.1131185E+00
         21   -1    0    0  501  502  0.00000000000E+00  0.00000000000E+00  0.12329775541E+03  0.12329775541E+03  0.00000000000E+00 0. -1.
         21   -1    0    0  502  503 -0.00000000000E+00 -0.00000000000E+00 -0.43469749086E+03  0.43469749086E+03  0.00000000000E+00 0.  1.
         -6    2    1    2    0  503 -0.98032570787E+02  0.10496082260E+03 -0.80065577655E+02  0.23868731100E+03  0.17301438232E+03 0.  0.
        -24    2    3    3    0    0 -0.74356994830E+02  0.28154160086E+01 -0.76513486386E+02  0.13366862534E+03  0.80474210486E+02 0.  0.
          6    2    1    2  501    0  0.98032570787E+02 -0.10496082260E+03 -0.23133415779E+03  0.31930793527E+03  0.16677801340E+03 0.  0.
         24    2    5    5    0    0  0.43097045600E+02 -0.18100253026E+02 -0.18300034221E+03  0.20563771841E+03  0.81318949101E+02 0.  0.
          5    1    5    5  501    0  0.54935525187E+02 -0.86860569574E+02 -0.48333815580E+02  0.11367021687E+03  0.47000000000E+01 0. -1.
        -13    1    6    6    0    0  0.53856098894E+02  0.12512553790E+02 -0.14760000319E+03  0.15761600278E+03  0.00000000000E+00 0.  1.
         14    1    6    6    0    0 -0.10759053294E+02 -0.30612806816E+02 -0.35400339021E+02  0.48021715627E+02  0.00000000000E+00 0. -1.
         -5    1    3    3    0  503 -0.23675575957E+02  0.10214540659E+03 -0.35520912692E+01  0.10501868566E+03  0.47000000000E+01 0.  1.
         11    1    4    4    0    0 -0.35550490766E+02  0.42292290235E+01  0.11390447102E+02  0.37569483055E+02  0.00000000000E+00 0. -1.
        -12    1    4    4    0    0 -0.38806504065E+02 -0.14138130149E+01 -0.87903933488E+02  0.96099142283E+02  0.00000000000E+00 0.  1.
</event>
<event>
12    1  0.8728348E-002  0.2117388E+03  0.7818608E-02  0.1141384E+00
         21   -1    0    0  501  502  0.00000000000E+00  0.00000000000E+00  0.73608805814E+02  0.73608805814E+02  0.00000000000E+00 0. -1.
         21   -1    0    0  502  503 -0.00000000000E+00 -0.00000000000E+00 -0.62310381769E+03  0.62310381769E+03  0.00000000000E+00 0. -1.
         -6    2    1    2    0  503 -0.30799454794E+02  0.11870429673E+03 -0.19322152358E+03  0.28226827164E+03  0.16523166623E+03 0.  0.
        -24    2    3    3    0    0 -0.82011578661E+02  0.78900025091E+02 -0.15125263915E+03  0.20486969974E+03  0.78378058344E+02 0.  0.
          6    2    1    2  501    0  0.30799454794E+02 -0.11870429673E+03 -0.35627348829E+03  0.41444435186E+03  0.17260940256E+03 0.  0.
         24    2    5    5    0    0 -0.21247428488E+02 -0.12439206424E+03 -0.31041583019E+03  0.34468588596E+03  0.80780774201E+02 0.  0.
          5    1    5    5  501    0  0.52046883282E+02  0.56877675158E+01 -0.45857658103E+02  0.69758465905E+02  0.47000000000E+01 0. -1.
        -13    1    6    6    0    0 -0.21977889005E+01 -0.41788408504E+02 -0.20591918917E+03  0.21012808910E+03  0.00000000000E+00 0.  1.
         14    1    6    6    0    0 -0.19049639588E+02 -0.82603655737E+02 -0.10449664102E+03  0.13455779686E+03  0.00000000000E+00 0. -1.
         -5    1    3    3    0  503  0.51212123867E+02  0.39804271635E+02 -0.41968884428E+02  0.77398571896E+02  0.47000000000E+01 0.  1.
         13    1    4    4    0    0 -0.12443607862E+01  0.43278416765E+02 -0.81790449105E+02  0.92543218856E+02  0.00000000000E+00 0. -1.
        -14    1    4    4    0    0 -0.80767217875E+02  0.35621608326E+02 -0.69462190045E+02  0.11232648089E+03  0.00000000000E+00 0.  1.
</event>
<event>
12    1  0.8728348E-002  0.2195448E+03  0.7818608E-02  0.1135715E+00
         21   -1    0    0  503  502  0.00000000000E+00  0.00000000000E+00  0.74568071771E+03  0.74568071771E+03  0.00000000000E+00 0.  1.
         21   -1    0    0  501  503 -0.00000000000E+00 -0.00000000000E+00 -0.39332947709E+03  0.39332947709E+03  0.00000000000E+00 0.  1.
          6    2    1    2  501    0 -0.73081470214E+02  0.11520000764E+03 -0.34572097081E+03  0.40953986568E+03  0.17201153705E+03 0.  0.
         24    2    3    3    0    0 -0.11584915834E+03  0.84444811243E+02 -0.28424144912E+03  0.32844252392E+03  0.80804309862E+02 0.  0.
         -6    2    1    2    0  502  0.73081470214E+02 -0.11520000764E+03  0.69807221143E+03  0.72947032911E+03  0.16189566283E+03 0.  0.
        -24    2    5    5    0    0 -0.89825775023E+01 -0.51854352528E+02  0.21352961492E+03  0.23393950487E+03  0.79769887271E+02 0.  0.
          5    1    3    3  501    0  0.42767688124E+02  0.30755196397E+02 -0.61479521691E+02  0.81097341759E+02  0.47000000000E+01 0. -1.
        -13    1    4    4    0    0 -0.20576906334E+02  0.50067963691E+02 -0.15538869581E+03  0.16454743039E+03  0.00000000000E+00 0.  1.
         14    1    4    4    0    0 -0.95272252004E+02  0.34376847551E+02 -0.12885275330E+03  0.16389509353E+03  0.00000000000E+00 0. -1.
         -5    1    5    5    0  502  0.82064047716E+02 -0.63345655111E+02  0.48454259651E+03  0.49553082425E+03  0.47000000000E+01 0.  1.
         11    1    6    6    0    0  0.43708953239E+01 -0.63462143216E+02  0.96502137818E+02  0.11558205289E+03  0.00000000000E+00 0. -1.
        -12    1    6    6    0    0 -0.13353472826E+02  0.11607790687E+02  0.11702747710E+03  0.11835745198E+03  0.00000000000E+00 0.  1.
</event>
<event>
12    1  0.8728348E-002  0.2168034E+03  0.7818608E-02  0.1137237E+00
         21   -1    0    0  501  502  0.00000000000E+00  0.00000000000E+00  0.35585131202E+02  0.35585131202E+02  0.00000000000E+00 0.  1.
         21   -1    0    0  502  503 -0.00000000000E+00 -0.00000000000E+00 -0.12962919770E+04  0.12962919770E+04  0.00000000000E+00 0.  1.
         -6    2    1    2    0  503 -0.13287508663E+03 -0.44338913123E+01 -0.59503899488E+03  0.63330492480E+03  0.17125499789E+03 0.  0.
        -24    2    3    3    0    0 -0.67695133320E+02  0.29551470324E+02 -0.16803270182E+03  0.19999222543E+03  0.79410206382E+02 0.  0.
          6    2    1    2  501    0  0.13287508663E+03  0.44338913123E+01 -0.66566785089E+03  0.69857218338E+03  0.16496654098E+03 0.  0.
         24    2    5    5    0    0  0.13229709723E+03 -0.46795806975E+02 -0.49682182946E+03  0.52206188620E+03  0.77616449969E+02 0.  0.
          5    1    5    5  501    0  0.57798940361E+00  0.51229698287E+02 -0.16884602143E+03  0.17651029718E+03  0.47000000000E+01 0. -1.
        -11    1    6    6    0    0  0.13624237978E+03 -0.25626230695E+02 -0.42070052167E+03  0.44295329176E+03  0.00000000000E+00 0.  1.
         12    1    6    6    0    0 -0.39452825476E+01 -0.21169576280E+02 -0.76121307790E+02  0.79108594438E+02  0.00000000000E+00 0. -1.
         -5    1    3    3    0  503 -0.65179953312E+02 -0.33985361636E+02 -0.42700629306E+03  0.43331269937E+03  0.47000000000E+01 0.  1.
         11    1    4    4    0    0 -0.59840005546E+01 -0.21718999256E+02 -0.14589420481E+02  0.26839791007E+02  0.00000000000E+00 0. -1.
        -12    1    4    4    0    0 -0.61711132765E+02  0.51270469580E+02 -0.15344328134E+03  0.17315243442E+03  0.00000000000E+00 0.  1.
</event>
<event>
12    1  0.8728348E-002  0.1889358E+03  0.7818608E-02  0.1159764E+00
         21   -1    0    0  501  502  0.00000000000E+00  0.00000000000E+00  0.14088264334E+03  0.14088264334E+03  0.00000000000E+00 0. -1.
         21   -1    0    0  502  503 -0.00000000000E+00 -0.00000000000E+00 -0.56188304804E+03  0.56188304804E+03  0.00000000000E+00 0. -1.
         -6    2    1    2    0  503 -0.68832215736E+02  0.26663855406E+02 -0.47207967723E+03  0.50848396679E+03  0.17391919881E+03 0.  0.
        -24    2    3    3    0    0  0.94630004121E-01  0.64251259207E+02 -0.33054354074E+03  0.34656333523E+03  0.81968772964E+02 0.  0.
          6    2    1    2  501    0  0.68832215736E+02 -0.26663855406E+02  0.51079272526E+02  0.19428172460E+03  0.17230049716E+03 0.  0.
         24    2    5    5    0    0  0.18008558631E+02 -0.71646090316E+02  0.63267468082E+02  0.12516524545E+03  0.78778777023E+02 0.  0.
          5    1    5    5  501    0  0.50823657105E+02  0.44982234909E+02 -0.12188195556E+02  0.69116479148E+02  0.47000000000E+01 0. -1.
        -13    1    6    6    0    0  0.25967511726E+02 -0.23797201821E+02 -0.10610985403E+02  0.36786023039E+02  0.00000000000E+00 0.  1.
         14    1    6    6    0    0 -0.79589530954E+01 -0.47848888494E+02  0.73878453485E+02  0.88379222410E+02  0.00000000000E+00 0. -1.
         -5    1    3    3    0  503 -0.68926845740E+02 -0.37587403801E+02 -0.14153613650E+03  0.16192063155E+03  0.47000000000E+01 0.  1.
         11    1    4    4    0    0  0.16027103777E+02  0.33404405670E+02 -0.29336255336E+03  0.29569293209E+03  0.00000000000E+00 0. -1.
        -12    1    4    4    0    0 -0.15932473773E+02  0.30846853537E+02 -0.37180987371E+02  0.50870403139E+02  0.00000000000E+00 0.  1.
</event>
<event>
12    1  0.8728348E-002  0.1996995E+03  0.7818608E-02  0.1150521E+00
         21   -1    0    0  501  502  0.00000000000E+00  0.00000000000E+00  0.23648770003E+03  0.23648770003E+03  0.00000000000E+00 0.  1.
         21   -1    0    0  502  503 -0.00000000000E+00 -0.00000000000E+00 -0.22524337444E+03  0.22524337444E+03  0.00000000000E+00 0.  1.
         -6    2    1    2    0  503  0.92049114230E+02  0.27399169786E+02 -0.11220700246E+03  0.22906392736E+03  0.17508888451E+03 0.  0.
        -24    2    3    3    0    0 -0.20920284464E+02  0.15618709438E+02 -0.60700769491E+02  0.10426069694E+03  0.80648044760E+02 0.  0.
          6    2    1    2  501    0 -0.92049114230E+02 -0.27399169786E+02  0.12345132805E+03  0.23266714711E+03  0.17224986797E+03 0.  0.
         24    2    5    5    0    0 -0.93752503794E+02 -0.40227238201E+02  0.15288169270E+03  0.20017565225E+03  0.79307736883E+02 0.  0.
          5    1    5    5  501    0  0.17033895641E+01  0.12828068415E+02 -0.29430364651E+02  0.32491494868E+02  0.47000000000E+01 0. -1.
        -11    1    6    6    0    0 -0.89446798553E+02 -0.59845927845E+02  0.11638686113E+03  0.15851866229E+03  0.00000000000E+00 0.  1.
         12    1    6    6    0    0 -0.43057052407E+01  0.19618689644E+02  0.36494831570E+02  0.41656989957E+02  0.00000000000E+00 0. -1.
         -5    1    3    3    0  503  0.11296939869E+03  0.11780460348E+02 -0.51506232972E+02  0.12480323042E+03  0.47000000000E+01 0.  1.
         13    1    4    4    0    0  0.42965854042E+01 -0.12603707014E+02  0.14736682391E+02  0.19861618377E+02  0.00000000000E+00 0. -1.
        -14    1    4    4    0    0 -0.25216869868E+02  0.28222416452E+02 -0.75437451882E+02  0.84399078566E+02  0.00000000000E+00 0.  1.
</event>
<event>
12    1  0.8728348E-002  0.2013853E+03  0.7818608E-02  0.1149453E+00
         21   -1    0    0  501  502  0.00000000000E+00  0.00000000000E+00  0.16548622014E+03  0.16548622014E+03  0.00000000000E+00 0.  1.
         21   -1    0    0  502  503 -0.00000000000E+00 -0.00000000000E+00 -0.56188572372E+03  0.56188572372E+03  0.00000000000E+00 0.  1.
         -6    2    1    2    0  503 -0.10529048635E+03  0.57080662749E+01 -0.47255863211E+03  0.51206696068E+03  0.16668006149E+03 0.  0.
        -24    2    3    3    0    0 -0.84065919752E+02  0.19146328641E+02 -0.15940997935E+03  0.19787714886E+03  0.79436539210E+02 0.  0.
          6    2    1    2  501    0  0.10529048635E+03 -0.57080662749E+01  0.76159128538E+02  0.21530498318E+03  0.17157317502E+03 0.  0.
         24    2    5    5    0    0  0.39733715139E+02  0.32124264909E+02  0.98909170065E+02  0.13613030337E+03  0.78343468501E+02 0.  0.
          5    1    5    5  501    0  0.65556771212E+02 -0.37832331184E+02 -0.22750041527E+02  0.79174679817E+02  0.47000000000E+01 0. -1.
        -13    1    6    6    0    0  0.18947329969E+02  0.56044127327E+02  0.79034844430E+02  0.98724121444E+02  0.00000000000E+00 0.  1.
         14    1    6    6    0    0  0.20786385170E+02 -0.23919862418E+02  0.19874325635E+02  0.37406181922E+02  0.00000000000E+00 0. -1.
         -5    1    3    3    0  503 -0.21224566599E+02 -0.13438262366E+02 -0.31314865276E+03  0.31418981182E+03  0.47000000000E+01 0.  1.
         11    1    4    4    0    0 -0.55516372231E+02 -0.18383042845E+02 -0.43935712367E+02  0.73146091291E+02  0.00000000000E+00 0. -1.
        -12    1    4    4    0    0 -0.28549547521E+02  0.37529371486E+02 -0.11547426698E+03  0.12473105757E+03  0.00000000000E+00 0.  1.
</event>
<event>
12    1  0.8728348E-002  0.2504296E+03  0.7818608E-02  0.1113095E+00
         21   -1    0    0  501  502  0.00000000000E+00  0.00000000000E+00  0.16642136961E+04  0.16642136961E+04  0.00000000000E+00 0.  1.
         21   -1    0    0  502  503 -0.00000000000E+00 -0.00000000000E+00 -0.11117971040E+03  0.11117971040E+03  0.00000000000E+00 0.  1.
         -6    2    1    2    0  503 -0.17839193060E+03 -0.30096687585E+02  0.54282016049E+02  0.25586306986E+03  0.17259745578E+03 0.  0.
        -24    2    3    3    0    0 -0.94986612664E+02 -0.13366835409E+02  0.10016699188E+03  0.15909605057E+03  0.77955103557E+02 0.  0.
          6    2    1    2  501    0  0.17839193060E+03  0.30096687585E+02  0.14987519697E+04  0.15195303367E+04  0.17316317718E+03 0.  0.
         24    2    5    5    0    0  0.83884360728E+02  0.12820997101E+01  0.40010302737E+03  0.41643761633E+03  0.79370183475E+02 0.  0.
          5    1    5    5  501    0  0.94507569873E+02  0.28814587875E+02  0.10986489423E+04  0.11030927203E+04  0.47000000000E+01 0. -1.
        -11    1    6    6    0    0  0.79249543665E+02  0.12208568622E+01  0.40316524594E+03  0.41088221694E+03  0.00000000000E+00 0.  1.
         12    1    6    6    0    0  0.46348170626E+01  0.61242847826E-01 -0.30622185625E+01  0.55553993929E+01  0.00000000000E+00 0. -1.
         -5    1    3    3    0  503 -0.83405317937E+02 -0.16729852175E+02 -0.45884975834E+02  0.96767019284E+02  0.47000000000E+01 0.  1.
         11    1    4    4    0    0  0.41083301066E+01  0.14444092052E+02  0.32831471557E+02  0.36102848864E+02  0.00000000000E+00 0. -1.
        -12    1    4    4    0    0 -0.99094942770E+02 -0.27810927462E+02  0.67335520325E+02  0.12299320171E+03  0.00000000000E+00 0.  1.
</event>
<event>
12    1  0.8728348E-002  0.2793501E+03  0.7818608E-02  0.1096420E+00
         21   -1    0    0  503  502  0.00000000000E+00  0.00000000000E+00  0.23611569701E+04  0.23611569701E+04  0.00000000000E+00 0. -1.
         21   -1    0    0  501  503 -0.00000000000E+00 -0.00000000000E+00 -0.44642384354E+02  0.44642384354E+02  0.00000000000E+00 0. -1.
          6    2    1    2  501    0 -0.36017323996E+02 -0.21356921823E+03  0.53268402091E+03  0.60022798423E+03  0.17208227193E+03 0.  0.
         24    2    3    3    0    0  0.27553316618E+02 -0.15388245421E+03  0.43699225810E+03  0.47067977075E+03  0.78346780264E+02 0.  0.
         -6    2    1    2    0  502  0.36017323996E+02  0.21356921823E+03  0.17838305648E+04  0.18055713702E+04  0.17642967534E+03 0.  0.
        -24    2    5    5    0    0  0.19333577114E+02  0.17224291043E+03  0.86882037121E+03  0.88946441383E+03  0.79099296062E+02 0.  0.
          5    1    3    3  501    0 -0.63570640614E+02 -0.59686764016E+02  0.95691762810E+02  0.12954821348E+03  0.47000000000E+01 0. -1.
        -11    1    4    4    0    0  0.48787092944E+01  0.88268886908E+01  0.34727221541E+02  0.36162075221E+02  0.00000000000E+00 0.  1.
         12    1    4    4    0    0  0.22674607324E+02 -0.16270934290E+03  0.40226503656E+03  0.43451769553E+03  0.00000000000E+00 0. -1.
         -5    1    5    5    0  502  0.16683746882E+02  0.41326307799E+02  0.91501019362E+03  0.91610695640E+03  0.47000000000E+01 0.  1.
         11    1    6    6    0    0  0.46533461307E+02  0.90302997878E+02  0.39576771337E+03  0.40859769626E+03  0.00000000000E+00 0. -1.
        -12    1    6    6    0    0 -0.27199884193E+02  0.81939912552E+02  0.47305265785E+03  0.48086671757E+03  0.00000000000E+00 0.  1.
</event>
<event>
12    1  0.8728348E-002  0.2454190E+03  0.7818608E-02  0.1117180E+00
         21   -1    0    0  503  502  0.00000000000E+00  0.00000000000E+00  0.67859075186E+03  0.67859075186E+03  0.00000000000E+00 0.  1.
         21   -1    0    0  501  503 -0.00000000000E+00 -0.00000000000E+00 -0.33123927909E+03  0.33123927909E+03  0.00000000000E+00 0. -1.
          6    2    1    2  501    0  0.16550428451E+03  0.18849042930E+02 -0.26070226787E+03  0.35411681597E+03  0.17229652426E+03 0.  0.
         24    2    3    3    0    0  0.16032180672E+03  0.50240278554E+02 -0.15037701772E+03  0.23919937356E+03  0.79849392949E+02 0.  0.
         -6    2    1    2    0  502 -0.16550428451E+03 -0.18849042930E+02  0.60805374064E+03  0.65571321498E+03  0.18023183457E+03 0.  0.
        -24    2    5    5    0    0 -0.19333069386E+03 -0.25143112080E+02  0.57101658341E+03  0.60872635108E+03  0.80491606413E+02 0.  0.
          5    1    3    3  501    0  0.51824777875E+01 -0.31391235624E+02 -0.11032525015E+03  0.11491744241E+03  0.47000000000E+01 0. -1.
        -11    1    4    4    0    0  0.32589924293E+02 -0.14849156847E+02 -0.70882553250E+01  0.36508135916E+02  0.00000000000E+00 0.  1.
         12    1    4    4    0    0  0.12773188243E+03  0.65089435401E+02 -0.14328876240E+03  0.20269123764E+03  0.00000000000E+00 0. -1.
         -5    1    5    5    0  502  0.27826409348E+02  0.62940691500E+01  0.37037157225E+02  0.46986863898E+02  0.47000000000E+01 0.  1.
         11    1    6    6    0    0 -0.39674099120E+02 -0.40242125771E+02  0.15612187735E+03  0.16603464523E+03  0.00000000000E+00 0. -1.
        -12    1    6    6    0    0 -0.15365659474E+03  0.15099013690E+02  0.41489470606E+03  0.44269170586E+03  0.00000000000E+00 0.  1.
</event>
<event>
12    1  0.8728348E-002  0.2749407E+03  0.7818608E-02  0.1098669E+00
         21   -1    0    0  503  502  0.00000000000E+00  0.00000000000E+00  0.40990942941E+03  0.40990942941E+03  0.00000000000E+00 0.  1.
         21   -1    0    0  501  503 -0.00000000000E+00 -0.00000000000E+00 -0.18932726213E+03  0.18932726213E+03  0.00000000000E+00 0.  1.
          6    2    1    2  501    0 -0.21256337976E+03  0.20760561466E+02  0.57604532389E+02  0.27962112230E+03  0.17104238818E+03 0.  0.
         24    2    3    3    0    0 -0.11225465940E+03 -0.39904837612E+02  0.75782152008E+02  0.16090024847E+03  0.77152127479E+02 0.  0.
         -6    2    1    2    0  502  0.21256337976E+03 -0.20760561466E+02  0.16297763489E+03  0.31961556924E+03  0.17314217077E+03 0.  0.
        -24    2    5    5    0    0  0.29323869070E+02 -0.21552868213E+02  0.25698325038E+02  0.90606737662E+02  0.78897158216E+02 0.  0.
          5    1    3    3  501    0 -0.10030872037E+03  0.60665399078E+02 -0.18177619619E+02  0.11872087382E+03  0.47000000000E+01 0. -1.
        -11    1    4    4    0    0 -0.86030102928E+02 -0.43213899238E+02  0.89210657509E+02  0.13125228040E+03  0.00000000000E+00 0.  1.
         12    1    4    4    0    0 -0.26224556469E+02  0.33090616258E+01 -0.13428505501E+02  0.29647968073E+02  0.00000000000E+00 0. -1.
         -5    1    5    5    0  502  0.18323951069E+03  0.79230674703E+00  0.13727930985E+03  0.22900883158E+03  0.47000000000E+01 0.  1.
         11    1    6    6    0    0  0.52729364131E+02 -0.20354143304E+02  0.95977881109E+00  0.56529622028E+02  0.00000000000E+00 0. -1.
        -12    1    6    6    0    0 -0.23405495062E+02 -0.11987249097E+01  0.24738546227E+02  0.34077115634E+02  0.00000000000E+00 0.  1.
</event>
<event>
12    1  0.8728348E-002  0.1769659E+03  0.7818608E-02  0.1170816E+00
         21   -1    0    0  503  502  0.00000000000E+00  0.00000000000E+00  0.45938827135E+03  0.45938827135E+03  0.00000000000E+00 0.  1.
         21   -1    0    0  501  503 -0.00000000000E+00 -0.00000000000E+00 -0.68333714917E+02  0.68333714917E+02  0.00000000000E+00 0.  1.
          6    2    1    2  501    0  0.34991287751E+02 -0.20752332579E+02  0.21095191460E+03  0.27535003108E+03  0.17222624602E+03 0.  0.
         24    2    3    3    0    0  0.47610203861E+02  0.48184044281E+02  0.14240249227E+03  0.17720435161E+03  0.80836123045E+02 0.  0.
         -6    2    1    2    0  502 -0.34991287751E+02  0.20752332579E+02  0.18010264184E+03  0.25237195518E+03  0.17204532147E+03 0.  0.
        -24    2    5    5    0    0 -0.22050760525E+02 -0.31152835020E+02  0.33539845298E+02  0.96281125864E+02  0.81782631442E+02 0.  0.
          5    1    3    3  501    0 -0.12618916110E+02 -0.68936376860E+02  0.68549422323E+02  0.98145679473E+02  0.47000000000E+01 0. -1.
        -11    1    4    4    0    0  0.33992627041E+02 -0.17602502739E+02  0.50928815815E+02  0.63710996509E+02  0.00000000000E+00 0.  1.
         12    1    4    4    0    0  0.13617576820E+02  0.65786547020E+02  0.91473676457E+02  0.11349335510E+03  0.00000000000E+00 0. -1.
         -5    1    5    5    0  502 -0.12940527226E+02  0.51905167600E+02  0.14656279654E+03  0.15609082932E+03  0.47000000000E+01 0.  1.
         11    1    6    6    0    0 -0.30908771070E+02  0.12320971023E+02 -0.93599649803E+01  0.34565407569E+02  0.00000000000E+00 0. -1.
        -12    1    6    6    0    0  0.88580105447E+01 -0.43473806044E+02  0.42899810278E+02  0.61715718295E+02  0.00000000000E+00 0.  1.
</event>
<event>
12    1  0.8728348E-002  0.1924193E+03  0.7818608E-02  0.1157495E+00
         21   -1    0    0  503  502  0.00000000000E+00  0.00000000000E+00  0.19586348661E+03  0.19586348661E+03  0.00000000000E+00 0. -1.
         21   -1    0    0  501  503 -0.00000000000E+00 -0.00000000000E+00 -0.23462214564E+03  0.23462214564E+03  0.00000000000E+00 0. -1.
          6    2    1    2  501    0  0.74991287645E+02  0.19814452062E+02 -0.11928984843E+03  0.22189402253E+03  0.17026621380E+03 0.  0.
         24    2    3    3    0    0  0.10040613783E+03  0.74046537269E+00 -0.32087769645E+02  0.12896381150E+03  0.74297368147E+02 0.  0.
         -6    2    1    2    0  502 -0.74991287645E+02 -0.19814452062E+02  0.80531189391E+02  0.20859160972E+03  0.17609338843E+03 0.  0.
        -24    2    5    5    0    0 -0.16258435142E+02 -0.32304476224E+02  0.11002387522E+03  0.14152852610E+03  0.81345895310E+02 0.  0.
          5    1    3    3  501    0 -0.25414850181E+02  0.19073986690E+02 -0.87202078780E+02  0.92930211027E+02  0.47000000000E+01 0. -1.
        -11    1    4    4    0    0 -0.67429086952E+00 -0.63324304838E+01 -0.26747995371E+02  0.27495628751E+02  0.00000000000E+00 0.  1.
         12    1    4    4    0    0  0.10108042870E+03  0.70728958565E+01 -0.53397742739E+01  0.10146818275E+03  0.00000000000E+00 0. -1.
         -5    1    5    5    0  502 -0.58732852503E+02  0.12490024162E+02 -0.29492685833E+02  0.67063083618E+02  0.47000000000E+01 0.  1.
         13    1    6    6    0    0  0.21440819035E+02  0.15066294447E+02  0.49007806226E+02  0.55573977906E+02  0.00000000000E+00 0. -1.
        -14    1    6    6    0    0 -0.37699254177E+02 -0.47370770671E+02  0.61016068998E+02  0.85954548195E+02  0.00000000000E+00 0.  1.
</event>
<event>
12    1  0.8728348E-002  0.3351941E+03  0.7818608E-02  0.1068991E+00
         21   -1    0    0  501  502  0.00000000000E+00  0.00000000000E+00  0.32044575992E+03  0.32044575992E+03  0.00000000000E+00 0.  1.
         21   -1    0    0  502  503 -0.00000000000E+00 -0.00000000000E+00 -0.53877001118E+03  0.53877001118E+03  0.00000000000E+00 0. -1.
         -6    2    1    2    0  503  0.19563116348E+03 -0.20847145977E+03 -0.36375054249E+03  0.49383388292E+03  0.17270073855E+03 0.  0.
        -24    2    3    3    0    0  0.32531653996E+02 -0.10294902402E+03 -0.19295090661E+03  0.23512354286E+03  0.79976358913E+02 0.  0.
          6    2    1    2  501    0 -0.19563116348E+03  0.20847145977E+03  0.14542629122E+03  0.36538188818E+03  0.17499490383E+03 0.  0.
         24    2    5    5    0    0 -0.17414137072E+03  0.85159294812E+02  0.10197023892E+03  0.23279900956E+03  0.78867780105E+02 0.  0.
          5    1    5    5  501    0 -0.21489792760E+02  0.12331216496E+03  0.43456052301E+02  0.13258287861E+03  0.47000000000E+01 0. -1.
        -13    1    6    6    0    0 -0.50752744336E+01  0.10680959965E+02  0.33916851832E+02  0.35919272745E+02  0.00000000000E+00 0.  1.
         14    1    6    6    0    0 -0.16906609629E+03  0.74478334846E+02  0.68053387090E+02  0.19687973682E+03  0.00000000000E+00 0. -1.
         -5    1    3    3    0  503  0.16309950948E+03 -0.10552243575E+03 -0.17079963588E+03  0.25871034006E+03  0.47000000000E+01 0.  1.
         11    1    4    4    0    0  0.41836593085E+02 -0.60360047189E+02 -0.17144710655E+03  0.18651473443E+03  0.00000000000E+00 0. -1.
        -12    1    4    4    0    0 -0.93049390885E+01 -0.42588976836E+02 -0.21503800066E+02  0.48608808426E+02  0.00000000000E+00 0.  1.
</event>
<event>
12    1  0.8728348E-002  0.1858371E+03  0.7818608E-02  0.1164098E+00
         21   -1    0    0  503  502  0.00000000000E+00  0.00000000000E+00  0.45547197696E+02  0.45547197696E+02  0.00000000000E+00 0.  1.
         21   -1    0    0  501  503 -0.00000000000E+00 -0.00000000000E+00 -0.11118584591E+04  0.11118584591E+04  0.00000000000E+00 0.  1.
          6    2    1    2  501    0  0.52187199474E+02 -0.17889716738E+02 -0.86613571357E+03  0.88426528240E+03  0.16938261300E+03 0.  0.
         24    2    3    3    0    0  0.11927725269E+02 -0.66691794902E+02 -0.46211838604E+03  0.47529760759E+03  0.88115531705E+02 0.  0.
         -6    2    1    2    0  502 -0.52187199474E+02  0.17889716738E+02 -0.20017554780E+03  0.27314037436E+03  0.17745948387E+03 0.  0.
        -24    2    5    5    0    0 -0.36314390008E+02 -0.49596955359E+02 -0.17614384702E+03  0.19961480307E+03  0.70998745474E+02 0.  0.
          5    1    3    3  501    0  0.40259474206E+02  0.48802078164E+02 -0.40401732753E+03  0.40896767481E+03  0.47000000000E+01 0. -1.
        -13    1    4    4    0    0  0.18370866506E+02 -0.35085596214E+01 -0.30852297869E+03  0.30908935134E+03  0.00000000000E+00 0.  1.
         14    1    4    4    0    0 -0.64431412371E+01 -0.63183235281E+02 -0.15359540735E+03  0.16620825625E+03  0.00000000000E+00 0. -1.
         -5    1    5    5    0  502 -0.15872809467E+02  0.67486672098E+02 -0.24031700780E+02  0.73525571290E+02  0.47000000000E+01 0.  1.
         13    1    6    6    0    0  0.10931551574E+02  0.71303666404E+01 -0.64242208342E+02  0.65554574828E+02  0.00000000000E+00 0. -1.
        -14    1    6    6    0    0 -0.47245941582E+02 -0.56727322000E+02 -0.11190163868E+03  0.13406022824E+03  0.00000000000E+00 0.  1.
</event>
<event>
12    1  0.8728348E-002  0.2455929E+03  0.7818608E-02  0.1116158E+00
         21   -1    0    0  501  502  0.00000000000E+00  0.00000000000E+00  0.18038802822E+03  0.18038802822E+03  0.00000000000E+00 0. -1.
         21   -1    0    0  502  503 -0.00000000000E+00 -0.00000000000E+00 -0.39307534843E+03  0.39307534843E+03  0.00000000000E+00 0. -1.
         -6    2    1    2    0  503 -0.17268078812E+03  0.28138640894E+02 -0.21747720388E+03  0.32804300184E+03  0.17235265926E+03 0.  0.
        -24    2    3    3    0    0 -0.16559341901E+03 -0.26732778113E+02 -0.14449242553E+03  0.23633710620E+03  0.82712422807E+02 0.  0.
          6    2    1    2  501    0  0.17268078812E+03 -0.28138640894E+02  0.47898836690E+01  0.24542037481E+03  0.17204005257E+03 0.  0.
         24    2    5    5    0    0  0.13547258107E+03 -0.16360621304E+02 -0.59944315160E+02  0.16968544948E+03  0.81113135140E+02 0.  0.
          5    1    5    5  501    0  0.37208207048E+02 -0.11778019591E+02  0.64734198829E+02  0.75734925333E+02  0.47000000000E+01 0. -1.
        -11    1    6    6    0    0  0.73566078990E+01  0.22513528331E+02 -0.16738424891E+02  0.29002646526E+02  0.00000000000E+00 0.  1.
         12    1    6    6    0    0  0.12811597317E+03 -0.38874149635E+02 -0.43205890269E+02  0.14068280295E+03  0.00000000000E+00 0. -1.
         -5    1    3    3    0  503 -0.70873691128E+01  0.54871419007E+02 -0.72984778349E+02  0.91705895642E+02  0.47000000000E+01 0.  1.
         11    1    4    4    0    0 -0.13120162547E+03  0.14784246812E+02 -0.11376261704E+03  0.17428245326E+03  0.00000000000E+00 0. -1.
        -12    1    4    4    0    0 -0.34391793544E+02 -0.41517024925E+02 -0.30729808496E+02  0.62054652944E+02  0.00000000000E+00 0.  1.
</event>
<event>
12    1  0.8728348E-002  0.1854787E+03  0.7818608E-02  0.1163081E+00
         21   -1    0    0  503  502  0.00000000000E+00  0.00000000000E+00  0.25855868401E+03  0.25855868401E+03  0.00000000000E+00 0. -1.
         21   -1    0    0  501  503 -0.00000000000E+00 -0.00000000000E+00 -0.18336321095E+03  0.18336321095E+03  0.00000000000E+00 0. -1.
          6    2    1    2  501    0  0.62293699339E+02 -0.30457155015E+02 -0.79956807823E+02  0.20010670847E+03  0.16982773739E+03 0.  0.
         24    2    3    3    0    0  0.45757815932E+02  0.50376468210E+02 -0.44538195807E+02  0.11019520664E+03  0.74348950308E+02 0.  0.
         -6    2    1    2    0  502 -0.62293699339E+02  0.30457155015E+02  0.15515228088E+03  0.24181518650E+03  0.17202968026E+03 0.  0.
        -24    2    5    5    0    0 -0.22666152957E+02  0.65462789368E+02  0.15609924799E+03  0.18872353353E+03  0.80314790698E+02 0.  0.
          5    1    3    3  501    0  0.16535883407E+02 -0.80833623225E+02 -0.35418612016E+02  0.89911501827E+02  0.47000000000E+01 0. -1.
        -11    1    4    4    0    0  0.65835051959E+02  0.33664991908E+02 -0.38577832599E+02  0.83401648153E+02  0.00000000000E+00 0.  1.
         12    1    4    4    0    0 -0.20077236027E+02  0.16711476302E+02 -0.59603632083E+01  0.26793558484E+02  0.00000000000E+00 0. -1.
         -5    1    5    5    0  502 -0.39627546382E+02 -0.35005634353E+02 -0.94696710209E+00  0.53091652973E+02  0.47000000000E+01 0.  1.
         11    1    6    6    0    0  0.27360923521E+02  0.34350609860E+02  0.44451995361E+02  0.62486513947E+02  0.00000000000E+00 0. -1.
        -12    1    6    6    0    0 -0.50027076478E+02  0.31112179507E+02  0.11164725262E+03  0.12623701958E+03  0.00000000000E+00 0.  1.
</event>
<event>
12    1  0.8728348E-002  0.2576638E+03  0.7818608E-02  0.1108613E+00
         21   -1    0    0  503  502  0.00000000000E+00  0.00000000000E+00  0.42317847975E+03  0.42317847975E+03  0.00000000000E+00 0. -1.
         21   -1    0    0  501  503 -0.00000000000E+00 -0.00000000000E+00 -0.15665422244E+03  0.15665422244E+03  0.00000000000E+00 0.  1.
          6    2    1    2  501    0  0.18463315323E+03 -0.52230832260E+02  0.13322175775E+03  0.29006664666E+03  0.17196849030E+03 0.  0.
         24    2    3    3    0    0  0.10605827011E+03 -0.78575066743E+02  0.30392696990E+02  0.15791545792E+03  0.81186070526E+02 0.  0.
         -6    2    1    2    0  502 -0.18463315323E+03  0.52230832260E+02  0.13330249955E+03  0.28976605553E+03  0.17139821890E+03 0.  0.
        -24    2    5    5    0    0 -0.16533736570E+03 -0.14927103976E+02  0.11925388877E+03  0.21833798486E+03  0.76751043738E+02 0.  0.
          5    1    3    3  501    0  0.78574883118E+02  0.26344234483E+02  0.10282906076E+03  0.13215118874E+03  0.47000000000E+01 0. -1.
        -13    1    4    4    0    0  0.82002971931E+02 -0.19643633076E+02 -0.61022164903E+01  0.84543460847E+02  0.00000000000E+00 0.  1.
         14    1    4    4    0    0  0.24055298177E+02 -0.58931433666E+02  0.36494913480E+02  0.73371997072E+02  0.00000000000E+00 0. -1.
         -5    1    5    5    0  502 -0.19295787529E+02  0.67157936236E+02  0.14048610784E+02  0.71428070678E+02  0.47000000000E+01 0.  1.
         11    1    6    6    0    0 -0.37258027193E+02  0.28129454459E+02  0.41364335338E+02  0.62373351974E+02  0.00000000000E+00 0. -1.
        -12    1    6    6    0    0 -0.12807933850E+03 -0.43056558435E+02  0.77889553432E+02  0.15596463288E+03  0.00000000000E+00 0.  1.
</event>
<event>
12    1  0.8728348E-002  0.2253804E+03  0.7818608E-02  0.1130286E+00
         21   -1    0    0  501  502  0.00000000000E+00  0.00000000000E+00  0.80266186128E+02  0.80266186128E+02  0.00000000000E+00 0. -1.
         21   -1    0    0  502  503 -0.00000000000E+00 -0.00000000000E+00 -0.64513063432E+03  0.64513063432E+03  0.00000000000E+00 0. -1.
         -6    2    1    2    0  503  0.37243255383E+01 -0.14328413807E+03 -0.22351488375E+03  0.31741964461E+03  0.17393134480E+03 0.  0.
        -24    2    3    3    0    0  0.59422645215E+02 -0.94668123041E+02 -0.85659387091E+02  0.16092029097E+03  0.77876216934E+02 0.  0.
          6    2    1    2  501    0 -0.37243255383E+01  0.14328413807E+03 -0.34134956444E+03  0.40797717583E+03  0.17141072322E+03 0.  0.
         24    2    5    5    0    0 -0.61753788057E+02  0.10101667847E+03 -0.26692621011E+03  0.30446446004E+03  0.86203863696E+02 0.  0.
          5    1    5    5  501    0  0.58029462519E+02  0.42267459596E+02 -0.74423354327E+02  0.10351271579E+03  0.47000000000E+01 0. -1.
        -13    1    6    6    0    0 -0.12641074796E+02  0.25923209322E+02 -0.16981270338E+03  0.17224448839E+03  0.00000000000E+00 0.  1.
         14    1    6    6    0    0 -0.49112713262E+02  0.75093469150E+02 -0.97113506734E+02  0.13221997165E+03  0.00000000000E+00 0. -1.
         -5    1    3    3    0  503 -0.55698319676E+02 -0.48616015027E+02 -0.13785549666E+03  0.15649935364E+03  0.47000000000E+01 0.  1.
         13    1    4    4    0    0  0.47456277077E+02 -0.95307896424E+02 -0.97286432707E+02  0.14422324134E+03  0.00000000000E+00 0. -1.
        -14    1    4    4    0    0  0.11966368137E+02  0.63977338337E+00  0.11627045616E+02  0.16697049624E+02  0.00000000000E+00 0.  1.
</event>
<event>
12    1  0.8728348E-002  0.1843915E+03  0.7818608E-02  0.1163842E+00
         21   -1    0    0  501  502  0.00000000000E+00  0.00000000000E+00  0.71365327335E+03  0.71365327335E+03  0.00000000000E+00 0.  1.
         21   -1    0    0  502  503 -0.00000000000E+00 -0.00000000000E+00 -0.60731830573E+02  0.60731830573E+02  0.00000000000E+00 0.  1.
         -6    2    1    2    0  503 -0.58818523096E+02 -0.27473310724E+02  0.14437825935E+03  0.23344480351E+03  0.17157212202E+03 0.  0.
        -24    2    3    3    0    0  0.97876070111E+01 -0.42371221251E+02  0.74596526575E+02  0.13434723011E+03  0.10292433541E+03 0.  0.
          6    2    1    2  501    0  0.58818523096E+02  0.27473310724E+02  0.50854318343E+03  0.54094030041E+03  0.17258574024E+03 0.  0.
         24    2    5    5    0    0  0.57588199436E+02 -0.12053360553E+02  0.15791998701E+03  0.18806271923E+03  0.83469634293E+02 0.  0.
          5    1    5    5  501    0  0.12303236599E+01  0.39526671276E+02  0.35062319642E+03  0.35287758119E+03  0.47000000000E+01 0. -1.
        -13    1    6    6    0    0  0.54650767674E+01 -0.41614403926E+02  0.71291717624E+02  0.82729285503E+02  0.00000000000E+00 0.  1.
         14    1    6    6    0    0  0.52123122668E+02  0.29561043373E+02  0.86628269391E+02  0.10533343372E+03  0.00000000000E+00 0. -1.
         -5    1    3    3    0  503 -0.68606130107E+02  0.14897910527E+02  0.69781732772E+02  0.99097573406E+02  0.47000000000E+01 0.  1.
         13    1    4    4    0    0 -0.26869332507E+02 -0.62549977028E+02  0.57629309131E+02  0.89194158589E+02  0.00000000000E+00 0. -1.
        -14    1    4    4    0    0  0.36656939518E+02  0.20178755777E+02  0.16967217444E+02  0.45153071516E+02  0.00000000000E+00 0.  1.
</event>
<event>
12    1  0.8728348E-002  0.2421854E+03  0.7818608E-02  0.1118788E+00
         21   -1    0    0  503  502  0.00000000000E+00  0.00000000000E+00  0.91210301316E+02  0.91210301316E+02  0.00000000000E+00 0.  1.
         21   -1    0    0  501  503 -0.00000000000E+00 -0.00000000000E+00 -0.90329340307E+03  0.90329340307E+03  0.00000000000E+00 0. -1.
          6    2    1    2  501    0  0.15785213745E+03  0.57500526166E+02 -0.67812081833E+03  0.72007056634E+03  0.17444245025E+03 0.  0.
         24    2    3    3    0    0  0.11798694832E+03  0.26726383214E+02 -0.64161027442E+03  0.65768955163E+03  0.79098562265E+02 0.  0.
         -6    2    1    2    0  502 -0.15785213745E+03 -0.57500526166E+02 -0.13396228342E+03  0.27443313804E+03  0.17071627359E+03 0.  0.
        -24    2    5    5    0    0 -0.74431496915E+02 -0.90685287024E+02 -0.11694171834E+03  0.18293438802E+03  0.77625741959E+02 0.  0.
          5    1    3    3  501    0  0.39865189136E+02  0.30774142952E+02 -0.36510543908E+02  0.62381014706E+02  0.47000000000E+01 0. -1.
        -13    1    4    4    0    0  0.62088718431E+02  0.49838143283E+02 -0.28183190268E+03  0.29286186309E+03  0.00000000000E+00 0.  1.
         14    1    4    4    0    0  0.55898229886E+02 -0.23111760069E+02 -0.35977837174E+03  0.36482768855E+03  0.00000000000E+00 0. -1.
         -5    1    5    5    0  502 -0.83420640538E+02  0.33184760858E+02 -0.17020565080E+02  0.91498750027E+02  0.47000000000E+01 0.  1.
         13    1    6    6    0    0 -0.51782996345E+01  0.11280062768E+02 -0.28924014126E+02  0.31474643704E+02  0.00000000000E+00 0. -1.
        -14    1    6    6    0    0 -0.69253197281E+02 -0.10196534979E+03 -0.88017704216E+02  0.15145974431E+03  0.00000000000E+00 0.  1.
</event>
<event>
12    1  0.8728348E-002  0.1801744E+03  0.7818608E-02  0.1168088E+00
         21   -1    0    0  503  502  0.00000000000E+00  0.00000000000E+00  0.27268959771E+03  0.27268959771E+03  0.00000000000E+00 0. -1.
         21   -1    0    0  501  503 -0.00000000000E+00 -0.00000000000E+00 -0.11799043706E+03  0.11799043706E+03  0.00000000000E+00 0. -1.
          6    2    1    2  501    0  0.47832630829E+02 -0.17259790838E+02  0.85276512192E+02  0.19933616333E+03  0.17284953436E+03 0.  0.
         24    2    3    3    0    0  0.10423618638E+02 -0.18912506076E+01  0.12169127299E+03  0.14471244115E+03  0.77593144333E+02 0.  0.
         -6    2    1    2    0  502 -0.47832630829E+02  0.17259790838E+02  0.69422648457E+02  0.19134387144E+03  0.17090088375E+03 0.  0.
        -24    2    5    5    0    0  0.19112593466E+02  0.26179192559E+02 -0.10170649505E+02  0.86852714571E+02  0.79933163112E+02 0.  0.
          5    1    3    3  501    0  0.37409012191E+02 -0.15368540230E+02 -0.36414760793E+02  0.54623722187E+02  0.47000000000E+01 0. -1.
        -13    1    4    4    0    0  0.30210130251E+02  0.16922030880E+00  0.10849679096E+02  0.32099784139E+02  0.00000000000E+00 0.  1.
         14    1    4    4    0    0 -0.19786511613E+02 -0.20604709164E+01  0.11084159389E+03  0.11261265701E+03  0.00000000000E+00 0. -1.
         -5    1    5    5    0  502 -0.66945224295E+02 -0.89194017209E+01  0.79593297962E+02  0.10449115687E+03  0.47000000000E+01 0.  1.
         13    1    6    6    0    0  0.18850721257E+02  0.14704182976E+02  0.33804563110E+02  0.41404241038E+02  0.00000000000E+00 0. -1.
        -14    1    6    6    0    0  0.26187220952E+00  0.11475009583E+02 -0.43975212615E+02  0.45448473534E+02  0.00000000000E+00 0.  1.
</event>
<event>
12    1  0.8728348E-002  0.1719016E+03  0.7818608E-02  0.1178000E+00
         21   -1    0    0  501  502  0.00000000000E+00  0.00000000000E+00  0.44709220245E+02  0.44709220245E+02  0.00000000000E+00 0. -1.
         21   -1    0    0  502  503 -0.00000000000E+00 -0.00000000000E+00 -0.67279997136E+03  0.67279997136E+03  0.00000000000E+00 0. -1.
         -6    2    1    2    0  503 -0.46644381259E+01 -0.14096984264E+02 -0.41116660516E+03  0.44565473304E+03  0.17125910760E+03 0.  0.
        -24    2    3    3    0    0 -0.17477837064E+02 -0.52859061479E+02 -0.38463206155E+03  0.39673792789E+03  0.79747134620E+02 0.  0.
          6    2    1    2  501    0  0.46644381259E+01  0.14096984264E+02 -0.21692414595E+03  0.27185445856E+03  0.16318173792E+03 0.  0.
         24    2    5    5    0    0 -0.58156061185E+02  0.13795621283E+02 -0.14569650997E+03  0.17676517378E+03  0.80287028979E+02 0.  0.
          5    1    5    5  501    0  0.62820499310E+02  0.30136298078E+00 -0.71227635980E+02  0.95089284783E+02  0.47000000000E+01 0. -1.
        -13    1    6    6    0    0  0.77395457059E+01 -0.22825867532E+02 -0.27435640914E+02  0.36518970257E+02  0.00000000000E+00 0.  1.
         14    1    6    6    0    0 -0.65895606890E+02  0.36621488815E+02 -0.11826086906E+03  0.14024620352E+03  0.00000000000E+00 0. -1.
         -5    1    3    3    0  503  0.12813398939E+02  0.38762077215E+02 -0.26534543606E+02  0.48916805157E+02  0.47000000000E+01 0.  1.
         11    1    4    4    0    0  0.31611880971E+02 -0.14089990588E+02 -0.14554366439E+03  0.14960212932E+03  0.00000000000E+00 0. -1.
        -12    1    4    4    0    0 -0.49089718036E+02 -0.38769070890E+02 -0.23908839716E+03  0.24713579856E+03  0.00000000000E+00 0.  1.
</event>
<event>
12    1  0.8728348E-002  0.1873666E+03  0.7818608E-02  0.1161325E+00
         21   -1    0    0  503  502  0.00000000000E+00  0.00000000000E+00  0.21034278211E+03  0.21034278211E+03  0.00000000000E+00 0.  1.
         21   -1    0    0  501  503 -0.00000000000E+00 -0.00000000000E+00 -0.16548533577E+03  0.16548533577E+03  0.00000000000E+00 0. -1.
          6    2    1    2  501    0  0.74447693072E+02 -0.12953225336E+01  0.13534592880E+02  0.18785482780E+03  0.17193636689E+03 0.  0.
         24    2    3    3    0    0  0.54091869085E+02  0.10369867530E+02 -0.53756391160E+02  0.11643632346E+03  0.87373928473E+02 0.  0.
         -6    2    1    2    0  502 -0.74447693072E+02  0.12953225336E+01  0.31322853456E+02  0.18797329007E+03  0.16973125749E+03 0.  0.
        -24    2    5    5    0    0 -0.91184673741E+02  0.17021299293E+02  0.71486107482E+02  0.14146942098E+03  0.79366013845E+02 0.  0.
          5    1    3    3  501    0  0.20355823986E+02 -0.11665190063E+02  0.67290984040E+02  0.71418504342E+02  0.47000000000E+01 0. -1.
        -13    1    4    4    0    0  0.29808146265E+02  0.18903479225E+02  0.18415401117E+02  0.39811984488E+02  0.00000000000E+00 0.  1.
         14    1    4    4    0    0  0.24283722820E+02 -0.85336116955E+01 -0.72171792276E+02  0.76624338972E+02  0.00000000000E+00 0. -1.
         -5    1    5    5    0  502  0.16736980670E+02 -0.15725976759E+02 -0.40163254026E+02  0.46503869096E+02  0.47000000000E+01 0.  1.
         13    1    6    6    0    0  0.45594069836E+00  0.13072414760E+02 -0.11768138431E+02  0.17595027471E+02  0.00000000000E+00 0. -1.
        -14    1    6    6    0    0 -0.91640614440E+02  0.39488845333E+01  0.83254245913E+02  0.12387439351E+03  0.00000000000E+00 0.  1.
</event>
<event>
12    1  0.8728348E-002  0.2091928E+03  0.7818608E-02  0.1143115E+00
         21   -1    0    0  503  502  0.00000000000E+00  0.00000000000E+00  0.23283897803E+03  0.23283897803E+03  0.00000000000E+00 0.  1.
         21   -1    0    0  501  503 -0.00000000000E+00 -0.00000000000E+00 -0.18679243928E+03  0.18679243928E+03  0.00000000000E+00 0. -1.
          6    2    1    2  501    0 -0.12010123311E+03 -0.33583688513E+00 -0.32586735868E+01  0.20470673579E+03  0.16574018748E+03 0.  0.
         24    2    3    3    0    0 -0.14200997381E+03  0.43497345728E+01  0.29392365101E+02  0.16483032890E+03  0.78226423581E+02 0.  0.
         -6    2    1    2    0  502  0.12010123311E+03  0.33583688513E+00  0.49305212332E+02  0.21492468152E+03  0.17128104326E+03 0.  0.
        -24    2    5    5    0    0  0.98267383575E+02  0.51268581465E+02 -0.37056006539E+01  0.13809306205E+03  0.82286184688E+02 0.  0.
          5    1    3    3  501    0  0.21908740706E+02 -0.46855714579E+01 -0.32651038688E+02  0.39876406892E+02  0.47000000000E+01 0. -1.
        -13    1    4    4    0    0 -0.76263201497E+02  0.40021870618E+02  0.25946867822E+02  0.89950352862E+02  0.00000000000E+00 0.  1.
         14    1    4    4    0    0 -0.65746772318E+02 -0.35672136046E+02  0.34454972794E+01  0.74879976040E+02  0.00000000000E+00 0. -1.
         -5    1    5    5    0  502  0.21833849534E+02 -0.50932744580E+02  0.53010812986E+02  0.76831619464E+02  0.47000000000E+01 0.  1.
         13    1    6    6    0    0  0.53687040764E+02  0.67084713140E+02  0.15007652099E+02  0.87223200495E+02  0.00000000000E+00 0. -1.
        -14    1    6    6    0    0  0.44580342810E+02 -0.15816131674E+02 -0.18713252752E+02  0.50869861557E+02  0.00000000000E+00 0.  1.
</event>
<event>
12    1  0.8728348E-002  0.2303997E+03  0.7818608E-02  0.1126664E+00
         21   -1    0    0  501  502  0.00000000000E+00  0.00000000000E+00  0.43842468627E+03  0.43842468627E+03  0.00000000000E+00 0. -1.
         21   -1    0    0  502  503 -0.00000000000E+00 -0.00000000000E+00 -0.13099419405E+03  0.13099419405E+03  0.00000000000E+00 0. -1.
         -6    2    1    2    0  503 -0.32515960862E+01 -0.15212491217E+03  0.23609053305E+03  0.32988294184E+03  0.17300709160E+03 0.  0.
        -24    2    3    3    0    0  0.61205735102E+02 -0.90467290687E+02  0.10694358205E+03  0.17285608177E+03  0.80695864646E+02 0.  0.
          6    2    1    2  501    0  0.32515960862E+01  0.15212491217E+03  0.71339959176E+02  0.23953593847E+03  0.17069128350E+03 0.  0.
         24    2    5    5    0    0 -0.45873958632E+01  0.32272723978E+02 -0.12166560169E+02  0.93175337274E+02  0.86435209122E+02 0.  0.
          5    1    5    5  501    0  0.78389919494E+01  0.11985218820E+03  0.83506519345E+02  0.14636060120E+03  0.47000000000E+01 0. -1.
        -13    1    6    6    0    0  0.21008341785E+02 -0.10392764481E+02  0.22535425760E+02  0.32514695020E+02  0.00000000000E+00 0.  1.
         14    1    6    6    0    0 -0.25595737648E+02  0.42665488459E+02 -0.34701985929E+02  0.60660642253E+02  0.00000000000E+00 0. -1.
         -5    1    3    3    0  503 -0.64457331188E+02 -0.61657621487E+02  0.12914695100E+03  0.15702686007E+03  0.47000000000E+01 0.  1.
         13    1    4    4    0    0 -0.56303585506E+01 -0.84742605851E+01  0.53275462474E+02  0.54238260773E+02  0.00000000000E+00 0. -1.
        -14    1    4    4    0    0  0.66836093653E+02 -0.81993030102E+02  0.53668119573E+02  0.11861782100E+03  0.00000000000E+00 0.  1.
</event>
<event>
12    1  0.8728348E-002  0.2090071E+03  0.7818608E-02  0.1142474E+00
         21   -1    0    0  503  502  0.00000000000E+00  0.00000000000E+00  0.96431131475E+03  0.96431131475E+03  0.00000000000E+00 0. -1.
         21   -1    0    0  501  503 -0.00000000000E+00 -0.00000000000E+00 -0.96489139798E+02  0.96489139798E+02  0.00000000000E+00 0. -1.
          6    2    1    2  501    0  0.48901111376E+02 -0.10748368708E+03  0.47390279790E+02  0.21431241533E+03  0.17245263426E+03 0.  0.
         24    2    3    3    0    0 -0.14085724553E+02 -0.15270870174E+02  0.18733837785E+02  0.98926858300E+02  0.94889195923E+02 0.  0.
         -6    2    1    2    0  502 -0.48901111376E+02  0.10748368708E+03  0.82043189516E+03  0.84648803922E+03  0.17172490869E+03 0.  0.
        -24    2    5    5    0    0  0.81274076557E+01  0.11877378529E+03  0.47595329150E+03  0.49710670503E+03  0.80064184681E+02 0.  0.
          5    1    3    3  501    0  0.62986835929E+02 -0.92212816906E+02  0.28656442005E+02  0.11538555703E+03  0.47000000000E+01 0. -1.
        -11    1    4    4    0    0  0.33687257171E+02 -0.52035112909E+01 -0.17320414102E+02  0.38234860666E+02  0.00000000000E+00 0.  1.
         12    1    4    4    0    0 -0.47772981724E+02 -0.10067358883E+02  0.36054251887E+02  0.60691997634E+02  0.00000000000E+00 0. -1.
         -5    1    5    5    0  502 -0.57028519032E+02 -0.11290098213E+02  0.34447860366E+03  0.34938133419E+03  0.47000000000E+01 0.  1.
         11    1    6    6    0    0 -0.24459745226E+02  0.10344345189E+03  0.32610704548E+03  0.34299363257E+03  0.00000000000E+00 0. -1.
        -12    1    6    6    0    0  0.32587152882E+02  0.15330333402E+02  0.14984624603E+03  0.15411307246E+03  0.00000000000E+00 0.  1.
</event>
<event>
12    1  0.8728348E-002  0.2000816E+03  0.7818608E-02  0.1149672E+00
         21   -1    0    0  501  502  0.00000000000E+00  0.00000000000E+00  0.31631408337E+03  0.31631408337E+03  0.00000000000E+00 0. -1.
         21   -1    0    0  502  503 -0.00000000000E+00 -0.00000000000E+00 -0.12854617282E+03  0.12854617282E+03  0.00000000000E+00 0.  1.
         -6    2    1    2    0  503 -0.99921101126E+02  0.22947918146E+02  0.66193136935E+02  0.21074673782E+03  0.17181915704E+03 0.  0.
        -24    2    3    3    0    0 -0.30064892060E+02  0.47139097749E+02 -0.19753349694E+02  0.97283123915E+02  0.77122105154E+02 0.  0.
          6    2    1    2  501    0  0.99921101126E+02 -0.22947918146E+02  0.12157477362E+03  0.23411351837E+03  0.17180768465E+03 0.  0.
         24    2    5    5    0    0  0.10431012742E+03  0.37864356338E+02  0.10056139834E+03  0.16945249286E+03  0.79292120264E+02 0.  0.
          5    1    5    5  501    0 -0.43890262948E+01 -0.60812274483E+02  0.21013375279E+02  0.64661025512E+02  0.47000000000E+01 0. -1.
        -13    1    6    6    0    0  0.11845141410E+02  0.27857240801E+02 -0.28087808315E+01  0.30401027776E+02  0.00000000000E+00 0.  1.
         14    1    6    6    0    0  0.92464986010E+02  0.10007115537E+02  0.10337017917E+03  0.13905146508E+03  0.00000000000E+00 0. -1.
         -5    1    3    3    0  503 -0.69856209066E+02 -0.24191179604E+02  0.85946486629E+02  0.11346361390E+03  0.47000000000E+01 0.  1.
         13    1    4    4    0    0 -0.38067836303E+02  0.96439160467E+01  0.18246429832E+02  0.43302395766E+02  0.00000000000E+00 0. -1.
        -14    1    4    4    0    0  0.80029442428E+01  0.37495181702E+02 -0.37999779526E+02  0.53980728149E+02  0.00000000000E+00 0.  1.
</event>
<event>
12    1  0.8728348E-002  0.1899925E+03  0.7818608E-02  0.1160271E+00
         21   -1    0    0  501  502  0.00000000000E+00  0.00000000000E+00  0.25901177990E+02  0.25901177990E+02  0.00000000000E+00 0.  1.
         21   -1    0    0  502  503 -0.00000000000E+00 -0.00000000000E+00 -0.14092084164E+04  0.14092084164E+04  0.00000000000E+00 0.  1.
         -6    2    1    2    0  503  0.62739131074E+02  0.46919811291E+02 -0.84038193228E+03  0.85990091095E+03  0.16446919864E+03 0.  0.
        -24    2    3    3    0    0  0.23920390012E+02  0.31814092146E+02 -0.20743754928E+03  0.22556995682E+03  0.79165314686E+02 0.  0.
          6    2    1    2  501    0 -0.62739131074E+02 -0.46919811291E+02 -0.54292530611E+03  0.57520868342E+03  0.17308805332E+03 0.  0.
         24    2    5    5    0    0  0.91896163589E+01  0.28170172778E+02 -0.26786074504E+03  0.28110861002E+03  0.79966644359E+02 0.  0.
          5    1    5    5  501    0 -0.71928747433E+02 -0.75089984069E+02 -0.27506456107E+03  0.29410007340E+03  0.47000000000E+01 0. -1.
        -11    1    6    6    0    0 -0.17106287458E+02  0.21457412974E+02 -0.26239014402E+02  0.37967506093E+02  0.00000000000E+00 0.  1.
         12    1    6    6    0    0  0.26295903817E+02  0.67127598044E+01 -0.24162173064E+03  0.24314110392E+03  0.00000000000E+00 0. -1.
         -5    1    3    3    0  503  0.38818741062E+02  0.15105719145E+02 -0.63294438299E+03  0.63433095413E+03  0.47000000000E+01 0.  1.
         13    1    4    4    0    0  0.99702726496E+01 -0.22161744016E+02 -0.11567244675E+03  0.11819756415E+03  0.00000000000E+00 0. -1.
        -14    1    4    4    0    0  0.13950117362E+02  0.53975836162E+02 -0.91765102530E+02  0.10737239266E+03  0.00000000000E+00 0.  1.
</event>
<event>
12    1  0.8728348E-002  0.2116823E+03  0.7818608E-02  0.1140329E+00
         21   -1    0    0  503  502  0.00000000000E+00  0.00000000000E+00  0.24143513487E+04  0.24143513487E+04  0.00000000000E+00 0.  1.
         21   -1    0    0  501  503 -0.00000000000E+00 -0.00000000000E+00 -0.22014900511E+02  0.22014900511E+02  0.00000000000E+00 0. -1.
          6    2    1    2  501    0  0.12063202430E+03  0.25107399309E+02  0.71188005078E+03  0.74268608087E+03  0.17212478391E+03 0.  0.
         24    2    3    3    0    0  0.57057861435E+02  0.59686673981E+02  0.58819252131E+03  0.59930513595E+03  0.79863040559E+02 0.  0.
         -6    2    1    2    0  502 -0.12063202430E+03 -0.25107399309E+02  0.16804563974E+04  0.16936801683E+04  0.17157022541E+03 0.  0.
        -24    2    5    5    0    0 -0.27155308175E+01 -0.12872178932E+02  0.97726834580E+03  0.98055358352E+03  0.79112851998E+02 0.  0.
          5    1    3    3  501    0  0.63574162864E+02 -0.34579274672E+02  0.12368752947E+03  0.14338094492E+03  0.47000000000E+01 0. -1.
        -11    1    4    4    0    0  0.19264181607E+02  0.72249071365E+02  0.36362256773E+03  0.37123093724E+03  0.00000000000E+00 0.  1.
         12    1    4    4    0    0  0.37793679828E+02 -0.12562397384E+02  0.22456995358E+03  0.22807419870E+03  0.00000000000E+00 0. -1.
         -5    1    5    5    0  502 -0.11791649348E+03 -0.12235220378E+02  0.70318805161E+03  0.71312658482E+03  0.47000000000E+01 0.  1.
         13    1    6    6    0    0  0.12366477487E+02 -0.12346436598E+01  0.23404435024E+02  0.26499465828E+02  0.00000000000E+00 0. -1.
        -14    1    6    6    0    0 -0.15082008304E+02 -0.11637535272E+02  0.95386391078E+03  0.95405411769E+03  0.00000000000E+00 0.  1.
</event>
<event>
12    1  0.8728348E-002  0.3004280E+03  0.7818608E-02  0.1085132E+00
         21   -1    0    0  501  502  0.00000000000E+00  0.00000000000E+00  0.35465288370E+02  0.35465288370E+02  0.00000000000E+00 0.  1.
         21   -1    0    0  502  503 -0.00000000000E+00 -0.00000000000E+00 -0.27762821886E+04  0.27762821886E+04  0.00000000000E+00 0.  1.
         -6    2    1    2    0  503  0.22451328477E+03 -0.10143954679E+03 -0.17841624778E+04  0.18092796221E+04  0.17193256513E+03 0.  0.
        -24    2    3    3    0    0  0.59053648202E+02  0.34882243002E+01 -0.67432832929E+03  0.68227445097E+03  0.85324262038E+02 0.  0.
          6    2    1    2  501    0 -0.22451328477E+03  0.10143954679E+03 -0.95665442239E+03  0.10024678549E+04  0.17046383621E+03 0.  0.
         24    2    5    5    0    0 -0.15438929577E+03  0.89251164243E+02 -0.44826207524E+03  0.48909586581E+03  0.80461499390E+02 0.  0.
          5    1    5    5  501    0 -0.70123989000E+02  0.12188382545E+02 -0.50839234715E+03  0.51337198905E+03  0.47000000000E+01 0. -1.
        -11    1    6    6    0    0 -0.15867908998E+03  0.90106390433E+02 -0.38900876011E+03  0.42968131288E+03  0.00000000000E+00 0.  1.
         12    1    6    6    0    0  0.42897942043E+01 -0.85522619035E+00 -0.59253315130E+02  0.59414552932E+02  0.00000000000E+00 0. -1.
         -5    1    3    3    0  503  0.16545963657E+03 -0.10492777109E+03 -0.11098341485E+04  0.11270051711E+04  0.47000000000E+01 0.  1.
         11    1    4    4    0    0  0.79411934796E+01 -0.28602047981E+02 -0.88497032729E+02  0.93342726039E+02  0.00000000000E+00 0. -1.
        -12    1    4    4    0    0  0.51112454723E+02  0.32090272281E+02 -0.58583129656E+03  0.58893172493E+03  0.00000000000E+00 0.  1.
</event>
<event>
12    1  0.8728348E-002  0.1809301E+03  0.7818608E-02  0.1167284E+00
         21   -1    0    0  503  502  0.00000000000E+00  0.00000000000E+00  0.14706580454E+04  0.14706580454E+04  0.00000000000E+00 0.  1.
         21   -1    0    0  501  503 -0.00000000000E+00 -0.00000000000E+00 -0.50293449685E+02  0.50293449685E+02  0.00000000000E+00 0.  1.
          6    2    1    2  501    0 -0.45053404950E+02  0.33115215298E+02  0.14182331900E+03  0.22989028291E+03  0.17207341916E+03 0.  0.
         24    2    3    3    0    0 -0.13167526020E+01  0.60227753221E+02  0.26451718653E+02  0.10347556605E+03  0.79864781068E+02 0.  0.
         -6    2    1    2    0  502  0.45053404950E+02 -0.33115215298E+02  0.12785412767E+04  0.12910612122E+04  0.17042543981E+03 0.  0.
        -24    2    5    5    0    0  0.46947608353E+02 -0.77190399573E+02  0.11203754011E+04  0.11267908738E+04  0.79083487958E+02 0.  0.
          5    1    3    3  501    0 -0.43736652348E+02 -0.27112537924E+02  0.11537160035E+03  0.12641471686E+03  0.47000000000E+01 0. -1.
        -11    1    4    4    0    0 -0.40332534946E+02  0.35893979231E+02  0.12444067731E+02  0.55407092884E+02  0.00000000000E+00 0.  1.
         12    1    4    4    0    0  0.39015782344E+02  0.24333773990E+02  0.14007650921E+02  0.48068473170E+02  0.00000000000E+00 0. -1.
         -5    1    5    5    0  502 -0.18942034033E+01  0.44075184276E+02  0.15816587557E+03  0.16427033838E+03  0.47000000000E+01 0.  1.
         11    1    6    6    0    0 -0.21737652259E+02 -0.26246914662E+02  0.36635325551E+03  0.36793495876E+03  0.00000000000E+00 0. -1.
        -12    1    6    6    0    0  0.68685260612E+02 -0.50943484911E+02  0.75402214561E+03  0.75885591501E+03  0.00000000000E+00 0.  1.
</event>
<event>
12    1  0.8728348E-002  0.2532356E+03  0.7818608E-02  0.1111425E+00
         21   -1    0    0  503  502  0.00000000000E+00  0.00000000000E+00  0.14869744722E+04  0.14869744722E+04  0.00000000000E+00 0.  1.
         21   -1    0    0  501  503 -0.00000000000E+00 -0.00000000000E+00 -0.52153596218E+02  0.52153596218E+02  0.00000000000E+00 0.  1.
          6    2    1    2  501    0 -0.18291202538E+03 -0.31860335926E+02  0.10415301108E+04  0.10718737169E+04  0.17221034632E+03 0.  0.
         24    2    3    3    0    0 -0.81856288903E+02 -0.22383892167E+02  0.81963569010E+03  0.82782190115E+03  0.79277644277E+02 0.  0.
         -6    2    1    2    0  502  0.18291202538E+03  0.31860335926E+02  0.39329076525E+03  0.46725435152E+03  0.17081309362E+03 0.  0.
        -24    2    5    5    0    0  0.12666986872E+03  0.39395214764E+02  0.14376894634E+03  0.21131845585E+03  0.79929601905E+02 0.  0.
          5    1    3    3  501    0 -0.10105573648E+03 -0.94764437588E+01  0.22189442068E+03  0.24405181579E+03  0.47000000000E+01 0. -1.
        -11    1    4    4    0    0 -0.47009189339E+02 -0.10089613123E+02  0.15796004931E+03  0.16511523658E+03  0.00000000000E+00 0.  1.
         12    1    4    4    0    0 -0.34847099564E+02 -0.12294279044E+02  0.66167564079E+03  0.66270666456E+03  0.00000000000E+00 0. -1.
         -5    1    5    5    0  502  0.56242156661E+02 -0.75348788384E+01  0.24952181891E+03  0.25593589568E+03  0.47000000000E+01 0.  1.
         13    1    6    6    0    0  0.52815288644E+02  0.53460838323E+02  0.46468932191E+02  0.88356536870E+02  0.00000000000E+00 0. -1.
        -14    1    6    6    0    0  0.73854580077E+02 -0.14065623558E+02  0.97300014152E+02  0.12296191898E+03  0.00000000000E+00 0.  1.
</event>
<event>
12    1  0.8728348E-002  0.2493476E+03  0.7818608E-02  0.1113803E+00
         21   -1    0    0  501  502  0.00000000000E+00  0.00000000000E+00  0.48039231873E+03  0.48039231873E+03  0.00000000000E+00 0. -1.
         21   -1    0    0  502  503 -0.00000000000E+00 -0.00000000000E+00 -0.19382659019E+03  0.19382659019E+03  0.00000000000E+00 0. -1.
         -6    2    1    2    0  503  0.19960756647E+02 -0.17929948037E+03 -0.51353377006E+02  0.25458084243E+03  0.17212640859E+03 0.  0.
        -24    2    3    3    0    0  0.29142076411E+02 -0.18336833235E+03  0.49273362408E+00  0.20156234211E+03  0.78446982367E+02 0.  0.
          6    2    1    2  501    0 -0.19960756647E+02  0.17929948037E+03  0.33791910555E+03  0.41963806649E+03  0.17134774432E+03 0.  0.
         24    2    5    5    0    0  0.22261512194E+02  0.73084128000E+02  0.25469825353E+03  0.27817350811E+03  0.81684977654E+02 0.  0.
          5    1    5    5  501    0 -0.42222268841E+02  0.10621535237E+03  0.83220852019E+02  0.14146455837E+03  0.47000000000E+01 0. -1.
        -13    1    6    6    0    0  0.16539130392E+02  0.82837302807E+00  0.37659810179E+01  0.16982686743E+02  0.00000000000E+00 0.  1.
         14    1    6    6    0    0  0.57223818023E+01  0.72255754972E+02  0.25093227251E+03  0.26119082137E+03  0.00000000000E+00 0. -1.
         -5    1    3    3    0  503 -0.91813197644E+01  0.40688519794E+01 -0.51846110631E+02  0.53018500324E+02  0.47000000000E+01 0.  1.
         13    1    4    4    0    0  0.43238445629E+02 -0.49146619441E+02  0.10219042848E+02  0.66252412935E+02  0.00000000000E+00 0. -1.
        -14    1    4    4    0    0 -0.14096369218E+02 -0.13422171291E+03 -0.97263092241E+01  0.13530992917E+03  0.00000000000E+00 0.  1.
</event>
<event>
12    1  0.8728348E-002  0.2386801E+03  0.7818608E-02  0.1120748E+00
         21   -1    0    0  501  502  0.00000000000E+00  0.00000000000E+00  0.11685051801E+03  0.11685051801E+03  0.00000000000E+00 0.  1.
         21   -1    0    0  502  503 -0.00000000000E+00 -0.00000000000E+00 -0.48824264358E+03  0.48824264358E+03  0.00000000000E+00 0. -1.
         -6    2    1    2    0  503 -0.15680476598E+03  0.51838713780E+02 -0.16856383238E+03  0.29220189647E+03  0.17231713737E+03 0.  0.
        -24    2    3    3    0    0 -0.73583372374E+01  0.28813992173E+02 -0.79067498541E+02  0.11642915501E+03  0.80122952636E+02 0.  0.
          6    2    1    2  501    0  0.15680476598E+03 -0.51838713780E+02 -0.20282829318E+03  0.31289126512E+03  0.17171674466E+03 0.  0.
         24    2    5    5    0    0  0.16864373430E+03 -0.74654902345E+02 -0.13984762059E+03  0.24470479468E+03  0.79429314444E+02 0.  0.
          5    1    5    5  501    0 -0.11838968323E+02  0.22816188565E+02 -0.62980672588E+02  0.68186470441E+02  0.47000000000E+01 0. -1.
        -13    1    6    6    0    0  0.88433240272E+02 -0.37838988722E+02 -0.24123932029E+02  0.99167490384E+02  0.00000000000E+00 0.  1.
         14    1    6    6    0    0  0.80210494028E+02 -0.36815913623E+02 -0.11572368856E+03  0.14553730430E+03  0.00000000000E+00 0. -1.
         -5    1    3    3    0  503 -0.14944642874E+03  0.23024721607E+02 -0.89496333843E+02  0.17577274146E+03  0.47000000000E+01 0.  1.
         11    1    4    4    0    0  0.43702185641E+01  0.31117112610E+02 -0.92945572552E+02  0.98113469842E+02  0.00000000000E+00 0. -1.
        -12    1    4    4    0    0 -0.11728555802E+02 -0.23031204368E+01  0.13878074011E+02  0.18315685168E+02  0.00000000000E+00 0.  1.
</event>
<event>
12    1  0.8728348E-002  0.1935339E+03  0.7818608E-02  0.1155710E+00
         21   -1    0    0  503  502  0.00000000000E+00  0.00000000000E+00  0.53486105370E+02  0.53486105370E+02  0.00000000000E+00 0. -1.
         21   -1    0    0  501  503 -0.00000000000E+00 -0.00000000000E+00 -0.16434358966E+04  0.16434358966E+04  0.00000000000E+00 0. -1.
          6    2    1    2  501    0 -0.87471445824E+02  0.11211765938E+02 -0.14383713653E+04  0.14510940081E+04  0.17024887089E+03 0.  0.
         24    2    3    3    0    0 -0.60059012101E+02 -0.59289444971E+02 -0.89192669776E+03  0.89941862616E+03  0.79361877992E+02 0.  0.
         -6    2    1    2    0  502  0.87471445824E+02 -0.11211765938E+02 -0.15157842589E+03  0.24582799392E+03  0.17227427513E+03 0.  0.
        -24    2    5    5    0    0 -0.10020502732E+02 -0.38817185451E+02 -0.51646260030E+02  0.10343674773E+03  0.80153853580E+02 0.  0.
          5    1    3    3  501    0 -0.27412433722E+02  0.70501210910E+02 -0.54644466758E+03  0.55167538190E+03  0.47000000000E+01 0. -1.
        -11    1    4    4    0    0 -0.29225475521E+02  0.12877112094E+02 -0.15056254718E+03  0.15391240707E+03  0.00000000000E+00 0.  1.
         12    1    4    4    0    0 -0.30833536580E+02 -0.72166557065E+02 -0.74136415058E+03  0.74550621909E+03  0.00000000000E+00 0. -1.
         -5    1    5    5    0  502  0.97491948556E+02  0.27605419512E+02 -0.99932165864E+02  0.14239124620E+03  0.47000000000E+01 0.  1.
         13    1    6    6    0    0 -0.16744602027E+02 -0.35574449653E+02  0.10617883149E+02  0.40726681767E+02  0.00000000000E+00 0. -1.
        -14    1    6    6    0    0  0.67240992950E+01 -0.32427357975E+01 -0.62264143179E+02  0.62710065959E+02  0.00000000000E+00 0.  1.
</event>
<event>
12    1  0.8728348E-002  0.1901465E+03  0.7818608E-02  0.1158552E+00
         21   -1    0    0  501  502  0.00000000000E+00  0.00000000000E+00  0.74412073545E+03  0.74412073545E+03  0.00000000000E+00 0. -1.
         21   -1    0    0  502  503 -0.00000000000E+00 -0.00000000000E+00 -0.53676953657E+02  0.53676953657E+02  0.00000000000E+00 0. -1.
         -6    2    1    2    0  503 -0.76473867177E+02  0.26352260526E+02  0.22021223282E+03  0.29094522241E+03  0.17208428449E+03 0.  0.
        -24    2    3    3    0    0 -0.90323061079E+02 -0.34493567236E+02  0.12401387899E+03  0.17618360773E+03  0.79455395692E+02 0.  0.
          6    2    1    2  501    0  0.76473867177E+02 -0.26352260526E+02  0.47023154898E+03  0.50685246670E+03  0.17099420851E+03 0.  0.
         24    2    5    5    0    0  0.61050196763E+02 -0.57624672959E+02  0.45374082937E+03  0.46799519940E+03  0.78045095721E+02 0.  0.
          5    1    5    5  501    0  0.15423670414E+02  0.31272412433E+02  0.16490719608E+02  0.38857267295E+02  0.47000000000E+01 0. -1.
        -11    1    6    6    0    0 -0.27225236799E+01  0.59453529563E+01  0.12822864811E+01  0.66636037985E+01  0.00000000000E+00 0.  1.
         12    1    6    6    0    0  0.63772720443E+02 -0.63570025915E+02  0.45245854289E+03  0.46133159560E+03  0.00000000000E+00 0. -1.
         -5    1    3    3    0  503  0.13849193902E+02  0.60845827761E+02  0.96198353822E+02  0.11476161469E+03  0.47000000000E+01 0.  1.
         11    1    4    4    0    0 -0.65952950898E+02  0.16917096183E+02  0.63076317725E+02  0.92814878835E+02  0.00000000000E+00 0. -1.
        -12    1    4    4    0    0 -0.24370110181E+02 -0.51410663418E+02  0.60937561270E+02  0.83368728891E+02  0.00000000000E+00 0.  1.
</event>
<event>
12    1  0.8728348E-002  0.1858177E+03  0.7818608E-02  0.1163416E+00
         21   -1    0    0  503  502  0.00000000000E+00  0.00000000000E+00  0.78762813903E+03  0.78762813903E+03  0.00000000000E+00 0.  1.
         21   -1    0    0  501  503 -0.00000000000E+00 -0.00000000000E+00 -0.77629260110E+02  0.77629260110E+02  0.00000000000E+00 0.  1.
          6    2    1    2  501    0  0.57689658825E+02  0.40971565162E+02  0.67427124959E+02  0.19767300695E+03  0.17181802761E+03 0.  0.
         24    2    3    3    0    0 -0.28195617742E+02  0.12876780682E+02  0.12640603934E+01  0.85578231166E+02  0.79757328568E+02 0.  0.
         -6    2    1    2    0  502 -0.57689658825E+02 -0.40971565162E+02  0.64257175396E+03  0.66758439219E+03  0.16662441543E+03 0.  0.
        -24    2    5    5    0    0 -0.41104860124E+02  0.26494596622E+02  0.17490856625E+03  0.19476552023E+03  0.70349329412E+02 0.  0.
          5    1    3    3  501    0  0.85885276567E+02  0.28094784481E+02  0.66163064566E+02  0.11209477579E+03  0.47000000000E+01 0. -1.
        -13    1    4    4    0    0 -0.26364117353E+02  0.10973695860E+02 -0.37270676436E+02  0.46953083037E+02  0.00000000000E+00 0.  1.
         14    1    4    4    0    0 -0.18315003888E+01  0.19030848216E+01  0.38534736830E+02  0.38625148130E+02  0.00000000000E+00 0. -1.
         -5    1    5    5    0  502 -0.16584798701E+02 -0.67466161784E+02  0.46766318772E+03  0.47281887196E+03  0.47000000000E+01 0.  1.
         13    1    6    6    0    0 -0.50563727817E+02 -0.51268547960E+01  0.12492816146E+03  0.13487038495E+03  0.00000000000E+00 0. -1.
        -14    1    6    6    0    0  0.94588676925E+01  0.31621451418E+02  0.49980404788E+02  0.59895135283E+02  0.00000000000E+00 0.  1.
</event>
<event>
12    1  0.8728348E-002  0.1749493E+03  0.7818608E-02  0.1172791E+00
         21   -1    0    0  503  502  0.00000000000E+00  0.00000000000E+00  0.46940483695E+03  0.46940483695E+03  0.00000000000E+00 0.  1.
         21   -1    0    0  501  503 -0.00000000000E+00 -0.00000000000E+00 -0.80442569622E+02  0.80442569622E+02  0.00000000000E+00 0.  1.
          6    2    1    2  501    0 -0.25648907298E+02  0.15550437253E+02  0.74763978346E+02  0.19022563899E+03  0.17232660482E+03 0.  0.
         24    2    3    3    0    0  0.14576271453E+02 -0.28443633947E+02  0.95643156825E+02  0.12688865611E+03  0.77016943599E+02 0.  0.
         -6    2    1    2    0  502  0.25648907298E+02 -0.15550437253E+02  0.31419828898E+03  0.35962176758E+03  0.17235883607E+03 0.  0.
        -24    2    5    5    0    0 -0.34265859943E+02 -0.23991349939E+02  0.26932125410E+03  0.28414285264E+03  0.80333609203E+02 0.  0.
          5    1    3    3  501    0 -0.40225178751E+02  0.43994071200E+02 -0.20879178479E+02  0.63336982880E+02  0.47000000000E+01 0. -1.
        -13    1    4    4    0    0  0.40265336187E+02 -0.17968029220E+02  0.24308854012E+02  0.50349456359E+02  0.00000000000E+00 0.  1.
         14    1    4    4    0    0 -0.25689064733E+02 -0.10475604727E+02  0.71334302813E+02  0.76539199755E+02  0.00000000000E+00 0. -1.
         -5    1    5    5    0  502  0.59914767241E+02  0.84409126861E+01  0.44877034885E+02  0.75478914940E+02  0.47000000000E+01 0.  1.
         11    1    6    6    0    0 -0.22691788853E+02 -0.26022997648E+02  0.33761892106E+02  0.48290568920E+02  0.00000000000E+00 0. -1.
        -12    1    6    6    0    0 -0.11574071089E+02  0.20316477090E+01  0.23555936199E+03  0.23585228372E+03  0.00000000000E+00 0.  1.
</event>
<event>
12    1  0.8728348E-002  0.2050615E+03  0.7818608E-02  0.1146072E+00
         21   -1    0    0  501  502  0.00000000000E+00  0.00000000000E+00  0.43979891189E+03  0.43979891189E+03  0.00000000000E+00 0.  1.
         21   -1    0    0  502  503 -0.00000000000E+00 -0.00000000000E+00 -0.50913965220E+03  0.50913965220E+03  0.00000000000E+00 0.  1.
         -6    2    1    2    0  503 -0.88474516997E+02 -0.65498511828E+02 -0.46285577507E+03  0.50519954595E+03  0.16992150396E+03 0.  0.
        -24    2    3    3    0    0 -0.62258142887E+02 -0.47841058088E+01 -0.40193816853E+03  0.41516298585E+03  0.83108660615E+02 0.  0.
          6    2    1    2  501    0  0.88474516997E+02  0.65498511828E+02  0.39351503476E+03  0.44373901814E+03  0.17300993737E+03 0.  0.
         24    2    5    5    0    0  0.80814668227E+02  0.71948205918E+02  0.17885109230E+03  0.22879025673E+03  0.93003835538E+02 0.  0.
          5    1    5    5  501    0  0.76598487702E+01 -0.64496940899E+01  0.21466394246E+03  0.21494876140E+03  0.47000000000E+01 0. -1.
        -13    1    6    6    0    0  0.83957284069E+02  0.55206337575E+02  0.18512550663E+03  0.21063717256E+03  0.00000000000E+00 0.  1.
         14    1    6    6    0    0 -0.31426158423E+01  0.16741868343E+02 -0.62744143336E+01  0.18153084178E+02  0.00000000000E+00 0. -1.
         -5    1    3    3    0  503 -0.26216374110E+02 -0.60714406019E+02 -0.60917606534E+02  0.90036560105E+02  0.47000000000E+01 0.  1.
         13    1    4    4    0    0 -0.44203078967E+01  0.29988511584E+02 -0.67649216290E+02  0.74130064168E+02  0.00000000000E+00 0. -1.
        -14    1    4    4    0    0 -0.57837834991E+02 -0.34772617393E+02 -0.33428895224E+03  0.34103292168E+03  0.00000000000E+00 0.  1.
</event>
<event>
12    1  0.8728348E-002  0.2806217E+03  0.7818608E-02  0.1095488E+00
         21   -1    0    0  501  502  0.00000000000E+00  0.00000000000E+00  0.11682191739E+04  0.11682191739E+04  0.00000000000E+00 0.  1.
         21   -1    0    0  502  503 -0.00000000000E+00 -0.00000000000E+00 -0.71658380368E+02  0.71658380368E+02  0.00000000000E+00 0.  1.
         -6    2    1    2    0  503  0.20982093933E+03  0.74481095428E+02  0.39399840259E+03  0.48371817654E+03  0.17081063468E+03 0.  0.
        -24    2    3    3    0    0  0.10016962468E+03 -0.25482852396E+02  0.22616757106E+03  0.25965238335E+03  0.74727909813E+02 0.  0.
          6    2    1    2  501    0 -0.20982093933E+03 -0.74481095428E+02  0.70256239099E+03  0.75615937777E+03  0.16914736533E+03 0.  0.
         24    2    5    5    0    0 -0.13732974171E+03 -0.90746615151E+02  0.61312120469E+03  0.63979204270E+03  0.79510000282E+02 0.  0.
          5    1    5    5  501    0 -0.72491197620E+02  0.16265519723E+02  0.89441186304E+02  0.11636733507E+03  0.47000000000E+01 0. -1.
        -13    1    6    6    0    0  0.38985642462E+01 -0.20587575436E+02  0.12744654318E+03  0.12915753340E+03  0.00000000000E+00 0.  1.
         14    1    6    6    0    0 -0.14122830595E+03 -0.70159039715E+02  0.48567466150E+03  0.51063450930E+03  0.00000000000E+00 0. -1.
         -5    1    3    3    0  503  0.10965131465E+03  0.99963947824E+02  0.16783083153E+03  0.22406579319E+03  0.47000000000E+01 0.  1.
         11    1    4    4    0    0  0.11218256961E+03 -0.23880393342E+02  0.19527347816E+03  0.22646618596E+03  0.00000000000E+00 0. -1.
        -12    1    4    4    0    0 -0.12012944932E+02 -0.16024590541E+01  0.30894092905E+02  0.33186197393E+02  0.00000000000E+00 0.  1.
</event>
<event>
12    1  0.8728348E-002  0.1735290E+03  0.7818608E-02  0.1174379E+00
         21   -1    0    0  501  502  0.00000000000E+00  0.00000000000E+00  0.18420654924E+04  0.18420654924E+04  0.00000000000E+00 0. -1.
         21   -1    0    0  502  503 -0.00000000000E+00 -0.00000000000E+00 -0.16518717608E+02  0.16518717608E+02  0.00000000000E+00 0. -1.
         -6    2    1    2    0  503  0.18472395365E+02 -0.13183585668E+02  0.10245221256E+04  0.10391139926E+04  0.17203856367E+03 0.  0.
        -24    2    3    3    0    0 -0.14076358327E+02  0.17442701271E+02  0.93143117683E+03  0.93574375720E+03  0.86890449841E+02 0.  0.
          6    2    1    2  501    0 -0.18472395365E+02  0.13183585668E+02  0.80102464916E+03  0.81947021741E+03  0.17139402654E+03 0.  0.
         24    2    5    5    0    0  0.27030605066E+02  0.28263179315E+02  0.25333074076E+03  0.26966241054E+03  0.83737032007E+02 0.  0.
          5    1    5    5  501    0 -0.45503000431E+02 -0.15079593647E+02  0.54769390840E+03  0.54980780687E+03  0.47000000000E+01 0. -1.
        -11    1    6    6    0    0  0.20996410969E+02 -0.22284547596E+02  0.16409778130E+03  0.16692972222E+03  0.00000000000E+00 0.  1.
         12    1    6    6    0    0  0.60341940970E+01  0.50547726911E+02  0.89232959463E+02  0.10273268832E+03  0.00000000000E+00 0. -1.
         -5    1    3    3    0  503  0.32548753692E+02 -0.30626286939E+02  0.93090948817E+02  0.10337023542E+03  0.47000000000E+01 0.  1.
         13    1    4    4    0    0  0.10402683111E+02 -0.26508375485E+02  0.58348255266E+03  0.58417702715E+03  0.00000000000E+00 0. -1.
        -14    1    4    4    0    0 -0.24479041438E+02  0.43951076757E+02  0.34794862417E+03  0.35156673005E+03  0.00000000000E+00 0.  1.
</event>
<event>
12    1  0.8728348E-002  0.1742259E+03  0.7818608E-02  0.1173541E+00
         21   -1    0    0  501  502  0.00000000000E+00  0.00000000000E+00  0.27379922819E+03  0.27379922819E+03  0.00000000000E+00 0. -1.
         21   -1    0    0  502  503 -0.00000000000E+00 -0.00000000000E+00 -0.26299791211E+03  0.26299791211E+03  0.00000000000E+00 0. -1.
         -6    2    1    2    0  503  0.20565466056E+02 -0.18014035783E+02 -0.19878398541E+03  0.26425235782E+03  0.17194996912E+03 0.  0.
        -24    2    3    3    0    0  0.44674804386E+02  0.27947721699E+02 -0.51718742129E+02  0.10822665761E+03  0.79128173461E+02 0.  0.
          6    2    1    2  501    0 -0.20565466056E+02  0.18014035783E+02  0.20958530149E+03  0.27254478248E+03  0.17206747507E+03 0.  0.
         24    2    5    5    0    0 -0.37245158897E+02 -0.51715143892E+02  0.12923370509E+03  0.16475406073E+03  0.79880485891E+02 0.  0.
          5    1    5    5  501    0  0.16679692842E+02  0.69729179675E+02  0.80351596401E+02  0.10779072175E+03  0.47000000000E+01 0. -1.
        -13    1    6    6    0    0 -0.25908954210E+02 -0.58746936988E+02  0.42494835296E+02  0.76995373501E+02  0.00000000000E+00 0.  1.
         14    1    6    6    0    0 -0.11336204687E+02  0.70317930958E+01  0.86738869792E+02  0.87758687226E+02  0.00000000000E+00 0. -1.
         -5    1    3    3    0  503 -0.24109338330E+02 -0.45961757483E+02 -0.14706524328E+03  0.15602570021E+03  0.47000000000E+01 0.  1.
         13    1    4    4    0    0  0.20768024415E+02  0.10861612400E+02 -0.69864379719E+02  0.73690684727E+02  0.00000000000E+00 0. -1.
        -14    1    4    4    0    0  0.23906779971E+02  0.17086109300E+02  0.18145637590E+02  0.34535972885E+02  0.00000000000E+00 0.  1.
</event>
<event>
12    1  0.8728348E-002  0.1812514E+03  0.7818608E-02  0.1167061E+00
         21   -1    0    0  501  502  0.00000000000E+00  0.00000000000E+00  0.21719489228E+03  0.21719489228E+03  0.00000000000E+00 0. -1.
         21   -1    0    0  502  503 -0.00000000000E+00 -0.00000000000E+00 -0.37620127894E+03  0.37620127894E+03  0.00000000000E+00 0. -1.
         -6    2    1    2    0  503 -0.32983062329E+02 -0.47192661781E+02 -0.30957342545E+03  0.35776407246E+03  0.16983638030E+03 0.  0.
        -24    2    3    3    0    0 -0.19873230737E+02  0.38652215018E+02 -0.17877143477E+03  0.20068937264E+03  0.80175179304E+02 0.  0.
          6    2    1    2  501    0  0.32983062329E+02  0.47192661781E+02  0.15056703879E+03  0.23563209877E+03  0.17186338491E+03 0.  0.
         24    2    5    5    0    0  0.79694863683E+02  0.49657394258E+01  0.12357099955E+03  0.16695909467E+03  0.78927925969E+02 0.  0.
          5    1    5    5  501    0 -0.46711801353E+02  0.42226922355E+02  0.26996039246E+02  0.68673004101E+02  0.47000000000E+01 0. -1.
        -11    1    6    6    0    0  0.57676064564E+02 -0.11216632230E+02  0.23597042998E+02  0.63317941378E+02  0.00000000000E+00 0.  1.
         12    1    6    6    0    0  0.22018799119E+02  0.16182371656E+02  0.99973956548E+02  0.10364115329E+03  0.00000000000E+00 0. -1.
         -5    1    3    3    0  503 -0.13109831592E+02 -0.85844876799E+02 -0.13080199068E+03  0.15707469982E+03  0.47000000000E+01 0.  1.
         11    1    4    4    0    0 -0.29105754245E+02  0.32496659181E+02 -0.33523532942E+02  0.55018224698E+02  0.00000000000E+00 0. -1.
        -12    1    4    4    0    0  0.92325235073E+01  0.61555558368E+01 -0.14524790183E+03  0.14567114794E+03  0.00000000000E+00 0.  1.
</event>
<event>
12    1  0.8728348E-002  0.1945290E+03  0.7818608E-02  0.1154859E+00
         21   -1    0    0  503  502  0.00000000000E+00  0.00000000000E+00  0.12878247317E+03  0.12878247317E+03  0.00000000000E+00 0.  1.
         21   -1    0    0  501  503 -0.00000000000E+00 -0.00000000000E+00 -0.44023233467E+03  0.44023233467E+03  0.00000000000E+00 0. -1.
          6    2    1    2  501    0  0.64622511033E+02 -0.60495389046E+02 -0.32190037040E+03  0.37611350537E+03  0.17322170600E+03 0.  0.
         24    2    3    3    0    0  0.13950474631E+02  0.29601762580E+02 -0.90822656573E+02  0.12292552810E+03  0.76098951519E+02 0.  0.
         -6    2    1    2    0  502 -0.64622511033E+02  0.60495389046E+02  0.10450508902E+02  0.19290130247E+03  0.17107290355E+03 0.  0.
        -24    2    5    5    0    0 -0.18907269288E+01  0.92867420976E+02 -0.88742757916E+00  0.12125031509E+03  0.77928933364E+02 0.  0.
          5    1    3    3  501    0  0.50672036402E+02 -0.90097151626E+02 -0.23107771383E+03  0.25318797727E+03  0.47000000000E+01 0. -1.
        -13    1    4    4    0    0  0.37224085219E+02  0.31959612930E+02 -0.29393185515E+02  0.57192733225E+02  0.00000000000E+00 0.  1.
         14    1    4    4    0    0 -0.23273610587E+02 -0.23578503504E+01 -0.61429471058E+02  0.65732794879E+02  0.00000000000E+00 0. -1.
         -5    1    5    5    0  502 -0.62731784105E+02 -0.32372031930E+02  0.11337936481E+02  0.71650987375E+02  0.47000000000E+01 0.  1.
         11    1    6    6    0    0  0.14003642901E+02  0.35838075643E+02 -0.35769852429E+02  0.52535245532E+02  0.00000000000E+00 0. -1.
        -12    1    6    6    0    0 -0.15894369829E+02  0.57029345333E+02  0.34882424850E+02  0.68715069561E+02  0.00000000000E+00 0.  1.
</event>
<event>
12    1  0.8728348E-002  0.3291395E+03  0.7818608E-02  0.1071528E+00
         21   -1    0    0  501  502  0.00000000000E+00  0.00000000000E+00  0.40895219752E+03  0.40895219752E+03  0.00000000000E+00 0.  1.
         21   -1    0    0  502  503 -0.00000000000E+00 -0.00000000000E+00 -0.30364765181E+03  0.30364765181E+03  0.00000000000E+00 0.  1.
         -6    2    1    2    0  503  0.27982485739E+03 -0.17659938853E+02 -0.74746892447E+02  0.33743145002E+03  0.17221806317E+03 0.  0.
        -24    2    3    3    0    0  0.49860856862E+02 -0.25948323251E+02 -0.34832607394E+02  0.10383483403E+03  0.80055866073E+02 0.  0.
          6    2    1    2  501    0 -0.27982485739E+03  0.17659938853E+02  0.18005143816E+03  0.37516839931E+03  0.17239194646E+03 0.  0.
         24    2    5    5    0    0 -0.48171961426E+02  0.12742078443E+01  0.32752606480E+02  0.10012187197E+03  0.81421708051E+02 0.  0.
          5    1    5    5  501    0 -0.23165289596E+03  0.16385731008E+02  0.14729883168E+03  0.27504652734E+03  0.47000000000E+01 0. -1.
        -11    1    6    6    0    0 -0.51265334504E+02 -0.31715753474E+02  0.13416027126E+02  0.61757698500E+02  0.00000000000E+00 0.  1.
         12    1    6    6    0    0  0.30933730781E+01  0.32989961318E+02  0.19336579354E+02  0.38364173468E+02  0.00000000000E+00 0. -1.
         -5    1    3    3    0  503  0.22996400053E+03  0.82883843985E+01 -0.39914285053E+02  0.23359661600E+03  0.47000000000E+01 0.  1.
         13    1    4    4    0    0 -0.18150975872E+01 -0.18523854945E+02  0.20549090272E+02  0.27725311401E+02  0.00000000000E+00 0. -1.
        -14    1    4    4    0    0  0.51675954449E+02 -0.74244683063E+01 -0.55381697666E+02  0.76109522625E+02  0.00000000000E+00 0.  1.
</event>
<event>
12    1  0.8728348E-002  0.2609838E+03  0.7818608E-02  0.1106579E+00
         21   -1    0    0  503  502  0.00000000000E+00  0.00000000000E+00  0.76521568173E+02  0.76521568173E+02  0.00000000000E+00 0.  1.
         21   -1    0    0  501  503 -0.00000000000E+00 -0.00000000000E+00 -0.18427828275E+04  0.18427828275E+04  0.00000000000E+00 0. -1.
          6    2    1    2  501    0 -0.15129151632E+03 -0.12496362790E+03 -0.15734733090E+04  0.15949704632E+04  0.17206828052E+03 0.  0.
         24    2    3    3    0    0 -0.70312846984E+01 -0.27267250141E+02 -0.67586640323E+03  0.68059863296E+03  0.75007748163E+02 0.  0.
         -6    2    1    2    0  502  0.15129151632E+03  0.12496362790E+03 -0.19278795030E+03  0.32433393244E+03  0.17181465229E+03 0.  0.
        -24    2    5    5    0    0  0.21354996535E+02  0.59277638773E+02 -0.12842546613E+03  0.16507700885E+03  0.82385946417E+02 0.  0.
          5    1    3    3  501    0 -0.14426023162E+03 -0.97696377758E+02 -0.89760690580E+03  0.91437183027E+03  0.47000000000E+01 0. -1.
        -13    1    4    4    0    0 -0.20916141333E+02 -0.47721511505E+02 -0.53943241781E+03  0.54194294997E+03  0.00000000000E+00 0.  1.
         14    1    4    4    0    0  0.13884856634E+02  0.20454261364E+02 -0.13643398541E+03  0.13865568300E+03  0.00000000000E+00 0. -1.
         -5    1    5    5    0  502  0.12993651978E+03  0.65685989126E+02 -0.64362484177E+02  0.15925692359E+03  0.47000000000E+01 0.  1.
         13    1    6    6    0    0  0.29388363081E+02 -0.34591217929E+01 -0.80365496550E+02  0.85640261816E+02  0.00000000000E+00 0. -1.
        -14    1    6    6    0    0 -0.80333665459E+01  0.62736760566E+02 -0.48059969575E+02  0.79436747038E+02  0.00000000000E+00 0.  1.
</event>
<event>
12    1  0.8728348E-002  0.2256714E+03  0.7818608E-02  0.1130017E+00
         21   -1    0    0  503  502  0.00000000000E+00  0.00000000000E+00  0.27486785524E+03  0.27486785524E+03  0.00000000000E+00 0. -1.
         21   -1    0    0  501  503 -0.00000000000E+00 -0.00000000000E+00 -0.26179634738E+03  0.26179634738E+03  0.00000000000E+00 0. -1.
          6    2    1    2  501    0  0.15200206149E+02  0.14615515707E+03 -0.13979648767E+03  0.26409087539E+03  0.16914064058E+03 0.  0.
         24    2    3    3    0    0  0.68407451587E+02  0.56242546416E+02 -0.79434834399E+02  0.14333944597E+03  0.79959367156E+02 0.  0.
         -6    2    1    2    0  502 -0.15200206149E+02 -0.14615515707E+03  0.15286799552E+03  0.27257332723E+03  0.17127527100E+03 0.  0.
        -24    2    5    5    0    0 -0.64975371113E+01 -0.17552614288E+03  0.13614524744E+03  0.23735782553E+03  0.83376040424E+02 0.  0.
          5    1    3    3  501    0 -0.53207245438E+02  0.89912610650E+02 -0.60361653267E+02  0.12075142942E+03  0.47000000000E+01 0. -1.
        -11    1    4    4    0    0  0.42296087095E+01  0.56388419073E+01  0.16124079706E+02  0.17597501932E+02  0.00000000000E+00 0.  1.
         12    1    4    4    0    0  0.64177842878E+02  0.50603704508E+02 -0.95558914104E+02  0.12574194404E+03  0.00000000000E+00 0. -1.
         -5    1    5    5    0  502 -0.87026690381E+01  0.29370985817E+02  0.16722748089E+02  0.35215501699E+02  0.47000000000E+01 0.  1.
         13    1    6    6    0    0  0.38114653170E+02 -0.85417941746E+02  0.72709596138E+02  0.11847209346E+03  0.00000000000E+00 0. -1.
        -14    1    6    6    0    0 -0.44612190282E+02 -0.90108201136E+02  0.63435651298E+02  0.11888573207E+03  0.00000000000E+00 0.  1.
</event>
<event>
12    1  0.8728348E-002  0.2117958E+03  0.7818608E-02  0.1140323E+00
         21   -1    0    0  501  502  0.00000000000E+00  0.00000000000E+00  0.59062106513E+03  0.59062106513E+03  0.00000000000E+00 0.  1.
         21   -1    0    0  502  503 -0.00000000000E+00 -0.00000000000E+00 -0.15290651070E+03  0.15290651070E+03  0.00000000000E+00 0.  1.
         -6    2    1    2    0  503 -0.11819552811E+03  0.33312588053E+02 -0.45641763151E+02  0.21580530869E+03  0.17149008521E+03 0.  0.
        -24    2    3    3    0    0 -0.15357970819E+02 -0.33049980234E+02 -0.11101041111E+02  0.88546889953E+02  0.79932159645E+02 0.  0.
          6    2    1    2  501    0  0.11819552811E+03 -0.33312588053E+02  0.48335631758E+03  0.52772226714E+03  0.17256172839E+03 0.  0.
         24    2    5    5    0    0  0.18102789459E+02 -0.10492154310E+02  0.35054128863E+03  0.35978998781E+03  0.78306091749E+02 0.  0.
          5    1    5    5  501    0  0.10009273865E+03 -0.22820433743E+02  0.13281502895E+03  0.16793227933E+03  0.47000000000E+01 0. -1.
        -11    1    6    6    0    0  0.39668119803E+02 -0.51658774461E+01  0.31728800836E+03  0.31979982219E+03  0.00000000000E+00 0.  1.
         12    1    6    6    0    0 -0.21565330344E+02 -0.53262768639E+01  0.33253280262E+02  0.39990165620E+02  0.00000000000E+00 0. -1.
         -5    1    3    3    0  503 -0.10283755729E+03  0.66362568287E+02 -0.34540722041E+02  0.12725841873E+03  0.47000000000E+01 0.  1.
         11    1    4    4    0    0  0.10521162336E+02 -0.12871101142E+02  0.30994523372E+02  0.35171303367E+02  0.00000000000E+00 0. -1.
        -12    1    4    4    0    0 -0.25879133155E+02 -0.20178879093E+02 -0.42095564483E+02  0.53375586586E+02  0.00000000000E+00 0.  1.
</event>
<event>
12    1  0.8728348E-002  0.2978053E+03  0.7818608E-02  0.1086401E+00
         21   -1    0    0  503  502  0.00000000000E+00  0.00000000000E+00  0.48782707084E+03  0.48782707084E+03  0.00000000000E+00 0. -1.
         21   -1    0    0  501  503 -0.00000000000E+00 -0.00000000000E+00 -0.40299177172E+03  0.40299177172E+03  0.00000000000E+00 0.  1.
          6    2    1    2  501    0 -0.20618954023E+03  0.12802127984E+03 -0.28779239339E+03  0.41380793723E+03  0.17178175873E+03 0.  0.
         24    2    3    3    0    0 -0.61140639417E+02  0.10721041429E+03 -0.12529693069E+03  0.19494921305E+03  0.84104839980E+02 0.  0.
         -6    2    1    2    0  502  0.20618954023E+03 -0.12802127984E+03  0.37262769251E+03  0.47701090533E+03  0.17258166759E+03 0.  0.
        -24    2    5    5    0    0  0.20213202112E+03 -0.76321746237E+02  0.35243909393E+03  0.42116312339E+03  0.80515207598E+02 0.  0.
          5    1    3    3  501    0 -0.14504890082E+03  0.20810865545E+02 -0.16249546270E+03  0.21885872418E+03  0.47000000000E+01 0. -1.
        -13    1    4    4    0    0 -0.71844501248E+02  0.64425912943E+02 -0.11412097290E+03  0.14945208956E+03  0.00000000000E+00 0.  1.
         14    1    4    4    0    0  0.10703861831E+02  0.42784501348E+02 -0.11175957795E+02  0.45497123495E+02  0.00000000000E+00 0. -1.
         -5    1    5    5    0  502  0.40575191095E+01 -0.51699533599E+02  0.20188598575E+02  0.55847781944E+02  0.47000000000E+01 0.  1.
         13    1    6    6    0    0  0.58655308830E+02 -0.45665649964E+02  0.66316546552E+02  0.99617675074E+02  0.00000000000E+00 0. -1.
        -14    1    6    6    0    0  0.14347671229E+03 -0.30656096273E+02  0.28612254738E+03  0.32154544831E+03  0.00000000000E+00 0.  1.
</event>
<event>
12    1  0.8728348E-002  0.1901405E+03  0.7818608E-02  0.1158441E+00
         21   -1    0    0  503  502  0.00000000000E+00  0.00000000000E+00  0.10938131899E+03  0.10938131899E+03  0.00000000000E+00 0. -1.
         21   -1    0    0  501  503 -0.00000000000E+00 -0.00000000000E+00 -0.32979066828E+03  0.32979066828E+03  0.00000000000E+00 0. -1.
          6    2    1    2  501    0  0.74840951565E+02  0.31837582303E+02 -0.10657451166E+03  0.21756024765E+03  0.17134624345E+03 0.  0.
         24    2    3    3    0    0  0.21348630708E+02  0.68082878402E+02 -0.10882124477E+03  0.15273519316E+03  0.79968328418E+02 0.  0.
         -6    2    1    2    0  502 -0.74840951565E+02 -0.31837582303E+02 -0.11383483764E+03  0.22161173962E+03  0.17186795281E+03 0.  0.
        -24    2    5    5    0    0 -0.22268530024E+00  0.33949593363E+02 -0.75725387868E+02  0.11498032632E+03  0.79583393957E+02 0.  0.
          5    1    3    3  501    0  0.53492320857E+02 -0.36245296099E+02  0.22467331168E+01  0.64825054490E+02  0.47000000000E+01 0. -1.
        -13    1    4    4    0    0  0.34978387309E+01  0.56740553053E+02 -0.18217747823E+02  0.59695992934E+02  0.00000000000E+00 0.  1.
         14    1    4    4    0    0  0.17850791977E+02  0.11342325348E+02 -0.90603496950E+02  0.93039200223E+02  0.00000000000E+00 0. -1.
         -5    1    5    5    0  502 -0.74618266265E+02 -0.65787175666E+02 -0.38109449767E+02  0.10663141331E+03  0.47000000000E+01 0.  1.
         11    1    6    6    0    0 -0.39797756308E+02  0.15376010041E+02 -0.40681816328E+02  0.58951618058E+02  0.00000000000E+00 0. -1.
        -12    1    6    6    0    0  0.39575071008E+02  0.18573583322E+02 -0.35043571540E+02  0.56028708257E+02  0.00000000000E+00 0.  1.
</event>
<event>
12    1  0.8728348E-002  0.2429056E+03  0.7818608E-02  0.1117941E+00
         21   -1    0    0  501  502  0.00000000000E+00  0.00000000000E+00  0.72021700948E+03  0.72021700948E+03  0.00000000000E+00 0. -1.
         21   -1    0    0  502  503 -0.00000000000E+00 -0.00000000000E+00 -0.16393730661E+03  0.16393730661E+03  0.00000000000E+00 0.  1.
         -6    2    1    2    0  503 -0.15571997986E+03 -0.69422886090E+02 -0.34691182933E+02  0.24537034645E+03  0.17301699195E+03 0.  0.
        -24    2    3    3    0    0 -0.36075924863E+02  0.19003628359E+02 -0.28225111148E+02  0.96380922540E+02  0.82643905310E+02 0.  0.
          6    2    1    2  501    0  0.15571997986E+03  0.69422886090E+02  0.59097088581E+03  0.63878396964E+03  0.17242425223E+03 0.  0.
         24    2    5    5    0    0  0.48637615881E+02  0.39166177347E+02  0.44196226910E+03  0.45275236224E+03  0.75858071959E+02 0.  0.
          5    1    5    5  501    0  0.10708236397E+03  0.30256708743E+02  0.14900861671E+03  0.18603160740E+03  0.47000000000E+01 0. -1.
        -11    1    6    6    0    0  0.18714182331E+02  0.58243646876E+02  0.23865643626E+03  0.24637255852E+03  0.00000000000E+00 0.  1.
         12    1    6    6    0    0  0.29923433550E+02 -0.19077469529E+02  0.20330583283E+03  0.20637980372E+03  0.00000000000E+00 0. -1.
         -5    1    3    3    0  503 -0.11964405499E+03 -0.88426514449E+02 -0.64660717848E+01  0.14898942391E+03  0.47000000000E+01 0.  1.
         11    1    4    4    0    0 -0.51217622566E+02  0.93981628531E+01  0.11026533627E+02  0.53227387407E+02  0.00000000000E+00 0. -1.
        -12    1    4    4    0    0  0.15141697703E+02  0.96054655059E+01 -0.39251644775E+02  0.43153535133E+02  0.00000000000E+00 0.  1.
</event>
<event>
12    1  0.8728348E-002  0.1951259E+03  0.7818608E-02  0.1154162E+00
         21   -1    0    0  501  502  0.00000000000E+00  0.00000000000E+00  0.16940965351E+04  0.16940965351E+04  0.00000000000E+00 0.  1.
         21   -1    0    0  502  503 -0.00000000000E+00 -0.00000000000E+00 -0.86430650857E+02  0.86430650857E+02  0.00000000000E+00 0.  1.
         -6    2    1    2    0  503  0.34952486175E+02 -0.84950036075E+02  0.37843409246E+02  0.19876179107E+03  0.17215092520E+03 0.  0.
        -24    2    3    3    0    0  0.23136345248E+02 -0.37117921215E+02 -0.45475797662E+02  0.10185094215E+03  0.79953334497E+02 0.  0.
          6    2    1    2  501    0 -0.34952486175E+02  0.84950036075E+02  0.15698224750E+04  0.15817653949E+04  0.17088293227E+03 0.  0.
         24    2    5    5    0    0 -0.38727929977E+02  0.12642078060E+03  0.12843011295E+04  0.12931850675E+04  0.73594573263E+02 0.  0.
          5    1    5    5  501    0  0.37754438012E+01 -0.41470744525E+02  0.28552134555E+03  0.28858032745E+03  0.47000000000E+01 0. -1.
        -13    1    6    6    0    0 -0.33038436292E+02  0.10646960428E+03  0.12302289187E+04  0.12352694068E+04  0.00000000000E+00 0.  1.
         14    1    6    6    0    0 -0.56894936844E+01  0.19951176316E+02  0.54072210753E+02  0.57915660667E+02  0.00000000000E+00 0. -1.
         -5    1    3    3    0  503  0.11816140927E+02 -0.47832114859E+02  0.83319206908E+02  0.96910848919E+02  0.47000000000E+01 0.  1.
         13    1    4    4    0    0  0.29076660888E+02 -0.50404255916E+02 -0.44955784045E+01  0.58363100056E+02  0.00000000000E+00 0. -1.
        -14    1    4    4    0    0 -0.59403156405E+01  0.13286334701E+02 -0.40980219257E+02  0.43487842095E+02  0.00000000000E+00 0.  1.
</event>
<event>
12    1  0.8728348E-002  0.1883362E+03  0.7818608E-02  0.1160194E+00
         21   -1    0    0  503  502  0.00000000000E+00  0.00000000000E+00  0.31513541524E+02  0.31513541524E+02  0.00000000000E+00 0.  1.
         21   -1    0    0  501  503 -0.00000000000E+00 -0.00000000000E+00 -0.11717107299E+04  0.11717107299E+04  0.00000000000E+00 0. -1.
          6    2    1    2  501    0  0.41550437390E+02 -0.65266587270E+02 -0.44195709365E+03  0.48003013072E+03  0.17063612604E+03 0.  0.
         24    2    3    3    0    0 -0.38473651437E+02 -0.12516504211E+02 -0.17951398625E+03  0.20059337459E+03  0.79847015827E+02 0.  0.
         -6    2    1    2    0  502 -0.41550437390E+02  0.65266587270E+02 -0.69824009476E+03  0.72319414074E+03  0.17171013077E+03 0.  0.
        -24    2    5    5    0    0 -0.11972923501E+00  0.45993756271E+02 -0.22046869009E+03  0.24321960943E+03  0.91836240925E+02 0.  0.
          5    1    3    3  501    0  0.80024088828E+02 -0.52750083059E+02 -0.26244310740E+03  0.27943675613E+03  0.47000000000E+01 0. -1.
        -13    1    4    4    0    0 -0.63501990816E+02 -0.10774125433E+02 -0.12759930307E+03  0.14293413434E+03  0.00000000000E+00 0.  1.
         14    1    4    4    0    0  0.25028339379E+02 -0.17423787779E+01 -0.51914683185E+02  0.57659240249E+02  0.00000000000E+00 0. -1.
         -5    1    5    5    0  502 -0.41430708155E+02  0.19272830999E+02 -0.47777140466E+03  0.47997453131E+03  0.47000000000E+01 0.  1.
         13    1    6    6    0    0  0.14992720462E+02 -0.19300905670E+02 -0.11989647906E+03  0.12236205424E+03  0.00000000000E+00 0. -1.
        -14    1    6    6    0    0 -0.15112449697E+02  0.65294661941E+02 -0.10057221103E+03  0.12085755519E+03  0.00000000000E+00 0.  1.
</event>
<event>
12    1  0.8728348E-002  0.3439498E+03  0.7818608E-02  0.1065821E+00
         21   -1    0    0  503  502  0.00000000000E+00  0.00000000000E+00  0.26729498500E+03  0.26729498500E+03  0.00000000000E+00 0.  1.
         21   -1    0    0  501  503 -0.00000000000E+00 -0.00000000000E+00 -0.52584497877E+03  0.52584497877E+03  0.00000000000E+00 0. -1.
          6    2    1    2  501    0  0.16800218558E+03  0.23950958071E+03  0.35256352228E+02  0.34575203269E+03  0.18086426989E+03 0.  0.
         24    2    3    3    0    0  0.86404678155E+02  0.45521876779E+02 -0.22209985496E+02  0.12754604637E+03  0.78972785287E+02 0.  0.
         -6    2    1    2    0  502 -0.16800218558E+03 -0.23950958071E+03 -0.29380634600E+03  0.44738793109E+03  0.16806016281E+03 0.  0.
        -24    2    5    5    0    0 -0.15690395386E+02 -0.11456143999E+03 -0.12559931157E+03  0.18829988479E+03  0.79442730986E+02 0.  0.
          5    1    3    3  501    0  0.81597507430E+02  0.19398770393E+03  0.57466337724E+02  0.21820598632E+03  0.47000000000E+01 0. -1.
        -13    1    4    4    0    0  0.47332765785E+02  0.22784181988E+02  0.28374948413E+02  0.59704667850E+02  0.00000000000E+00 0.  1.
         14    1    4    4    0    0  0.39071912370E+02  0.22737694791E+02 -0.50584933909E+02  0.67841378518E+02  0.00000000000E+00 0. -1.
         -5    1    5    5    0  502 -0.15231179020E+03 -0.12494814071E+03 -0.16820703443E+03  0.25908804630E+03  0.47000000000E+01 0.  1.
         11    1    6    6    0    0  0.20990065635E+02 -0.13068832739E+01 -0.22712065048E+02  0.30953654032E+02  0.00000000000E+00 0. -1.
        -12    1    6    6    0    0 -0.36680461020E+02 -0.11325455672E+03 -0.10288724652E+03  0.15734623076E+03  0.00000000000E+00 0.  1.
</event>
<event>
12    1  0.8728348E-002  0.2046200E+03  0.7818608E-02  0.1146009E+00
         21   -1    0    0  501  502  0.00000000000E+00  0.00000000000E+00  0.20410926863E+02  0.20410926863E+02  0.00000000000E+00 0. -1.
         21   -1    0    0  502  503 -0.00000000000E+00 -0.00000000000E+00 -0.25408276327E+04  0.25408276327E+04  0.00000000000E+00 0. -1.
         -6    2    1    2    0  503 -0.18504365209E+02  0.11038674724E+03 -0.18267304397E+04  0.18381549063E+04  0.17129423413E+03 0.  0.
        -24    2    3    3    0    0 -0.66243139253E+02  0.11552454823E+03 -0.12841036021E+04  0.12933876510E+04  0.78711371940E+02 0.  0.
          6    2    1    2  501    0  0.18504365209E+02 -0.11038674724E+03 -0.69368626610E+03  0.72308365325E+03  0.17065077885E+03 0.  0.
         24    2    5    5    0    0 -0.15094935700E+02 -0.49806671650E+02 -0.17018203636E+03  0.19499499863E+03  0.79702963354E+02 0.  0.
          5    1    5    5  501    0  0.33599300909E+02 -0.60580075589E+02 -0.52350422974E+03  0.52808865462E+03  0.47000000000E+01 0. -1.
        -11    1    6    6    0    0 -0.42556214382E+02 -0.27652371488E+02 -0.13875318164E+03  0.14774346160E+03  0.00000000000E+00 0.  1.
         12    1    6    6    0    0  0.27461278682E+02 -0.22154300162E+02 -0.31428854720E+02  0.47251537028E+02  0.00000000000E+00 0. -1.
         -5    1    3    3    0  503  0.47738774043E+02 -0.51378009903E+01 -0.54262683763E+03  0.54476725531E+03  0.47000000000E+01 0.  1.
         11    1    4    4    0    0 -0.28534947909E+02  0.93306251378E+02 -0.59966953630E+03  0.60755563742E+03  0.00000000000E+00 0. -1.
        -12    1    4    4    0    0 -0.37708191344E+02  0.22218296852E+02 -0.68443406581E+03  0.68583201358E+03  0.00000000000E+00 0.  1.
</event>
<event>
12    1  0.8728348E-002  0.1997450E+03  0.7818608E-02  0.1150510E+00
         21   -1    0    0  501  502  0.00000000000E+00  0.00000000000E+00  0.23609356534E+03  0.23609356534E+03  0.00000000000E+00 0. -1.
         21   -1    0    0  502  503 -0.00000000000E+00 -0.00000000000E+00 -0.23479445062E+03  0.23479445062E+03  0.00000000000E+00 0.  1.
         -6    2    1    2    0  503  0.62361964801E+02 -0.78888098756E+02 -0.12605677472E+03  0.23619559963E+03  0.17258535295E+03 0.  0.
        -24    2    3    3    0    0  0.16583807254E+02 -0.90793699699E+02 -0.24713021616E+02  0.12425798604E+03  0.79440512897E+02 0.  0.
          6    2    1    2  501    0 -0.62361964801E+02  0.78888098756E+02  0.12735588944E+03  0.23469241634E+03  0.16955430083E+03 0.  0.
         24    2    5    5    0    0 -0.67124746413E+02  0.34273243895E+02  0.12110264256E+02  0.11093130173E+03  0.80490424125E+02 0.  0.
          5    1    5    5  501    0  0.47627816127E+01  0.44614854861E+02  0.11524562519E+03  0.12376111460E+03  0.47000000000E+01 0. -1.
        -13    1    6    6    0    0 -0.12466946396E+02  0.11601687727E+00 -0.30984258326E+02  0.33398540033E+02  0.00000000000E+00 0.  1.
         14    1    6    6    0    0 -0.54657800017E+02  0.34157227017E+02  0.43094522582E+02  0.77532761700E+02  0.00000000000E+00 0. -1.
         -5    1    3    3    0  503  0.45778157547E+02  0.11905600943E+02 -0.10134375311E+03  0.11193761359E+03  0.47000000000E+01 0.  1.
         13    1    4    4    0    0 -0.80691556553E+01 -0.41037221801E+02  0.25842066192E+02  0.49162762648E+02  0.00000000000E+00 0. -1.
        -14    1    4    4    0    0  0.24652962910E+02 -0.49756477898E+02 -0.50555087808E+02  0.75095223393E+02  0.00000000000E+00 0.  1.
</event>
<event>
12    1  0.8728348E-002  0.2242452E+03  0.7818608E-02  0.1130936E+00
         21   -1    0    0  501  502  0.00000000000E+00  0.00000000000E+00  0.32187098240E+04  0.32187098240E+04  0.00000000000E+00 0.  1.
         21   -1    0    0  502  503 -0.00000000000E+00 -0.00000000000E+00 -0.29028932598E+03  0.29028932598E+03  0.00000000000E+00 0.  1.
         -6    2    1    2    0  503 -0.14239633369E+03 -0.52698542667E+01 -0.24280746771E+03  0.32985260989E+03  0.17188016366E+03 0.  0.
        -24    2    3    3    0    0 -0.21323903525E+01  0.15718315850E+02 -0.81368099220E+02  0.11491253269E+03  0.79577069925E+02 0.  0.
          6    2    1    2  501    0  0.14239633369E+03  0.52698542667E+01  0.31712279657E+04  0.31791465401E+04  0.17315145253E+03 0.  0.
         24    2    5    5    0    0  0.48229255419E+02 -0.53156320795E+02  0.19148237919E+04  0.19178556956E+04  0.80427975924E+02 0.  0.
          5    1    5    5  501    0  0.94167078266E+02  0.58426175062E+02  0.12564041738E+04  0.12612908445E+04  0.47000000000E+01 0. -1.
        -11    1    6    6    0    0  0.23353245807E+02  0.19808715796E+02  0.51054842113E+03  0.51146598091E+03  0.00000000000E+00 0.  1.
         12    1    6    6    0    0  0.24876009612E+02 -0.72965036591E+02  0.14042753708E+04  0.14063897146E+04  0.00000000000E+00 0. -1.
         -5    1    3    3    0  503 -0.14026394333E+03 -0.20988170117E+02 -0.16143936849E+03  0.21494007719E+03  0.47000000000E+01 0.  1.
         11    1    4    4    0    0  0.23065016429E+02  0.33937289588E+02 -0.18990868660E+02  0.45214905727E+02  0.00000000000E+00 0. -1.
        -12    1    4    4    0    0 -0.25197406782E+02 -0.18218973738E+02 -0.62377230560E+02  0.69697626967E+02  0.00000000000E+00 0.  1.
</event>
<event>
12    1  0.8728348E-002  0.1743635E+03  0.7818608E-02  0.1173422E+00
         21   -1    0    0  501  502  0.00000000000E+00  0.00000000000E+00  0.29874358040E+02  0.29874358040E+02  0.00000000000E+00 0.  1.
         21   -1    0    0  502  503 -0.00000000000E+00 -0.00000000000E+00 -0.12847697991E+04  0.12847697991E+04  0.00000000000E+00 0.  1.
         -6    2    1    2    0  503  0.23544425013E+02  0.15222364412E+01 -0.92751320499E+03  0.94372401443E+03  0.17256191010E+03 0.  0.
        -24    2    3    3    0    0 -0.36147545358E+02 -0.40539665282E+02 -0.42001099245E+03  0.43097366519E+03  0.79868371804E+02 0.  0.
          6    2    1    2  501    0 -0.23544425013E+02 -0.15222364412E+01 -0.32738223607E+03  0.37092014271E+03  0.17275985247E+03 0.  0.
         24    2    5    5    0    0 -0.66224897981E+02  0.20784986986E+02 -0.29304592215E+03  0.31158796390E+03  0.79958701590E+02 0.  0.
          5    1    5    5  501    0  0.42680472968E+02 -0.22307223427E+02 -0.34336313917E+02  0.59332178817E+02  0.47000000000E+01 0. -1.
        -13    1    6    6    0    0 -0.16440317462E+02 -0.86553095175E+01 -0.71621564589E+01  0.19912179846E+02  0.00000000000E+00 0.  1.
         14    1    6    6    0    0 -0.49784580519E+02  0.29440296503E+02 -0.28588376569E+03  0.29167578405E+03  0.00000000000E+00 0. -1.
         -5    1    3    3    0  503  0.59691970371E+02  0.42061901723E+02 -0.50750221255E+03  0.51275034924E+03  0.47000000000E+01 0.  1.
         13    1    4    4    0    0 -0.43082164994E+02  0.54817307844E+01 -0.28204719843E+03  0.28537123971E+03  0.00000000000E+00 0. -1.
        -14    1    4    4    0    0  0.69346196363E+01 -0.46021396066E+02 -0.13796379402E+03  0.14560242548E+03  0.00000000000E+00 0.  1.
</event>
<event>
12    1  0.8728348E-002  0.2144776E+03  0.7818608E-02  0.1138370E+00
         21   -1    0    0  501  502  0.00000000000E+00  0.00000000000E+00  0.50182399183E+02  0.50182399183E+02  0.00000000000E+00 0. -1.
         21   -1    0    0  502  503 -0.00000000000E+00 -0.00000000000E+00 -0.10117964155E+04  0.10117964155E+04  0.00000000000E+00 0. -1.
         -6    2    1    2    0  503  0.11222131934E+03 -0.60916558004E+02 -0.65080475950E+03  0.68523533805E+03  0.17232580185E+03 0.  0.
        -24    2    3    3    0    0  0.91135233411E+02  0.94604947436E+01 -0.52423901433E+03  0.53881631462E+03  0.84269478627E+02 0.  0.
          6    2    1    2  501    0 -0.11222131934E+03  0.60916558004E+02 -0.31080925687E+03  0.37674347668E+03  0.17037840682E+03 0.  0.
         24    2    5    5    0    0 -0.20850513819E+02  0.60865581665E+02 -0.23962893711E+03  0.26082387254E+03  0.80422024548E+02 0.  0.
          5    1    5    5  501    0 -0.91370805524E+02  0.50976338753E-01 -0.71180319762E+02  0.11591960413E+03  0.47000000000E+01 0. -1.
        -11    1    6    6    0    0  0.13306442979E+02  0.18062686978E+02 -0.96622819706E+01  0.24427070608E+02  0.00000000000E+00 0.  1.
         12    1    6    6    0    0 -0.34156956798E+02  0.42802894687E+02 -0.22996665514E+03  0.23639680194E+03  0.00000000000E+00 0. -1.
         -5    1    3    3    0  503  0.21086085933E+02 -0.70377052747E+02 -0.12656574517E+03  0.14641902343E+03  0.47000000000E+01 0.  1.
         11    1    4    4    0    0  0.48500312144E+02 -0.35331111036E+02 -0.31353771687E+03  0.31922792419E+03  0.00000000000E+00 0. -1.
        -12    1    4    4    0    0  0.42634921267E+02  0.44791605779E+02 -0.21070129746E+03  0.21958839043E+03  0.00000000000E+00 0.  1.
</event>
<event>
12    1  0.8728348E-002  0.2375442E+03  0.7818608E-02  0.1121515E+00
         21   -1    0    0  501  502  0.00000000000E+00  0.00000000000E+00  0.17116256563E+03  0.17116256563E+03  0.00000000000E+00 0. -1.
         21   -1    0    0  502  503 -0.00000000000E+00 -0.00000000000E+00 -0.36152658727E+03  0.36152658727E+03  0.00000000000E+00 0. -1.
         -6    2    1    2    0  503 -0.15144234098E+02 -0.16361482350E+03 -0.17509449186E+03  0.29510224712E+03  0.17154619459E+03 0.  0.
        -24    2    3    3    0    0  0.37028894424E+02 -0.13543432677E+03 -0.73549255697E+02  0.17741749567E+03  0.79711221707E+02 0.  0.
          6    2    1    2  501    0  0.15144234098E+02  0.16361482350E+03 -0.15269529779E+02  0.23758690578E+03  0.17092460608E+03 0.  0.
         24    2    5    5    0    0  0.17525232183E+02  0.21831233835E+02 -0.46725774495E+02  0.92260236577E+02  0.74464197553E+02 0.  0.
          5    1    5    5  501    0 -0.23809980850E+01  0.14178358966E+03  0.31456244715E+02  0.14532666920E+03  0.47000000000E+01 0. -1.
        -11    1    6    6    0    0 -0.21676589862E+02  0.14830153305E+02  0.52491372327E+01  0.26783603880E+02  0.00000000000E+00 0.  1.
         12    1    6    6    0    0  0.39201822045E+02  0.70010805301E+01 -0.51974911727E+02  0.65476632697E+02  0.00000000000E+00 0. -1.
         -5    1    3    3    0  503 -0.52173128522E+02 -0.28180496727E+02 -0.10154523617E+03  0.11768475145E+03  0.47000000000E+01 0.  1.
         11    1    4    4    0    0  0.41447214798E+02 -0.20286354403E+02 -0.23506301411E+02  0.51787585341E+02  0.00000000000E+00 0. -1.
        -12    1    4    4    0    0 -0.44183203746E+01 -0.11514797237E+03 -0.50042954287E+02  0.12562991033E+03  0.00000000000E+00 0.  1.
</event>
<event>
12    1  0.8728348E-002  0.2066085E+03  0.7818608E-02  0.1144291E+00
         21   -1    0    0  501  502  0.00000000000E+00  0.00000000000E+00  0.48676967453E+02  0.48676967453E+02  0.00000000000E+00 0. -1.
         21   -1    0    0  502  503 -0.00000000000E+00 -0.00000000000E+00 -0.92725828845E+03  0.92725828845E+03  0.00000000000E+00 0. -1.
         -6    2    1    2    0  503  0.62174589384E+02  0.96359470385E+02 -0.55316531701E+03  0.59047107812E+03  0.17179464210E+03 0.  0.
        -24    2    3    3    0    0  0.51858905639E+01  0.11554470374E+03 -0.44126412648E+03  0.46335006721E+03  0.81251359627E+02 0.  0.
          6    2    1    2  501    0 -0.62174589384E+02 -0.96359470385E+02 -0.32541600398E+03  0.38546417778E+03  0.17186107647E+03 0.  0.
         24    2    5    5    0    0 -0.74573247761E+02 -0.45798150492E+02 -0.11502132836E+03  0.16867353378E+03  0.86960997857E+02 0.  0.
          5    1    5    5  501    0  0.12398658376E+02 -0.50561319893E+02 -0.21039467562E+03  0.21679064401E+03  0.47000000000E+01 0. -1.
        -13    1    6    6    0    0 -0.21248502062E+01  0.22559758244E+02 -0.30770764179E+02  0.38213840537E+02  0.00000000000E+00 0.  1.
         14    1    6    6    0    0 -0.72448397554E+02 -0.68357908736E+02 -0.84250564183E+02  0.13045969324E+03  0.00000000000E+00 0. -1.
         -5    1    3    3    0  503  0.56988698820E+02 -0.19185233359E+02 -0.11190119054E+03  0.12712101091E+03  0.47000000000E+01 0.  1.
         13    1    4    4    0    0  0.99446207466E+01  0.11756504839E+03 -0.44256251836E+03  0.45801967070E+03  0.00000000000E+00 0. -1.
        -14    1    4    4    0    0 -0.47587301826E+01 -0.20203446495E+01  0.12983918870E+01  0.53303965093E+01  0.00000000000E+00 0.  1.
</event>
<event>
12    1  0.8728348E-002  0.2132850E+03  0.7818608E-02  0.1139223E+00
         21   -1    0    0  503  502  0.00000000000E+00  0.00000000000E+00  0.57807803838E+02  0.57807803838E+02  0.00000000000E+00 0.  1.
         21   -1    0    0  501  503 -0.00000000000E+00 -0.00000000000E+00 -0.13083259798E+04  0.13083259798E+04  0.00000000000E+00 0.  1.
          6    2    1    2  501    0 -0.70026583817E+02  0.10311726092E+03 -0.10593358204E+04  0.10805937683E+04  0.17307114028E+03 0.  0.
         24    2    3    3    0    0  0.27269544034E+02  0.38467814562E+02 -0.36058001646E+03  0.37212510205E+03  0.78966717768E+02 0.  0.
         -6    2    1    2    0  502  0.70026583817E+02 -0.10311726092E+03 -0.19118235547E+03  0.28554001533E+03  0.17159695618E+03 0.  0.
        -24    2    5    5    0    0  0.38327254259E+02 -0.65161599465E+02 -0.20646929935E+03  0.23356636446E+03  0.78795066911E+02 0.  0.
          5    1    3    3  501    0 -0.97296127851E+02  0.64649446359E+02 -0.69875580399E+03  0.70846866622E+03  0.47000000000E+01 0. -1.
        -11    1    4    4    0    0  0.36695090917E+02  0.51317106537E+02 -0.34144121898E+03  0.34722050795E+03  0.00000000000E+00 0.  1.
         12    1    4    4    0    0 -0.94255468826E+01 -0.12849291974E+02 -0.19138797473E+02  0.24904594094E+02  0.00000000000E+00 0. -1.
         -5    1    5    5    0  502  0.31699329558E+02 -0.37955661456E+02  0.15286943881E+02  0.51973650864E+02  0.47000000000E+01 0.  1.
         11    1    6    6    0    0 -0.44115285665E+01 -0.63620815397E+02 -0.14773176546E+03  0.16090911802E+03  0.00000000000E+00 0. -1.
        -12    1    6    6    0    0  0.42738782826E+02 -0.15407840689E+01 -0.58737533894E+02  0.72657246445E+02  0.00000000000E+00 0.  1.
</event>
<event>
12    1  0.8728348E-002  0.1801387E+03  0.7818608E-02  0.1169109E+00
         21   -1    0    0  503  502  0.00000000000E+00  0.00000000000E+00  0.73900623688E+02  0.73900623688E+02  0.00000000000E+00 0.  1.
         21   -1    0    0  501  503 -0.00000000000E+00 -0.00000000000E+00 -0.48017230028E+03  0.48017230028E+03  0.00000000000E+00 0.  1.
          6    2    1    2  501    0  0.38805940458E+02 -0.37735332020E+02 -0.29410282631E+03  0.34186596496E+03  0.16566837132E+03 0.  0.
         24    2    3    3    0    0  0.34064884858E+02 -0.87459556651E+02 -0.19046454116E+03  0.22672274860E+03  0.79478757320E+02 0.  0.
         -6    2    1    2    0  502 -0.38805940458E+02  0.37735332020E+02 -0.11216885028E+03  0.21220695901E+03  0.17181410356E+03 0.  0.
        -24    2    5    5    0    0 -0.25921682067E+02 -0.44699483688E+02 -0.69852347956E+02  0.11853583579E+03  0.80631361202E+02 0.  0.
          5    1    3    3  501    0  0.47410555999E+01  0.49724224630E+02 -0.10363828515E+03  0.11514321635E+03  0.47000000000E+01 0. -1.
        -13    1    4    4    0    0  0.11721719126E+02 -0.50686011366E+02 -0.17235969815E+03  0.18003981780E+03  0.00000000000E+00 0.  1.
         14    1    4    4    0    0  0.22343165732E+02 -0.36773545285E+02 -0.18104843006E+02  0.46682930800E+02  0.00000000000E+00 0. -1.
         -5    1    5    5    0  502 -0.12884258391E+02  0.82434815709E+02 -0.42316502324E+02  0.93671123214E+02  0.47000000000E+01 0.  1.
         13    1    6    6    0    0  0.89305483088E+01 -0.17357728651E+01  0.14821713415E+02  0.17391112359E+02  0.00000000000E+00 0. -1.
        -14    1    6    6    0    0 -0.34852230376E+02 -0.42963710823E+02 -0.84674061371E+02  0.10114472344E+03  0.00000000000E+00 0.  1.
</event>
<event>
12    1  0.8728348E-002  0.1868649E+03  0.7818608E-02  0.1162961E+00
         21   -1    0    0  503  502  0.00000000000E+00  0.00000000000E+00  0.38112685297E+03  0.38112685297E+03  0.00000000000E+00 0.  1.
         21   -1    0    0  501  503 -0.00000000000E+00 -0.00000000000E+00 -0.19416773974E+03  0.19416773974E+03  0.00000000000E+00 0.  1.
          6    2    1    2  501    0  0.31172155050E+02  0.48496680888E+02  0.30674145825E+03  0.35917794418E+03  0.17774937995E+03 0.  0.
         24    2    3    3    0    0  0.80530369802E+02 -0.45266064682E+01  0.21908679648E+03  0.24536611661E+03  0.75497524218E+02 0.  0.
         -6    2    1    2    0  502 -0.31172155050E+02 -0.48496680888E+02 -0.11978234501E+03  0.21611664852E+03  0.17039649141E+03 0.  0.
        -24    2    5    5    0    0 -0.36148875213E+02 -0.60164398482E+01  0.21655783050E+00  0.88636590058E+02  0.80706006420E+02 0.  0.
          5    1    3    3  501    0 -0.49358214753E+02  0.53023287356E+02  0.87654661772E+02  0.11381182758E+03  0.47000000000E+01 0. -1.
        -13    1    4    4    0    0  0.67939543146E+02 -0.13394284546E+02  0.81611575254E+02  0.10703101231E+03  0.00000000000E+00 0.  1.
         14    1    4    4    0    0  0.12590826656E+02  0.88676780779E+01  0.13747522122E+03  0.13833510430E+03  0.00000000000E+00 0. -1.
         -5    1    5    5    0  502  0.49767201630E+01 -0.42480241040E+02 -0.11999890285E+03  0.12748005847E+03  0.47000000000E+01 0.  1.
         11    1    6    6    0    0  0.81726119306E+01 -0.74813939837E+00  0.32520126964E+02  0.33539677340E+02  0.00000000000E+00 0. -1.
        -12    1    6    6    0    0 -0.44321487143E+02 -0.52683004499E+01 -0.32303569134E+02  0.55096912718E+02  0.00000000000E+00 0.  1.
</event>
<event>
12    1  0.8728348E-002  0.1883015E+03  0.7818608E-02  0.1160170E+00
         21   -1    0    0  501  502  0.00000000000E+00  0.00000000000E+00  0.14486736028E+03  0.14486736028E+03  0.00000000000E+00 0. -1.
         21   -1    0    0  502  503 -0.00000000000E+00 -0.00000000000E+00 -0.24671229390E+03  0.24671229390E+03  0.00000000000E+00 0. -1.
         -6    2    1    2    0  503  0.31266754595E+02 -0.69459342227E+02 -0.72283536505E+02  0.20169873126E+03  0.17220702186E+03 0.  0.
        -24    2    3    3    0    0 -0.15329226319E+01  0.13106503748E+02  0.85172998964E+01  0.81516357716E+02  0.79989011029E+02 0.  0.
          6    2    1    2  501    0 -0.31266754595E+02  0.69459342227E+02 -0.29561397118E+02  0.18988092292E+03  0.17140209604E+03 0.  0.
         24    2    5    5    0    0 -0.26928222218E+02 -0.28329207914E+02  0.33874771020E+01  0.86492617423E+02  0.77083232254E+02 0.  0.
          5    1    5    5  501    0 -0.43385323764E+01  0.97788550142E+02 -0.32948874220E+02  0.10338830550E+03  0.47000000000E+01 0. -1.
        -13    1    6    6    0    0  0.23372144529E+02 -0.26709772297E+02 -0.36396674535E+01  0.35677951949E+02  0.00000000000E+00 0.  1.
         14    1    6    6    0    0 -0.50300366748E+02 -0.16194356168E+01  0.70271445555E+01  0.50814665474E+02  0.00000000000E+00 0. -1.
         -5    1    3    3    0  503  0.32799677227E+02 -0.82565845976E+02 -0.80800836401E+02  0.12018237355E+03  0.47000000000E+01 0.  1.
         11    1    4    4    0    0  0.31757017037E+02  0.11912437004E+02 -0.18491894766E+02  0.38631133280E+02  0.00000000000E+00 0. -1.
        -12    1    4    4    0    0 -0.33289939669E+02  0.11940667444E+01  0.27009194662E+02  0.42885224435E+02  0.00000000000E+00 0.  1.
</event>
<event>
12    1  0.8728348E-002  0.2192709E+03  0.7818608E-02  0.1134559E+00
         21   -1    0    0  503  502  0.00000000000E+00  0.00000000000E+00  0.23725761516E+03  0.23725761516E+03  0.00000000000E+00 0.  1.
         21   -1    0    0  501  503 -0.00000000000E+00 -0.00000000000E+00 -0.21444252605E+03  0.21444252605E+03  0.00000000000E+00 0.  1.
          6    2    1    2  501    0  0.13157454323E+03  0.33589962692E+02 -0.43007583920E+02  0.22276270146E+03  0.17127002910E+03 0.  0.
         24    2    3    3    0    0  0.10524936177E+03 -0.31916341808E+02 -0.62431771718E+02  0.14939049842E+03  0.79521782360E+02 0.  0.
         -6    2    1    2    0  502 -0.13157454323E+03 -0.33589962692E+02  0.65822673032E+02  0.22893743975E+03  0.17216149689E+03 0.  0.
        -24    2    5    5    0    0 -0.14136183037E+03 -0.69693211528E+02  0.71497097907E+02  0.19081232121E+03  0.80356680484E+02 0.  0.
          5    1    3    3  501    0  0.26325181461E+02  0.65506304500E+02  0.19424187797E+02  0.73372203046E+02  0.47000000000E+01 0. -1.
        -11    1    4    4    0    0  0.81750964636E+02  0.49534458022E+01 -0.66474319402E+02  0.10548266201E+03  0.00000000000E+00 0.  1.
         12    1    4    4    0    0  0.23498397137E+02 -0.36869787610E+02  0.40425476850E+01  0.43907836410E+02  0.00000000000E+00 0. -1.
         -5    1    5    5    0  502  0.97872871312E+01  0.36103248836E+02 -0.56744248750E+01  0.38125118538E+02  0.47000000000E+01 0.  1.
         13    1    6    6    0    0 -0.40207657501E+02 -0.60403988973E+02  0.46562488720E+02  0.86216952865E+02  0.00000000000E+00 0. -1.
        -14    1    6    6    0    0 -0.10115417286E+03 -0.92892225555E+01  0.24934609188E+02  0.10459536834E+03  0.00000000000E+00 0.  1.
</event>
<event>
12    1  0.8728348E-002  0.1774126E+03  0.7818608E-02  0.1170794E+00
         21   -1    0    0  503  502  0.00000000000E+00  0.00000000000E+00  0.96982254984E+03  0.96982254984E+03  0.00000000000E+00 0.  1.
         21   -1    0    0  501  503 -0.00000000000E+00 -0.00000000000E+00 -0.57023456478E+02  0.57023456478E+02  0.00000000000E+00 0.  1.
          6    2    1    2  501    0 -0.31936654659E+02 -0.14154766974E+02  0.11570545916E+03  0.21024728192E+03  0.17203447020E+03 0.  0.
         24    2    3    3    0    0 -0.72304221822E+02 -0.19036618633E+02  0.28016072403E+02  0.11347491240E+03  0.80631024351E+02 0.  0.
         -6    2    1    2    0  502  0.31936654659E+02  0.14154766974E+02  0.79709363420E+03  0.81659872439E+03  0.17393937927E+03 0.  0.
        -24    2    5    5    0    0  0.49179385044E+02  0.59154651507E+02  0.35638678985E+03  0.37324005016E+03  0.79866803848E+02 0.  0.
          5    1    3    3  501    0  0.40367567163E+02  0.48818516584E+01  0.87689386756E+02  0.96772369527E+02  0.47000000000E+01 0. -1.
        -13    1    4    4    0    0 -0.19046781606E+02  0.31138261068E+02  0.13232950314E+02  0.38826307653E+02  0.00000000000E+00 0.  1.
         14    1    4    4    0    0 -0.53257440216E+02 -0.50174879701E+02  0.14783122088E+02  0.74648604743E+02  0.00000000000E+00 0. -1.
         -5    1    5    5    0  502 -0.17242730386E+02 -0.44999884533E+02  0.44070684435E+03  0.44335867423E+03  0.47000000000E+01 0.  1.
         11    1    6    6    0    0 -0.15214003893E+02  0.12636173396E+02  0.22157314591E+02  0.29699922264E+02  0.00000000000E+00 0. -1.
        -12    1    6    6    0    0  0.64393388938E+02  0.46518478111E+02  0.33422947526E+03  0.34354012790E+03  0.00000000000E+00 0.  1.
</event>
<event>
12    1  0.8728348E-002  0.1875705E+03  0.7818608E-02  0.1160971E+00
         21   -1    0    0  503  502  0.00000000000E+00  0.00000000000E+00  0.24051533147E+03  0.24051533147E+03  0.00000000000E+00 0.  1.
         21   -1    0    0  501  503 -0.00000000000E+00 -0.00000000000E+00 -0.15048956521E+03  0.15048956521E+03  0.00000000000E+00 0.  1.
          6    2    1    2  501    0 -0.27365519308E+02 -0.68430085699E+02  0.81582792937E+02  0.20454448425E+03  0.17248520417E+03 0.  0.
         24    2    3    3    0    0  0.40772340525E+02 -0.68839505556E+02  0.25830494365E+02  0.11637791256E+03  0.80469514818E+02 0.  0.
         -6    2    1    2    0  502  0.27365519308E+02  0.68430085699E+02  0.84429733202E+01  0.18646041244E+03  0.17106914781E+03 0.  0.
        -24    2    5    5    0    0  0.27617374919E+02  0.27674518289E+02 -0.59532143885E+02  0.10706402546E+03  0.79937669669E+02 0.  0.
          5    1    3    3  501    0 -0.68137859833E+02  0.40941985742E+00  0.55752298572E+02  0.88166571688E+02  0.47000000000E+01 0. -1.
        -13    1    4    4    0    0 -0.22575909764E+02 -0.23934088986E+02  0.20013667658E+02  0.38510507792E+02  0.00000000000E+00 0.  1.
         14    1    4    4    0    0  0.63348250289E+02 -0.44905416570E+02  0.58168267073E+01  0.77867404766E+02  0.00000000000E+00 0. -1.
         -5    1    5    5    0  502 -0.25185561162E+00  0.40755567410E+02  0.67975117206E+02  0.79396386979E+02  0.47000000000E+01 0.  1.
         13    1    6    6    0    0 -0.23322616858E+02  0.92532108798E+01  0.18973598283E+01  0.25162796804E+02  0.00000000000E+00 0. -1.
        -14    1    6    6    0    0  0.50939991777E+02  0.18421307409E+02 -0.61429503714E+02  0.81901228656E+02  0.00000000000E+00 0.  1.
</event>
<event>
12    1  0.8728348E-002  0.1918408E+03  0.7818608E-02  0.1156919E+00
         21   -1    0    0  503  502  0.00000000000E+00  0.00000000000E+00  0.48625291833E+02  0.48625291833E+02  0.00000000000E+00 0. -1.
         21   -1    0    0  501  503 -0.00000000000E+00 -0.00000000000E+00 -0.11169428772E+04  0.11169428772E+04  0.00000000000E+00 0. -1.
          6    2    1    2  501    0  0.69070136935E+02  0.50746601711E+02 -0.86547097362E+03  0.88637356235E+03  0.17109115830E+03 0.  0.
         24    2    3    3    0    0  0.92359810489E+02  0.81503341854E+02 -0.76200782956E+03  0.77585162725E+03  0.78209244168E+02 0.  0.
         -6    2    1    2    0  502 -0.69070136935E+02 -0.50746601711E+02 -0.20284661172E+03  0.27919460666E+03  0.17163035599E+03 0.  0.
        -24    2    5    5    0    0 -0.16009180270E+02 -0.14134923005E+02 -0.22482497554E+02  0.87598197977E+02  0.81926135582E+02 0.  0.
          5    1    3    3  501    0 -0.23289673554E+02 -0.30756740143E+02 -0.10346314406E+03  0.11052193510E+03  0.47000000000E+01 0. -1.
        -13    1    4    4    0    0  0.39267612137E+02  0.83909049633E+02 -0.49925065937E+03  0.50777346805E+03  0.00000000000E+00 0.  1.
         14    1    4    4    0    0  0.53092198353E+02 -0.24057077794E+01 -0.26275717019E+03  0.26807815920E+03  0.00000000000E+00 0. -1.
         -5    1    5    5    0  502 -0.53060956665E+02 -0.36611678707E+02 -0.18036411417E+03  0.19159640868E+03  0.47000000000E+01 0.  1.
         11    1    6    6    0    0 -0.24507293591E+02  0.20357704340E+02  0.15638479142E+02  0.35490922713E+02  0.00000000000E+00 0. -1.
        -12    1    6    6    0    0  0.84981133216E+01 -0.34492627345E+02 -0.38120976696E+02  0.52107275264E+02  0.00000000000E+00 0.  1.
</event>
<event>
12    1  0.8728348E-002  0.1906856E+03  0.7818608E-02  0.1158005E+00
         21   -1    0    0  503  502  0.00000000000E+00  0.00000000000E+00  0.36016400224E+03  0.36016400224E+03  0.00000000000E+00 0.  1.
         21   -1    0    0  501  503 -0.00000000000E+00 -0.00000000000E+00 -0.16016652245E+03  0.16016652245E+03  0.00000000000E+00 0.  1.
          6    2    1    2  501    0 -0.64467137605E+02 -0.49042903757E+02 -0.58569429455E+02  0.19947775567E+03  0.17262612404E+03 0.  0.
         24    2    3    3    0    0 -0.88508453097E+02 -0.51336395195E+02  0.69377506487E+01  0.12950257723E+03  0.79079791241E+02 0.  0.
         -6    2    1    2    0  502  0.64467137605E+02  0.49042903757E+02  0.25856690924E+03  0.32085276902E+03  0.17183839674E+03 0.  0.
        -24    2    5    5    0    0  0.71702302041E+02  0.57531205610E+01  0.90440372301E+02  0.14702821565E+03  0.90903887375E+02 0.  0.
          5    1    3    3  501    0  0.24041315492E+02  0.22934914379E+01 -0.65507180103E+02  0.69975178447E+02  0.47000000000E+01 0. -1.
        -11    1    4    4    0    0 -0.51722155594E+02  0.12042027907E+02  0.16478712458E+02  0.55603415180E+02  0.00000000000E+00 0.  1.
         12    1    4    4    0    0 -0.36786297503E+02 -0.63378423101E+02 -0.95409618092E+01  0.73899162045E+02  0.00000000000E+00 0. -1.
         -5    1    5    5    0  502 -0.72351644360E+01  0.43289783196E+02  0.16812653693E+03  0.17382455337E+03  0.47000000000E+01 0.  1.
         13    1    6    6    0    0 -0.12266109359E+02 -0.40236550224E+01 -0.95750675898E+01  0.16072621376E+02  0.00000000000E+00 0. -1.
        -14    1    6    6    0    0  0.83968411400E+02  0.97767755833E+01  0.10001543989E+03  0.13095559427E+03  0.00000000000E+00 0.  1.
</event>
<event>
12    1  0.8728348E-002  0.1898098E+03  0.7818608E-02  0.1159284E+00
         21   -1    0    0  503  502  0.00000000000E+00  0.00000000000E+00  0.12102804321E+04  0.12102804321E+04  0.00000000000E+00 0.  1.
         21   -1    0    0  501  503 -0.00000000000E+00 -0.00000000000E+00 -0.34878204064E+02  0.34878204064E+02  0.00000000000E+00 0.  1.
          6    2    1    2  501    0  0.55379986175E+02  0.47832841454E+02  0.83244720399E+03  0.85318172743E+03  0.17203426693E+03 0.  0.
         24    2    3    3    0    0  0.71213479126E+02  0.63511116431E+01  0.31480167680E+03  0.33361420032E+03  0.84182199483E+02 0.  0.
         -6    2    1    2    0  502 -0.55379986175E+02 -0.47832841454E+02  0.34295502403E+03  0.39197690872E+03  0.17513658919E+03 0.  0.
        -24    2    5    5    0    0 -0.86020315871E+02  0.72087679889E+01  0.16195852003E+03  0.20027340580E+03  0.80171153039E+02 0.  0.
          5    1    3    3  501    0 -0.15833492952E+02  0.41481729811E+02  0.51764552720E+03  0.51956752712E+03  0.47000000000E+01 0. -1.
        -11    1    4    4    0    0  0.51767578813E+02  0.95264434622E+01  0.30845483850E+03  0.31291376246E+03  0.00000000000E+00 0.  1.
         12    1    4    4    0    0  0.19445900313E+02 -0.31753318192E+01  0.63468382966E+01  0.20700437858E+02  0.00000000000E+00 0. -1.
         -5    1    5    5    0  502  0.30640329696E+02 -0.55041609443E+02  0.18099650400E+03  0.19170350293E+03  0.47000000000E+01 0.  1.
         13    1    6    6    0    0 -0.16109597296E+02  0.38064876719E+02  0.59870800184E+02  0.72752777812E+02  0.00000000000E+00 0. -1.
        -14    1    6    6    0    0 -0.69910718574E+02 -0.30856108730E+02  0.10208771985E+03  0.12752062798E+03  0.00000000000E+00 0.  1.
</event>
<event>
12    1  0.8728348E-002  0.2228417E+03  0.7818608E-02  0.1131851E+00
         21   -1    0    0  501  502  0.00000000000E+00  0.00000000000E+00  0.45124850858E+03  0.45124850858E+03  0.00000000000E+00 0. -1.
         21   -1    0    0  502  503 -0.00000000000E+00 -0.00000000000E+00 -0.16600815208E+03  0.16600815208E+03  0.00000000000E+00 0.  1.
         -6    2    1    2    0  503  0.14104190783E+03 -0.10013517466E+02 -0.36948534658E+02  0.22551170003E+03  0.17174761233E+03 0.  0.
        -24    2    3    3    0    0  0.10393619905E+03 -0.71710065421E+02 -0.33792143993E+02  0.15329431670E+03  0.80076036243E+02 0.  0.
          6    2    1    2  501    0 -0.14104190783E+03  0.10013517466E+02  0.32218889116E+03  0.39174496063E+03  0.17223629785E+03 0.  0.
         24    2    5    5    0    0 -0.10851945369E+03  0.47513603320E+02  0.12220982160E+03  0.18564380895E+03  0.74124010791E+02 0.  0.
          5    1    5    5  501    0 -0.32522454137E+02 -0.37500085854E+02  0.19997906956E+03  0.20610115168E+03  0.47000000000E+01 0. -1.
        -13    1    6    6    0    0 -0.58447431596E+02 -0.14226028504E+02  0.49210992187E+02  0.77718748699E+02  0.00000000000E+00 0.  1.
         14    1    6    6    0    0 -0.50072022096E+02  0.61739631824E+02  0.72998829413E+02  0.10792506025E+03  0.00000000000E+00 0. -1.
         -5    1    3    3    0  503  0.37105708774E+02  0.61696547955E+02 -0.31563906648E+01  0.72217383331E+02  0.47000000000E+01 0.  1.
         11    1    4    4    0    0 -0.66038472469E+01 -0.29188462318E+02 -0.14654587110E+02  0.33321675443E+02  0.00000000000E+00 0. -1.
        -12    1    4    4    0    0  0.11054004630E+03 -0.42521603103E+02 -0.19137556884E+02  0.11997264126E+03  0.00000000000E+00 0.  1.
</event>
<event>
12    1  0.8728348E-002  0.1799256E+03  0.7818608E-02  0.1168492E+00
         21   -1    0    0  503  502  0.00000000000E+00  0.00000000000E+00  0.14478519587E+04  0.14478519587E+04  0.00000000000E+00 0.  1.
         21   -1    0    0  501  503 -0.00000000000E+00 -0.00000000000E+00 -0.29909964067E+02  0.29909964067E+02  0.00000000000E+00 0.  1.
          6    2    1    2  501    0 -0.44422582570E+01 -0.45452436144E+02  0.32642736885E+03  0.37151718998E+03  0.17141918709E+03 0.  0.
         24    2    3    3    0    0 -0.17779316031E+02  0.10354130877E+02  0.76311073111E+02  0.11486080212E+03  0.83344537194E+02 0.  0.
         -6    2    1    2    0  502  0.44422582570E+01  0.45452436144E+02  0.10915146258E+04  0.11062447328E+04  0.17403325233E+03 0.  0.
        -24    2    5    5    0    0  0.17709211401E+02  0.27858330841E+02  0.26160666919E+03  0.27603098260E+03  0.81641602291E+02 0.  0.
          5    1    3    3  501    0  0.13337057774E+02 -0.55806567021E+02  0.25011629574E+03  0.25665638785E+03  0.47000000000E+01 0. -1.
        -11    1    4    4    0    0 -0.37636336533E+02 -0.59677560308E+01  0.80267699273E+02  0.88853877159E+02  0.00000000000E+00 0.  1.
         12    1    4    4    0    0  0.19857020502E+02  0.16321886908E+02 -0.39566261614E+01  0.26006924963E+02  0.00000000000E+00 0. -1.
         -5    1    5    5    0  502 -0.13266953144E+02  0.17594105303E+02  0.82990795665E+03  0.83021375024E+03  0.47000000000E+01 0.  1.
         11    1    6    6    0    0 -0.92779150310E+01 -0.16943692895E+02  0.16496757211E+02  0.25402980824E+02  0.00000000000E+00 0. -1.
        -12    1    6    6    0    0  0.26987126432E+02  0.44802023736E+02  0.24510991198E+03  0.25062800178E+03  0.00000000000E+00 0.  1.
</event>
<event>
12    1  0.8728348E-002  0.1792810E+03  0.7818608E-02  0.1169164E+00
         21   -1    0    0  503  502  0.00000000000E+00  0.00000000000E+00  0.43170711772E+03  0.43170711772E+03  0.00000000000E+00 0. -1.
         21   -1    0    0  501  503 -0.00000000000E+00 -0.00000000000E+00 -0.44953830647E+03  0.44953830647E+03  0.00000000000E+00 0. -1.
          6    2    1    2  501    0  0.44759253415E+02 -0.42819994339E+01 -0.41200896662E+03  0.44932514019E+03  0.17355104939E+03 0.  0.
         24    2    3    3    0    0 -0.43131989154E+02  0.48934934788E+01 -0.23526914123E+03  0.25166857928E+03  0.78110115967E+02 0.  0.
         -6    2    1    2    0  502 -0.44759253415E+02  0.42819994339E+01  0.39417777787E+03  0.43192028401E+03  0.17075504353E+03 0.  0.
        -24    2    5    5    0    0 -0.86047045851E+02  0.83774424776E+01  0.35673908718E+03  0.37583820115E+03  0.80729805377E+02 0.  0.
          5    1    3    3  501    0  0.87891242568E+02 -0.91754929127E+01 -0.17673982539E+03  0.19765656090E+03  0.47000000000E+01 0. -1.
        -11    1    4    4    0    0 -0.10607968336E+02 -0.24322363423E+02 -0.23536302815E+02  0.35469196564E+02  0.00000000000E+00 0.  1.
         12    1    4    4    0    0 -0.32524020817E+02  0.29215856902E+02 -0.21173283841E+03  0.21619938272E+03  0.00000000000E+00 0. -1.
         -5    1    5    5    0  502  0.41287792436E+02 -0.40954430436E+01  0.37438690683E+02  0.56082082861E+02  0.47000000000E+01 0.  1.
         13    1    6    6    0    0 -0.50584761400E+02  0.44066080256E+02  0.18072957086E+03  0.19277918793E+03  0.00000000000E+00 0. -1.
        -14    1    6    6    0    0 -0.35462284450E+02 -0.35688637778E+02  0.17600951632E+03  0.18305901322E+03  0.00000000000E+00 0.  1.
</event>
<event>
12    1  0.8728348E-002  0.1755633E+03  0.7818608E-02  0.1172393E+00
         21   -1    0    0  503  502  0.00000000000E+00  0.00000000000E+00  0.12560257910E+03  0.12560257910E+03  0.00000000000E+00 0. -1.
         21   -1    0    0  501  503 -0.00000000000E+00 -0.00000000000E+00 -0.24576725091E+03  0.24576725091E+03  0.00000000000E+00 0. -1.
          6    2    1    2  501    0  0.22525439714E+02 -0.22142856232E+02 -0.45137968902E+02  0.18127300018E+03  0.17269847377E+03 0.  0.
         24    2    3    3    0    0 -0.38522368888E+02  0.20322629615E+02 -0.48141936914E+02  0.10669910229E+03  0.84676266806E+02 0.  0.
         -6    2    1    2    0  502 -0.22525439714E+02  0.22142856232E+02 -0.75026702912E+02  0.19009682982E+03  0.17178503149E+03 0.  0.
        -24    2    5    5    0    0  0.47059140647E+01 -0.42118428456E+02 -0.39664642049E+01  0.90383706999E+02  0.79733142481E+02 0.  0.
          5    1    3    3  501    0  0.61047808602E+02 -0.42465485847E+02  0.30039680121E+01  0.74573897894E+02  0.47000000000E+01 0. -1.
        -11    1    4    4    0    0 -0.29806446379E+02  0.24579118630E+02  0.16008854747E+02  0.41819143328E+02  0.00000000000E+00 0.  1.
         12    1    4    4    0    0 -0.87159225084E+01 -0.42564890148E+01 -0.64150791661E+02  0.64879958960E+02  0.00000000000E+00 0. -1.
         -5    1    5    5    0  502 -0.27231353779E+02  0.64261284688E+02 -0.71060238707E+02  0.99713122825E+02  0.47000000000E+01 0.  1.
         13    1    6    6    0    0 -0.20398667312E+02  0.16314477505E+02 -0.58134533729E+01  0.26759373021E+02  0.00000000000E+00 0. -1.
        -14    1    6    6    0    0  0.25104581377E+02 -0.58432905961E+02  0.18469891680E+01  0.63624333978E+02  0.00000000000E+00 0.  1.
</event>
<event>
12    1  0.8728348E-002  0.1874912E+03  0.7818608E-02  0.1162156E+00
         21   -1    0    0  501  502  0.00000000000E+00  0.00000000000E+00  0.40430009568E+03  0.40430009568E+03  0.00000000000E+00 0. -1.
         21   -1    0    0  502  503 -0.00000000000E+00 -0.00000000000E+00 -0.10521597414E+03  0.10521597414E+03  0.00000000000E+00 0. -1.
         -6    2    1    2    0  503 -0.47297089125E+02  0.47096106962E+02  0.37565907306E+02  0.19121753739E+03  0.17520813703E+03 0.  0.
        -24    2    3    3    0    0 -0.91838260919E+02  0.26665447285E+02  0.57597774383E+02  0.13806969135E+03  0.81242992367E+02 0.  0.
          6    2    1    2  501    0  0.47297089125E+02 -0.47096106962E+02  0.26151821424E+03  0.31829853243E+03  0.16872202417E+03 0.  0.
         24    2    5    5    0    0 -0.33713472729E+02 -0.50601159485E+02  0.12991801420E+03  0.16365151767E+03  0.78778507454E+02 0.  0.
          5    1    5    5  501    0  0.81010561854E+02  0.35050525236E+01  0.13160020004E+03  0.15464701477E+03  0.47000000000E+01 0. -1.
        -11    1    6    6    0    0 -0.46945850262E+02 -0.22178215749E+02  0.12002778689E+03  0.13077635771E+03  0.00000000000E+00 0.  1.
         12    1    6    6    0    0  0.13232377533E+02 -0.28422943737E+02  0.98902273076E+01  0.32875159954E+02  0.00000000000E+00 0. -1.
         -5    1    3    3    0  503  0.44541171794E+02  0.20430659677E+02 -0.20031867077E+02  0.53147846036E+02  0.47000000000E+01 0.  1.
         11    1    4    4    0    0 -0.65808324082E+02 -0.11991270232E+02  0.62067942528E+02  0.91252153783E+02  0.00000000000E+00 0. -1.
        -12    1    4    4    0    0 -0.26029936837E+02  0.38656717516E+02 -0.44701681447E+01  0.46817537570E+02  0.00000000000E+00 0.  1.
</event>
<event>
12    1  0.8728348E-002  0.1743144E+03  0.7818608E-02  0.1173468E+00
         21   -1    0    0  503  502  0.00000000000E+00  0.00000000000E+00  0.33371680957E+03  0.33371680957E+03  0.00000000000E+00 0.  1.
         21   -1    0    0  501  503 -0.00000000000E+00 -0.00000000000E+00 -0.15027245047E+03  0.15027245047E+03  0.00000000000E+00 0.  1.
          6    2    1    2  501    0  0.23472020111E+02  0.16565111432E+02 -0.60343924195E+02  0.18429234258E+03  0.17174673127E+03 0.  0.
         24    2    3    3    0    0  0.27725489388E-01  0.52348464698E+02 -0.85797787323E+02  0.13429161789E+03  0.89065233403E+02 0.  0.
         -6    2    1    2    0  502 -0.23472020111E+02 -0.16565111432E+02  0.24378828329E+03  0.29969691747E+03  0.17193073205E+03 0.  0.
        -24    2    5    5    0    0  0.82054711080E+01  0.42991795151E+02  0.19723046405E+03  0.21759814096E+03  0.80829887989E+02 0.  0.
          5    1    3    3  501    0  0.23444294622E+02 -0.35783353266E+02  0.25453863129E+02  0.50000724689E+02  0.47000000000E+01 0. -1.
        -13    1    4    4    0    0  0.38171631906E+02  0.45263900428E+02 -0.71758689183E+02  0.93033346911E+02  0.00000000000E+00 0.  1.
         14    1    4    4    0    0 -0.38143906416E+02  0.70845642703E+01 -0.14039098140E+02  0.41258270979E+02  0.00000000000E+00 0. -1.
         -5    1    5    5    0  502 -0.31677491219E+02 -0.59556906583E+02  0.46557819241E+02  0.82098776508E+02  0.47000000000E+01 0.  1.
         13    1    6    6    0    0 -0.14913249632E+02  0.44867708295E+02  0.51021651813E+02  0.69560946054E+02  0.00000000000E+00 0. -1.
        -14    1    6    6    0    0  0.23118720740E+02 -0.18759131444E+01  0.14620881224E+03  0.14803719491E+03  0.00000000000E+00 0.  1.
</event>
<event>
12    1  0.8728348E-002  0.2063953E+03  0.7818608E-02  0.1144467E+00
         21   -1    0    0  503  502  0.00000000000E+00  0.00000000000E+00  0.23476743307E+03  0.23476743307E+03  0.00000000000E+00 0. -1.
         21   -1    0    0  501  503 -0.00000000000E+00 -0.00000000000E+00 -0.26822158935E+03  0.26822158935E+03  0.00000000000E+00 0. -1.
          6    2    1    2  501    0 -0.11331418292E+03 -0.10442614870E+02 -0.15982129433E+03  0.26103998218E+03  0.17219138746E+03 0.  0.
         24    2    3    3    0    0 -0.98297147935E+02 -0.55671854548E+02 -0.10866498753E+03  0.19096678340E+03  0.10908046647E+03 0.  0.
         -6    2    1    2    0  502  0.11331418292E+03  0.10442614870E+02  0.12636713805E+03  0.24194904024E+03  0.17210907076E+03 0.  0.
        -24    2    5    5    0    0  0.85294948236E+02 -0.53229395894E+02  0.47428115883E+02  0.13662733456E+03  0.79429248965E+02 0.  0.
          5    1    3    3  501    0 -0.15017034985E+02  0.45229239678E+02 -0.51156306803E+02  0.70073198780E+02  0.47000000000E+01 0. -1.
        -11    1    4    4    0    0 -0.66296179514E+02  0.50883533746E+01 -0.50786069256E+01  0.66684833407E+02  0.00000000000E+00 0.  1.
         12    1    4    4    0    0 -0.32000968421E+02 -0.60760207923E+02 -0.10358638060E+03  0.12428194999E+03  0.00000000000E+00 0. -1.
         -5    1    5    5    0  502  0.28019234683E+02  0.63672010764E+02  0.78939022165E+02  0.10532170568E+03  0.47000000000E+01 0.  1.
         11    1    6    6    0    0  0.73964691378E+02 -0.26829279028E+02  0.65764694787E+02  0.10254550631E+03  0.00000000000E+00 0. -1.
        -12    1    6    6    0    0  0.11330256858E+02 -0.26400116866E+02 -0.18336578905E+02  0.34081828251E+02  0.00000000000E+00 0.  1.
</event>
<event>
12    1  0.8728348E-002  0.2091331E+03  0.7818608E-02  0.1142457E+00
         21   -1    0    0  503  502  0.00000000000E+00  0.00000000000E+00  0.42129767857E+03  0.42129767857E+03  0.00000000000E+00 0. -1.
         21   -1    0    0  501  503 -0.00000000000E+00 -0.00000000000E+00 -0.10331110180E+03  0.10331110180E+03  0.00000000000E+00 0. -1.
          6    2    1    2  501    0  0.11655655431E+03  0.79094035838E+01  0.15935703989E+03  0.26292834167E+03  0.17346082460E+03 0.  0.
         24    2    3    3    0    0  0.10943092579E+03  0.44035750094E+02  0.54237755865E+02  0.15144721605E+03  0.77975959653E+02 0.  0.
         -6    2    1    2    0  502 -0.11655655431E+03 -0.79094035838E+01  0.15862953688E+03  0.26168043871E+03  0.17223627091E+03 0.  0.
        -24    2    5    5    0    0 -0.81275483087E+02 -0.42856629460E+02  0.59158871481E+02  0.15040346060E+03  0.10333941187E+03 0.  0.
          5    1    3    3  501    0  0.71256285192E+01 -0.36126346510E+02  0.10511928402E+03  0.11148112561E+03  0.47000000000E+01 0. -1.
        -13    1    4    4    0    0  0.75724488727E-01  0.31134582633E+02  0.14916552960E+02  0.34523492322E+02  0.00000000000E+00 0.  1.
         14    1    4    4    0    0  0.10935520130E+03  0.12901167461E+02  0.39321202905E+02  0.11692372373E+03  0.00000000000E+00 0. -1.
         -5    1    5    5    0  502 -0.35281071222E+02  0.34947225876E+02  0.99470665398E+02  0.11127697811E+03  0.47000000000E+01 0.  1.
         13    1    6    6    0    0 -0.50185581635E+02 -0.29447929010E+02  0.88288856744E+02  0.10573880722E+03  0.00000000000E+00 0. -1.
        -14    1    6    6    0    0 -0.31089901452E+02 -0.13408700450E+02 -0.29129985263E+02  0.44664653379E+02  0.00000000000E+00 0.  1.
</event>
<event>
12    1  0.8728348E-002  0.2902821E+03  0.7818608E-02  0.1090224E+00
         21   -1    0    0  503  502  0.00000000000E+00  0.00000000000E+00  0.34322072664E+03  0.34322072664E+03  0.00000000000E+00 0.  1.
         21   -1    0    0  501  503 -0.00000000000E+00 -0.00000000000E+00 -0.42018821720E+03  0.42018821720E+03  0.00000000000E+00 0. -1.
          6    2    1    2  501    0 -0.98832298043E+01 -0.23286919905E+03 -0.28468553020E+03  0.40646290526E+03  0.17274403073E+03 0.  0.
         24    2    3    3    0    0  0.35334621780E+02 -0.84280187710E+02 -0.18553212811E+03  0.22213484029E+03  0.81055728802E+02 0.  0.
         -6    2    1    2    0  502  0.98832298043E+01  0.23286919905E+03  0.20771803963E+03  0.35694603858E+03  0.17302586041E+03 0.  0.
        -24    2    5    5    0    0  0.27869664056E+02  0.36937527664E+02  0.48818681201E+02  0.10399579094E+03  0.79314322635E+02 0.  0.
          5    1    3    3  501    0 -0.45217851584E+02 -0.14858901134E+03 -0.99153402091E+02  0.18432806498E+03  0.47000000000E+01 0. -1.
        -13    1    4    4    0    0 -0.18541058243E+01 -0.49052544760E+02 -0.28062263934E+02  0.56542731742E+02  0.00000000000E+00 0.  1.
         14    1    4    4    0    0  0.37188727604E+02 -0.35227642950E+02 -0.15746986417E+03  0.16559210854E+03  0.00000000000E+00 0. -1.
         -5    1    5    5    0  502 -0.17986434252E+02  0.19593167138E+03  0.15889935843E+03  0.25295024763E+03  0.47000000000E+01 0.  1.
         11    1    6    6    0    0 -0.10159679480E+02  0.48815485703E+01  0.52903428576E+02  0.54090862062E+02  0.00000000000E+00 0. -1.
        -12    1    6    6    0    0  0.38029343536E+02  0.32055979093E+02 -0.40847473748E+01  0.49904928880E+02  0.00000000000E+00 0.  1.
</event>
<event>
12    1  0.8728348E-002  0.1906183E+03  0.7818608E-02  0.1158650E+00
         21   -1    0    0  501  502  0.00000000000E+00  0.00000000000E+00  0.16055379139E+04  0.16055379139E+04  0.00000000000E+00 0.  1.
         21   -1    0    0  502  503 -0.00000000000E+00 -0.00000000000E+00 -0.26439396257E+02  0.26439396257E+02  0.00000000000E+00 0.  1.
         -6    2    1    2    0  503  0.45238286227E+02  0.64934599895E+02  0.47024017378E+03  0.50740628765E+03  0.17341371028E+03 0.  0.
        -24    2    3    3    0    0 -0.12082357707E+02  0.92120118946E+02  0.24360499293E+03  0.27201235429E+03  0.77557904968E+02 0.  0.
          6    2    1    2  501    0 -0.45238286227E+02 -0.64934599895E+02  0.11088583439E+04  0.11245710225E+04  0.16979444364E+03 0.  0.
         24    2    5    5    0    0 -0.37857033333E+02 -0.50466541194E+02  0.33865127259E+03  0.35417837569E+03  0.82326245078E+02 0.  0.
          5    1    5    5  501    0 -0.73812528944E+01 -0.14468058700E+02  0.77020707132E+03  0.77039264685E+03  0.47000000000E+01 0. -1.
        -11    1    6    6    0    0 -0.25826338046E+02 -0.41076419537E+02  0.33498759892E+03  0.33848332811E+03  0.00000000000E+00 0.  1.
         12    1    6    6    0    0 -0.12030695287E+02 -0.93901216571E+01  0.36636736689E+01  0.15695047581E+02  0.00000000000E+00 0. -1.
         -5    1    3    3    0  503  0.57320643934E+02 -0.27185519052E+02  0.22663518085E+03  0.23539393336E+03  0.47000000000E+01 0.  1.
         13    1    4    4    0    0 -0.20735467234E+02  0.78728038029E+02  0.24275749894E+03  0.25604543906E+03  0.00000000000E+00 0. -1.
        -14    1    4    4    0    0  0.86531095266E+01  0.13392080917E+02  0.84749398984E+00  0.15966915226E+02  0.00000000000E+00 0.  1.
</event>
<event>
12    1  0.8728348E-002  0.1873096E+03  0.7818608E-02  0.1160941E+00
         21   -1    0    0  503  502  0.00000000000E+00  0.00000000000E+00  0.10241723210E+04  0.10241723210E+04  0.00000000000E+00 0. -1.
         21   -1    0    0  501  503 -0.00000000000E+00 -0.00000000000E+00 -0.77297100076E+02  0.77297100076E+02  0.00000000000E+00 0. -1.
          6    2    1    2  501    0  0.59532608348E+02 -0.40406030992E+02  0.62287389375E+02  0.19726782279E+03  0.17279495432E+03 0.  0.
         24    2    3    3    0    0  0.99205003786E+02 -0.40852975779E+02  0.13437405254E+02  0.13416069429E+03  0.79422475573E+02 0.  0.
         -6    2    1    2    0  502 -0.59532608348E+02  0.40406030992E+02  0.88458783156E+03  0.90420159829E+03  0.17293964211E+03 0.  0.
        -24    2    5    5    0    0 -0.90653226283E+02  0.23154931251E+02  0.82958822918E+03  0.83852710122E+03  0.78465987673E+02 0.  0.
          5    1    3    3  501    0 -0.39672395438E+02  0.44694478693E+00  0.48849984121E+02  0.63107128504E+02  0.47000000000E+01 0. -1.
        -11    1    4    4    0    0  0.74710886801E+02 -0.12370595225E+02  0.42341817053E+02  0.86761614232E+02  0.00000000000E+00 0.  1.
         12    1    4    4    0    0  0.24494116984E+02 -0.28482380554E+02 -0.28904411798E+02  0.47399080057E+02  0.00000000000E+00 0. -1.
         -5    1    5    5    0  502  0.31120617935E+02  0.17251099741E+02  0.54999602383E+02  0.65674497069E+02  0.47000000000E+01 0.  1.
         11    1    6    6    0    0 -0.52563332237E+02  0.82925980175E+00  0.69276830713E+03  0.69476004413E+03  0.00000000000E+00 0. -1.
        -12    1    6    6    0    0 -0.38089894047E+02  0.22325671449E+02  0.13681992205E+03  0.14376705709E+03  0.00000000000E+00 0.  1.
</event>
<event>
12    1  0.8728348E-002  0.1878375E+03  0.7818608E-02  0.1161231E+00
         21   -1    0    0  501  502  0.00000000000E+00  0.00000000000E+00  0.15726306189E+04  0.15726306189E+04  0.00000000000E+00 0.  1.
         21   -1    0    0  502  503 -0.00000000000E+00 -0.00000000000E+00 -0.22943334538E+02  0.22943334538E+02  0.00000000000E+00 0.  1.
         -6    2    1    2    0  503  0.36596420325E+02 -0.54214854302E+02  0.94170448191E+03  0.96025531591E+03  0.17608064083E+03 0.  0.
        -24    2    3    3    0    0 -0.29594300450E+02 -0.41190803718E+02  0.77748226738E+03  0.78265502549E+03  0.74146530004E+02 0.  0.
          6    2    1    2  501    0 -0.36596420325E+02  0.54214854302E+02  0.60798280241E+03  0.63531863748E+03  0.17236047895E+03 0.  0.
         24    2    5    5    0    0 -0.70280781375E+02  0.44959576102E+02  0.57776649097E+03  0.58889222441E+03  0.77583388488E+02 0.  0.
          5    1    5    5  501    0  0.33684361050E+02  0.92552781999E+01  0.30216311435E+02  0.46426413071E+02  0.47000000000E+01 0. -1.
        -11    1    6    6    0    0 -0.74258965310E+01 -0.13491185611E+02  0.24017783557E+02  0.28530859705E+02  0.00000000000E+00 0.  1.
         12    1    6    6    0    0 -0.62854884844E+02  0.58450761713E+02  0.55374870742E+03  0.56036136471E+03  0.00000000000E+00 0. -1.
         -5    1    3    3    0  503  0.66190720775E+02 -0.13024050584E+02  0.16422221454E+03  0.17760029042E+03  0.47000000000E+01 0.  1.
         11    1    4    4    0    0  0.15233929208E+02 -0.26404272059E+02  0.13310412006E+03  0.13655022870E+03  0.00000000000E+00 0. -1.
        -12    1    4    4    0    0 -0.44828229658E+02 -0.14786531659E+02  0.64437814732E+03  0.64610479679E+03  0.00000000000E+00 0.  1.
</event>
<event>
12    1  0.8728348E-002  0.2167947E+03  0.7818608E-02  0.1136403E+00
         21   -1    0    0  501  502  0.00000000000E+00  0.00000000000E+00  0.34547655464E+03  0.34547655464E+03  0.00000000000E+00 0.  1.
         21   -1    0    0  502  503 -0.00000000000E+00 -0.00000000000E+00 -0.15460068024E+03  0.15460068024E+03  0.00000000000E+00 0. -1.
         -6    2    1    2    0  503 -0.97706144969E+02  0.89564045015E+02  0.80994159158E+01  0.21694593065E+03  0.17155677592E+03 0.  0.
        -24    2    3    3    0    0 -0.79301450694E+02  0.38167103948E+02  0.66995985060E+02  0.13650170041E+03  0.79992526487E+02 0.  0.
          6    2    1    2  501    0  0.97706144969E+02 -0.89564045015E+02  0.18277645848E+03  0.28313130423E+03  0.17084464503E+03 0.  0.
         24    2    5    5    0    0  0.81100818559E+02 -0.54846880257E+02  0.20281939024E+03  0.23948697462E+03  0.81441898992E+02 0.  0.
          5    1    5    5  501    0  0.16605326410E+02 -0.34717164758E+02 -0.20042931753E+02  0.43644329612E+02  0.47000000000E+01 0. -1.
        -13    1    6    6    0    0  0.16548895473E+02 -0.51474365761E+02  0.50354310503E+02  0.73885268208E+02  0.00000000000E+00 0.  1.
         14    1    6    6    0    0  0.64551923086E+02 -0.33725144957E+01  0.15246507973E+03  0.16560170641E+03  0.00000000000E+00 0. -1.
         -5    1    3    3    0  503 -0.18404694275E+02  0.51396941067E+02 -0.58896569144E+02  0.80444230243E+02  0.47000000000E+01 0.  1.
         11    1    4    4    0    0 -0.77662874106E+02  0.38974827816E+02  0.19608367278E+02  0.89078882374E+02  0.00000000000E+00 0. -1.
        -12    1    4    4    0    0 -0.16385765878E+01 -0.80772386772E+00  0.47387617782E+02  0.47422818033E+02  0.00000000000E+00 0.  1.
</event>
<event>
12    1  0.8728348E-002  0.2293380E+03  0.7818608E-02  0.1127585E+00
         21   -1    0    0  501  502  0.00000000000E+00  0.00000000000E+00  0.28462094680E+03  0.28462094680E+03  0.00000000000E+00 0. -1.
         21   -1    0    0  502  503 -0.00000000000E+00 -0.00000000000E+00 -0.34539463172E+03  0.34539463172E+03  0.00000000000E+00 0. -1.
         -6    2    1    2    0  503  0.10743296996E+03 -0.10079128333E+03 -0.24672477960E+03  0.33685165329E+03  0.17577028654E+03 0.  0.
        -24    2    3    3    0    0  0.12575319146E+03 -0.68543916281E+02 -0.24739832105E+03  0.29946092108E+03  0.89211996813E+02 0.  0.
          6    2    1    2  501    0 -0.10743296996E+03  0.10079128333E+03  0.18595109467E+03  0.29316392523E+03  0.17223980845E+03 0.  0.
         24    2    5    5    0    0 -0.92748105977E+02  0.58140525616E+02  0.42307876796E+02  0.14253127138E+03  0.80886803626E+02 0.  0.
          5    1    5    5  501    0 -0.14684863983E+02  0.42650757713E+02  0.14364321787E+03  0.15063265385E+03  0.47000000000E+01 0. -1.
        -13    1    6    6    0    0 -0.59423676481E+02  0.76679203378E+02  0.37872225949E+02  0.10414018944E+03  0.00000000000E+00 0.  1.
         14    1    6    6    0    0 -0.33324429496E+02 -0.18538677762E+02  0.44356508469E+01  0.38391081944E+02  0.00000000000E+00 0. -1.
         -5    1    3    3    0  503 -0.18320221501E+02 -0.32247367048E+02  0.67354144902E+00  0.37390732213E+02  0.47000000000E+01 0.  1.
         11    1    4    4    0    0  0.72272176397E+02 -0.59035817479E+02 -0.21924498802E+03  0.23827895416E+03  0.00000000000E+00 0. -1.
        -12    1    4    4    0    0  0.53481015065E+02 -0.95080988023E+01 -0.28153333032E+02  0.61181966918E+02  0.00000000000E+00 0.  1.
</event>
<event>
12    1  0.8728348E-002  0.2645685E+03  0.7818608E-02  0.1105599E+00
         21   -1    0    0  503  502  0.00000000000E+00  0.00000000000E+00  0.10091959735E+03  0.10091959735E+03  0.00000000000E+00 0.  1.
         21   -1    0    0  501  503 -0.00000000000E+00 -0.00000000000E+00 -0.12142035828E+04  0.12142035828E+04  0.00000000000E+00 0. -1.
          6    2    1    2  501    0  0.19113162417E+03  0.86350592152E+00 -0.99090224296E+03  0.10236205616E+04  0.17140523821E+03 0.  0.
         24    2    3    3    0    0  0.71423655042E+02 -0.30067066199E+02 -0.68523753001E+03  0.69386352242E+03  0.76751210039E+02 0.  0.
         -6    2    1    2    0  502 -0.19113162417E+03 -0.86350592152E+00 -0.12238174250E+03  0.29150261853E+03  0.18293289019E+03 0.  0.
        -24    2    5    5    0    0 -0.10459417052E+03 -0.72284976756E+02 -0.50878998743E+02  0.15836926529E+03  0.79543028002E+02 0.  0.
          5    1    3    3  501    0  0.11970796913E+03  0.30930572120E+02 -0.30566471296E+03  0.32975703921E+03  0.47000000000E+01 0. -1.
        -11    1    4    4    0    0 -0.16410269729E+02 -0.66872069725E+00 -0.98294648358E+02  0.99657323041E+02  0.00000000000E+00 0.  1.
         12    1    4    4    0    0  0.87833924771E+02 -0.29398345501E+02 -0.58694288165E+03  0.59420619937E+03  0.00000000000E+00 0. -1.
         -5    1    5    5    0  502 -0.86537453652E+02  0.71421470835E+02 -0.71502743761E+02  0.13313335324E+03  0.47000000000E+01 0.  1.
         13    1    6    6    0    0  0.54166887255E+01 -0.17388472859E+02 -0.27861404103E+02  0.33285993206E+02  0.00000000000E+00 0. -1.
        -14    1    6    6    0    0 -0.11001085924E+03 -0.54896503897E+02 -0.23017594640E+02  0.12508327208E+03  0.00000000000E+00 0.  1.
</event>
<event>
12    1  0.8728348E-002  0.1996096E+03  0.7818608E-02  0.1150202E+00
         21   -1    0    0  501  502  0.00000000000E+00  0.00000000000E+00  0.57390575682E+02  0.57390575682E+02  0.00000000000E+00 0. -1.
         21   -1    0    0  502  503 -0.00000000000E+00 -0.00000000000E+00 -0.12050450641E+04  0.12050450641E+04  0.00000000000E+00 0. -1.
         -6    2    1    2    0  503  0.70927012191E+02 -0.71439953072E+02 -0.98514282696E+03  0.10050370321E+04  0.17163548148E+03 0.  0.
        -24    2    3    3    0    0 -0.27090791787E+02 -0.51118046603E+02 -0.52262986280E+03  0.53179206197E+03  0.79459788502E+02 0.  0.
          6    2    1    2  501    0 -0.70927012191E+02  0.71439953072E+02 -0.16251166148E+03  0.25739860767E+03  0.17236500561E+03 0.  0.
         24    2    5    5    0    0 -0.68765301728E+02  0.18647575265E+01 -0.33093186492E+02  0.11037271711E+03  0.79717210479E+02 0.  0.
          5    1    5    5  501    0 -0.21617104626E+01  0.69575195545E+02 -0.12941847499E+03  0.14702589056E+03  0.47000000000E+01 0. -1.
        -13    1    6    6    0    0 -0.21272028372E+02 -0.17635539088E+02 -0.49316352958E+02  0.56529762949E+02  0.00000000000E+00 0.  1.
         14    1    6    6    0    0 -0.47493273356E+02  0.19500296614E+02  0.16223166466E+02  0.53842954157E+02  0.00000000000E+00 0. -1.
         -5    1    3    3    0  503  0.98017803978E+02 -0.20321906469E+02 -0.46251296416E+03  0.47324497017E+03  0.47000000000E+01 0.  1.
         11    1    4    4    0    0  0.78091705678E+00 -0.65763932067E+02 -0.38757722082E+03  0.39311780256E+03  0.00000000000E+00 0. -1.
        -12    1    4    4    0    0 -0.27871708844E+02  0.14645885464E+02 -0.13505264199E+03  0.13867425941E+03  0.00000000000E+00 0.  1.
</event>
<event>
12    1  0.8728348E-002  0.1781037E+03  0.7818608E-02  0.1170256E+00
         21   -1    0    0  503  502  0.00000000000E+00  0.00000000000E+00  0.15765047670E+04  0.15765047670E+04  0.00000000000E+00 0. -1.
         21   -1    0    0  501  503 -0.00000000000E+00 -0.00000000000E+00 -0.62734035141E+02  0.62734035141E+02  0.00000000000E+00 0. -1.
          6    2    1    2  501    0 -0.17866337420E+02  0.35150028471E+02  0.77543244229E+02  0.19201030434E+03  0.17117322143E+03 0.  0.
         24    2    3    3    0    0  0.14529290860E+02 -0.22509325351E+02  0.90340631591E+02  0.12448296960E+03  0.81343776544E+02 0.  0.
         -6    2    1    2    0  502  0.17866337420E+02 -0.35150028471E+02  0.14362274876E+04  0.14472284978E+04  0.17368419071E+03 0.  0.
        -24    2    5    5    0    0  0.24175876754E+02 -0.69222233293E+02  0.13474052740E+04  0.13517706481E+04  0.80042002544E+02 0.  0.
          5    1    3    3  501    0 -0.32395628280E+02  0.57659353822E+02 -0.12797387362E+02  0.67527334747E+02  0.47000000000E+01 0. -1.
        -11    1    4    4    0    0 -0.12947760679E+02 -0.11054248749E+01  0.88665710041E+02  0.89612915407E+02  0.00000000000E+00 0.  1.
         12    1    4    4    0    0  0.27477051539E+02 -0.21403900476E+02  0.16749215505E+01  0.34870054188E+02  0.00000000000E+00 0. -1.
         -5    1    5    5    0  502 -0.63095393346E+01  0.34072204822E+02  0.88822213682E+02  0.95457849711E+02  0.47000000000E+01 0.  1.
         11    1    6    6    0    0 -0.12280509977E+02 -0.46622405501E+02  0.33440114066E+03  0.33785882036E+03  0.00000000000E+00 0. -1.
        -12    1    6    6    0    0  0.36456386732E+02 -0.22599827792E+02  0.10130041333E+04  0.10139118277E+04  0.00000000000E+00 0.  1.
</event>
<event>
12    1  0.8728348E-002  0.2163478E+03  0.7818608E-02  0.1136876E+00
         21   -1    0    0  503  502  0.00000000000E+00  0.00000000000E+00  0.67570687162E+02  0.67570687162E+02  0.00000000000E+00 0.  1.
         21   -1    0    0  501  503 -0.00000000000E+00 -0.00000000000E+00 -0.72324750512E+03  0.72324750512E+03  0.00000000000E+00 0.  1.
          6    2    1    2  501    0  0.22594470771E+02  0.12808700229E+03 -0.24230821698E+03  0.32483789597E+03  0.17288607918E+03 0.  0.
         24    2    3    3    0    0  0.56123363671E+02  0.23989817876E+02 -0.81322883987E+02  0.13016181140E+03  0.81260952344E+02 0.  0.
         -6    2    1    2    0  502 -0.22594470771E+02 -0.12808700229E+03 -0.41336860098E+03  0.46598029632E+03  0.17131037919E+03 0.  0.
        -24    2    5    5    0    0 -0.46594914597E+02 -0.49917674662E+02 -0.11594201180E+03  0.15748210988E+03  0.81824229431E+02 0.  0.
          5    1    3    3  501    0 -0.33528892900E+02  0.10409718441E+03 -0.16098533299E+03  0.19467608456E+03  0.47000000000E+01 0. -1.
        -13    1    4    4    0    0  0.54687207158E+02  0.47035603115E+02 -0.39125644428E+02  0.82060067262E+02  0.00000000000E+00 0.  1.
         14    1    4    4    0    0  0.14361565126E+01 -0.23045785239E+02 -0.42197239559E+02  0.48101744139E+02  0.00000000000E+00 0. -1.
         -5    1    5    5    0  502  0.24000443826E+02 -0.78169327629E+02 -0.29742658918E+03  0.30849818644E+03  0.47000000000E+01 0.  1.
         13    1    6    6    0    0  0.19312833940E+02 -0.20769589441E+02 -0.11531294316E+02  0.30615880666E+02  0.00000000000E+00 0. -1.
        -14    1    6    6    0    0 -0.65907748537E+02 -0.29148085221E+02 -0.10441071748E+03  0.12686622921E+03  0.00000000000E+00 0.  1.
</event>
<event>
12    1  0.8728348E-002  0.1925974E+03  0.7818608E-02  0.1156255E+00
         21   -1    0    0  503  502  0.00000000000E+00  0.00000000000E+00  0.98503589019E+03  0.98503589019E+03  0.00000000000E+00 0. -1.
         21   -1    0    0  501  503 -0.00000000000E+00 -0.00000000000E+00 -0.47670213000E+02  0.47670213000E+02  0.00000000000E+00 0. -1.
          6    2    1    2  501    0 -0.49134476915E+02  0.70040901958E+02  0.23133450328E+03  0.30101395693E+03  0.17255093478E+03 0.  0.
         24    2    3    3    0    0 -0.73884494567E+02  0.76587070758E+02  0.23883338819E+03  0.27392634031E+03  0.81668565887E+02 0.  0.
         -6    2    1    2    0  502  0.49134476915E+02 -0.70040901958E+02  0.70603117392E+03  0.73169214626E+03  0.17196933909E+03 0.  0.
        -24    2    5    5    0    0  0.21823334097E+02  0.19614583519E+02  0.21065579608E+03  0.22750680378E+03  0.80761943693E+02 0.  0.
          5    1    3    3  501    0  0.24750017652E+02 -0.65461688004E+01 -0.74988849132E+01  0.27087616629E+02  0.47000000000E+01 0. -1.
        -11    1    4    4    0    0 -0.12351135935E+02  0.38398792279E+02  0.16744785803E+03  0.17223763516E+03  0.00000000000E+00 0.  1.
         12    1    4    4    0    0 -0.61533358632E+02  0.38188278479E+02  0.71385530164E+02  0.10168870515E+03  0.00000000000E+00 0. -1.
         -5    1    5    5    0  502  0.27311142818E+02 -0.89655485476E+02  0.49537537784E+03  0.50418534248E+03  0.47000000000E+01 0.  1.
         13    1    6    6    0    0  0.46687841393E+02 -0.90057978600E+01  0.12883194388E+03  0.13732635833E+03  0.00000000000E+00 0. -1.
        -14    1    6    6    0    0 -0.24864507296E+02  0.28620381379E+02  0.81823852202E+02  0.90180445455E+02  0.00000000000E+00 0.  1.
</event>
<event>
12    1  0.8728348E-002  0.1783220E+03  0.7818608E-02  0.1170029E+00
         21   -1    0    0  501  502  0.00000000000E+00  0.00000000000E+00  0.68480821682E+02  0.68480821682E+02  0.00000000000E+00 0. -1.
         21   -1    0    0  502  503 -0.00000000000E+00 -0.00000000000E+00 -0.16275460941E+04  0.16275460941E+04  0.00000000000E+00 0. -1.
         -6    2    1    2    0  503 -0.28624364707E+02 -0.25650312448E+02 -0.14998375613E+04  0.15104010910E+04  0.17413056211E+03 0.  0.
        -24    2    3    3    0    0 -0.13867501599E+02 -0.21413991726E+02 -0.32892983456E+03  0.33938328330E+03  0.79594662398E+02 0.  0.
          6    2    1    2  501    0  0.28624364707E+02  0.25650312448E+02 -0.59227711126E+02  0.18562582478E+03  0.17167333012E+03 0.  0.
         24    2    5    5    0    0  0.55811723639E+01  0.70836431393E+02 -0.75379445586E+02  0.13218667635E+03  0.82111552720E+02 0.  0.
          5    1    5    5  501    0  0.23043192343E+02 -0.45186118945E+02  0.16151734460E+02  0.53439148428E+02  0.47000000000E+01 0. -1.
        -13    1    6    6    0    0 -0.76658128614E+01 -0.91874651503E+01 -0.43363169830E+02  0.44983760408E+02  0.00000000000E+00 0.  1.
         14    1    6    6    0    0  0.13246985225E+02  0.80023896543E+02 -0.32016275756E+02  0.87202915942E+02  0.00000000000E+00 0. -1.
         -5    1    3    3    0  503 -0.14756863108E+02 -0.42363207225E+01 -0.11709077268E+04  0.11710178077E+04  0.47000000000E+01 0.  1.
         11    1    4    4    0    0 -0.36801263266E+02 -0.18545549464E+02 -0.29765910309E+03  0.30049827293E+03  0.00000000000E+00 0. -1.
        -12    1    4    4    0    0  0.22933761667E+02 -0.28684422618E+01 -0.31270731471E+02  0.38885010376E+02  0.00000000000E+00 0.  1.
</event>
<event>
12    1  0.8728348E-002  0.2364115E+03  0.7818608E-02  0.1122649E+00
         21   -1    0    0  501  502  0.00000000000E+00  0.00000000000E+00  0.58555574741E+03  0.58555574741E+03  0.00000000000E+00 0.  1.
         21   -1    0    0  502  503 -0.00000000000E+00 -0.00000000000E+00 -0.94521119445E+02  0.94521119445E+02  0.00000000000E+00 0. -1.
         -6    2    1    2    0  503 -0.27005343601E+02 -0.15801535080E+03  0.25608253425E+03  0.34677090828E+03  0.17021650570E+03 0.  0.
        -24    2    3    3    0    0 -0.43440266747E+01 -0.11274779490E+03  0.66217046891E+02  0.15021638609E+03  0.73819574169E+02 0.  0.
          6    2    1    2  501    0  0.27005343601E+02  0.15801535080E+03  0.23495209372E+03  0.33330595857E+03  0.17375913215E+03 0.  0.
         24    2    5    5    0    0  0.84753360028E+02  0.12191656936E+03  0.17321882598E+03  0.24126769605E+03  0.78476477774E+02 0.  0.
          5    1    5    5  501    0 -0.57748016426E+02  0.36098781446E+02  0.61733267737E+02  0.92038262524E+02  0.47000000000E+01 0. -1.
        -11    1    6    6    0    0  0.69693135997E+00  0.43048067022E+02  0.87850315157E+02  0.97833019277E+02  0.00000000000E+00 0.  1.
         12    1    6    6    0    0  0.84056428668E+02  0.78868502334E+02  0.85368510821E+02  0.14343467677E+03  0.00000000000E+00 0. -1.
         -5    1    3    3    0  503 -0.22661316927E+02 -0.45267555905E+02  0.18986548736E+03  0.19655452219E+03  0.47000000000E+01 0.  1.
         11    1    4    4    0    0 -0.95867966323E+01 -0.15124163670E+02 -0.14811191489E+02  0.23238295757E+02  0.00000000000E+00 0. -1.
        -12    1    4    4    0    0  0.52427699576E+01 -0.97623631227E+02  0.81028238380E+02  0.12697809034E+03  0.00000000000E+00 0.  1.
</event>
<event>
12    1  0.8728348E-002  0.1746123E+03  0.7818608E-02  0.1173157E+00
         21   -1    0    0  501  502  0.00000000000E+00  0.00000000000E+00  0.82445476612E+02  0.82445476612E+02  0.00000000000E+00 0. -1.
         21   -1    0    0  502  503 -0.00000000000E+00 -0.00000000000E+00 -0.37021371985E+03  0.37021371985E+03  0.00000000000E+00 0. -1.
         -6    2    1    2    0  503  0.10217562826E+02  0.28469671082E+02 -0.15379926286E+03  0.23268794849E+03  0.17197251918E+03 0.  0.
        -24    2    3    3    0    0 -0.59411755559E+02  0.22156523874E+02 -0.13635437788E+03  0.16047637173E+03  0.56031074110E+02 0.  0.
          6    2    1    2  501    0 -0.10217562826E+02 -0.28469671082E+02 -0.13396898038E+03  0.21997124798E+03  0.17182765049E+03 0.  0.
         24    2    5    5    0    0 -0.71787084115E+02 -0.33340066000E+02 -0.82429618016E+02  0.13939257480E+03  0.79816680817E+02 0.  0.
          5    1    5    5  501    0  0.61569521288E+02  0.48703949177E+01 -0.51539362361E+02  0.80578673177E+02  0.47000000000E+01 0. -1.
        -11    1    6    6    0    0 -0.54330255037E+02  0.15201293717E+02 -0.62222440656E+02  0.83990999900E+02  0.00000000000E+00 0.  1.
         12    1    6    6    0    0 -0.17456829078E+02 -0.48541359717E+02 -0.20207177360E+02  0.55401574901E+02  0.00000000000E+00 0. -1.
         -5    1    3    3    0  503  0.69629318386E+02  0.63131472079E+01 -0.17444884983E+02  0.72211576763E+02  0.47000000000E+01 0.  1.
         11    1    4    4    0    0 -0.40437231483E+02 -0.14675626128E+02 -0.64408937049E+02  0.77453565857E+02  0.00000000000E+00 0. -1.
        -12    1    4    4    0    0 -0.18974524077E+02  0.36832150002E+02 -0.71945440832E+02  0.83022805868E+02  0.00000000000E+00 0.  1.
</event>
<event>
12    1  0.8728348E-002  0.1947980E+03  0.7818608E-02  0.1154295E+00
         21   -1    0    0  503  502  0.00000000000E+00  0.00000000000E+00  0.96666993801E+02  0.96666993801E+02  0.00000000000E+00 0. -1.
         21   -1    0    0  501  503 -0.00000000000E+00 -0.00000000000E+00 -0.42065351594E+03  0.42065351594E+03  0.00000000000E+00 0. -1.
          6    2    1    2  501    0  0.59643544157E+02 -0.69887283308E+02 -0.23000631488E+03  0.30141192783E+03  0.17176920743E+03 0.  0.
         24    2    3    3    0    0  0.42668137836E+02  0.31960635100E+00 -0.46394114947E+02  0.10404753960E+03  0.82781667417E+02 0.  0.
         -6    2    1    2    0  502 -0.59643544157E+02  0.69887283308E+02 -0.93980207262E+02  0.21590858192E+03  0.17129696921E+03 0.  0.
        -24    2    5    5    0    0  0.34337293447E+02  0.53685145001E+02 -0.52470127805E+02  0.11179285871E+03  0.75388224756E+02 0.  0.
          5    1    3    3  501    0  0.16975406322E+02 -0.70206889659E+02 -0.18361219993E+03  0.19736438823E+03  0.47000000000E+01 0. -1.
        -13    1    4    4    0    0  0.53504389293E+02 -0.29027870704E+02 -0.37611677973E+02  0.71554002482E+02  0.00000000000E+00 0.  1.
         14    1    4    4    0    0 -0.10836251458E+02  0.29347477055E+02 -0.87824369742E+01  0.32493537117E+02  0.00000000000E+00 0. -1.
         -5    1    5    5    0  502 -0.93980837604E+02  0.16202138307E+02 -0.41510079457E+02  0.10411572321E+03  0.47000000000E+01 0.  1.
         11    1    6    6    0    0  0.18409665575E+02  0.50864835702E+02  0.28376629130E+01  0.54168252957E+02  0.00000000000E+00 0. -1.
        -12    1    6    6    0    0  0.15927627872E+02  0.28203092990E+01 -0.55307790718E+02  0.57624605754E+02  0.00000000000E+00 0.  1.
</event>
<event>
12    1  0.8728348E-002  0.2808456E+03  0.7818608E-02  0.1095310E+00
         21   -1    0    0  503  502  0.00000000000E+00  0.00000000000E+00  0.25224425302E+03  0.25224425302E+03  0.00000000000E+00 0.  1.
         21   -1    0    0  501  503 -0.00000000000E+00 -0.00000000000E+00 -0.38654542549E+03  0.38654542549E+03  0.00000000000E+00 0.  1.
          6    2    1    2  501    0 -0.12432976193E+03  0.18374237030E+03  0.73034563120E+02  0.29018669834E+03  0.17220663210E+03 0.  0.
         24    2    3    3    0    0 -0.40302339335E+02  0.11951028006E+03 -0.18262841022E+02  0.15038800319E+03  0.79850075421E+02 0.  0.
         -6    2    1    2    0  502  0.12432976193E+03 -0.18374237030E+03 -0.20733573559E+03  0.34860298017E+03  0.17122144195E+03 0.  0.
        -24    2    5    5    0    0  0.90919249692E+02 -0.47189979637E+02 -0.14313571287E+03  0.19398554699E+03  0.81543583441E+02 0.  0.
          5    1    3    3  501    0 -0.84027422591E+02  0.64232090244E+02  0.91297404142E+02  0.13979869516E+03  0.47000000000E+01 0. -1.
        -11    1    4    4    0    0 -0.54254582896E+02  0.90109010938E+02  0.12105198582E+02  0.10587600980E+03  0.00000000000E+00 0.  1.
         12    1    4    4    0    0  0.13952243562E+02  0.29401269122E+02 -0.30368039604E+02  0.44511993392E+02  0.00000000000E+00 0. -1.
         -5    1    5    5    0  502  0.33410512234E+02 -0.13655239067E+03 -0.64200022727E+02  0.15461743318E+03  0.47000000000E+01 0.  1.
         13    1    6    6    0    0  0.41142405358E+02  0.18954615869E+02 -0.32243627534E+02  0.55602396512E+02  0.00000000000E+00 0. -1.
        -14    1    6    6    0    0  0.49776844334E+02 -0.66144595507E+02 -0.11089208533E+03  0.13838315048E+03  0.00000000000E+00 0.  1.
</event>
<event>
12    1  0.8728348E-002  0.2350559E+03  0.7818608E-02  0.1123161E+00
         21   -1    0    0  501  502  0.00000000000E+00  0.00000000000E+00  0.17696360622E+03  0.17696360622E+03  0.00000000000E+00 0. -1.
         21   -1    0    0  502  503 -0.00000000000E+00 -0.00000000000E+00 -0.39135909041E+03  0.39135909041E+03  0.00000000000E+00 0. -1.
         -6    2    1    2    0  503 -0.11795331917E+03  0.10741023690E+03  0.20806363605E+02  0.23580023478E+03  0.17239170938E+03 0.  0.
        -24    2    3    3    0    0 -0.82977811026E+02  0.13459621514E+03  0.48311674324E+02  0.18344571539E+03  0.79478640936E+02 0.  0.
          6    2    1    2  501    0  0.11795331917E+03 -0.10741023690E+03 -0.23520184780E+03  0.33252246185E+03  0.17263062861E+03 0.  0.
         24    2    5    5    0    0  0.10320147194E+03 -0.10853434333E+02 -0.89603001805E+02  0.15713162095E+03  0.76767880797E+02 0.  0.
          5    1    5    5  501    0  0.14751847229E+02 -0.96556802562E+02 -0.14559884599E+03  0.17539084090E+03  0.47000000000E+01 0. -1.
        -13    1    6    6    0    0  0.31078667583E+02  0.37416306788E+01  0.10389015035E+02  0.32982040753E+02  0.00000000000E+00 0.  1.
         14    1    6    6    0    0  0.72122804356E+02 -0.14595065012E+02 -0.99992016840E+02  0.12414958020E+03  0.00000000000E+00 0. -1.
         -5    1    3    3    0  503 -0.34975508142E+02 -0.27185978249E+02 -0.27505310719E+02  0.52354519393E+02  0.47000000000E+01 0.  1.
         11    1    4    4    0    0 -0.87552969159E+02  0.72737962049E+02  0.21344281650E+02  0.11580980913E+03  0.00000000000E+00 0. -1.
        -12    1    4    4    0    0  0.45751581327E+01  0.61858253096E+02  0.26967392674E+02  0.67635906261E+02  0.00000000000E+00 0.  1.
</event>
<event>
12    1  0.8728348E-002  0.2086225E+03  0.7818608E-02  0.1142753E+00
         21   -1    0    0  501  502  0.00000000000E+00  0.00000000000E+00  0.70101403747E+02  0.70101403747E+02  0.00000000000E+00 0. -1.
         21   -1    0    0  502  503 -0.00000000000E+00 -0.00000000000E+00 -0.86549375918E+03  0.86549375918E+03  0.00000000000E+00 0. -1.
         -6    2    1    2    0  503 -0.98216953649E+02  0.64442353192E+02 -0.64677627391E+03  0.67945052093E+03  0.17185480798E+03 0.  0.
        -24    2    3    3    0    0 -0.48880658952E+02  0.10620398456E+03 -0.48370277854E+03  0.50397072516E+03  0.79683804497E+02 0.  0.
          6    2    1    2  501    0  0.98216953649E+02 -0.64442353192E+02 -0.14861608152E+03  0.25614464200E+03  0.17240635449E+03 0.  0.
         24    2    5    5    0    0  0.11096742562E+03 -0.28544308108E+02 -0.16292462025E+03  0.21518040813E+03  0.81422534246E+02 0.  0.
          5    1    5    5  501    0 -0.12750471976E+02 -0.35898045084E+02  0.14308538726E+02  0.40964233875E+02  0.47000000000E+01 0. -1.
        -13    1    6    6    0    0  0.69597771966E+02 -0.57116340817E+02 -0.11064338354E+03  0.14264671245E+03  0.00000000000E+00 0.  1.
         14    1    6    6    0    0  0.41369653659E+02  0.28572032709E+02 -0.52281236710E+02  0.72533695680E+02  0.00000000000E+00 0. -1.
         -5    1    3    3    0  503 -0.49336294697E+02 -0.41761631367E+02 -0.16307349537E+03  0.17547979577E+03  0.47000000000E+01 0.  1.
         13    1    4    4    0    0 -0.70253488198E+02  0.92101177732E+02 -0.40077940415E+03  0.41718378484E+03  0.00000000000E+00 0. -1.
        -14    1    4    4    0    0  0.21372829246E+02  0.14102806828E+02 -0.82923374394E+02  0.86786940326E+02  0.00000000000E+00 0.  1.
</event>
<event>
12    1  0.8728348E-002  0.1844264E+03  0.7818608E-02  0.1163909E+00
         21   -1    0    0  501  502  0.00000000000E+00  0.00000000000E+00  0.15507828098E+03  0.15507828098E+03  0.00000000000E+00 0.  1.
         21   -1    0    0  502  503 -0.00000000000E+00 -0.00000000000E+00 -0.63309692541E+03  0.63309692541E+03  0.00000000000E+00 0.  1.
         -6    2    1    2    0  503 -0.24480623745E+01 -0.66652360732E+02 -0.55853467513E+03  0.58819559852E+03  0.17194344590E+03 0.  0.
        -24    2    3    3    0    0  0.24573647536E+02 -0.10551971819E+03 -0.37056380920E+03  0.39429876842E+03  0.80098108633E+02 0.  0.
          6    2    1    2  501    0  0.24480623745E+01  0.66652360732E+02  0.80516030702E+02  0.19997960788E+03  0.17047135292E+03 0.  0.
         24    2    5    5    0    0  0.18895936427E+02 -0.27591343522E+02  0.41225457471E+02  0.96450638514E+02  0.80528558135E+02 0.  0.
          5    1    5    5  501    0 -0.16447874052E+02  0.94243704253E+02  0.39290573231E+02  0.10352896936E+03  0.47000000000E+01 0. -1.
        -11    1    6    6    0    0  0.26313034389E+02  0.80436553430E+01 -0.13560800950E+02  0.30675258637E+02  0.00000000000E+00 0.  1.
         12    1    6    6    0    0 -0.74170979619E+01 -0.35634998865E+02  0.54786258421E+02  0.65775379877E+02  0.00000000000E+00 0. -1.
         -5    1    3    3    0  503 -0.27021709911E+02  0.38867357460E+02 -0.18797086593E+03  0.19389683010E+03  0.47000000000E+01 0.  1.
         13    1    4    4    0    0  0.46297771003E+02 -0.33186698210E+02 -0.12465948999E+03  0.13705775783E+03  0.00000000000E+00 0. -1.
        -14    1    4    4    0    0 -0.21724123467E+02 -0.72333019982E+02 -0.24590431921E+03  0.25724101059E+03  0.00000000000E+00 0.  1.
</event>
<event>
12    1  0.8728348E-002  0.1746479E+03  0.7818608E-02  0.1174245E+00
         21   -1    0    0  503  502  0.00000000000E+00  0.00000000000E+00  0.10387883156E+04  0.10387883156E+04  0.00000000000E+00 0.  1.
         21   -1    0    0  501  503 -0.00000000000E+00 -0.00000000000E+00 -0.13432801683E+03  0.13432801683E+03  0.00000000000E+00 0.  1.
          6    2    1    2  501    0 -0.12972189181E+02 -0.68933236754E+01 -0.69400056207E+02  0.18371960152E+03  0.16947191088E+03 0.  0.
         24    2    3    3    0    0  0.22643500156E+02  0.34621551744E+02 -0.87834205018E+02  0.12580699451E+03  0.80007326868E+02 0.  0.
         -6    2    1    2    0  502  0.12972189181E+02  0.68933236754E+01  0.97386035498E+03  0.98939673092E+03  0.17402903361E+03 0.  0.
        -24    2    5    5    0    0  0.31417969183E+02  0.38324628344E+02  0.30002902866E+03  0.31456421833E+03  0.80482069361E+02 0.  0.
          5    1    3    3  501    0 -0.35615689337E+02 -0.41514875420E+02  0.18434148811E+02  0.57912607008E+02  0.47000000000E+01 0. -1.
        -11    1    4    4    0    0  0.76587755319E+01  0.33418233813E+01 -0.90626589158E+02  0.91011006414E+02  0.00000000000E+00 0.  1.
         12    1    4    4    0    0  0.14984724625E+02  0.31279728363E+02  0.27923841395E+01  0.34795988098E+02  0.00000000000E+00 0. -1.
         -5    1    5    5    0  502 -0.18445780002E+02 -0.31431304669E+02  0.67383132632E+03  0.67483251259E+03  0.47000000000E+01 0.  1.
         13    1    6    6    0    0 -0.26310859934E+02  0.17981514717E+02  0.13014581628E+03  0.13399078221E+03  0.00000000000E+00 0. -1.
        -14    1    6    6    0    0  0.57728829116E+02  0.20343113627E+02  0.16988321238E+03  0.18057343612E+03  0.00000000000E+00 0.  1.
</event>
<event>
12    1  0.8728348E-002  0.2086869E+03  0.7818608E-02  0.1143948E+00
         21   -1    0    0  501  502  0.00000000000E+00  0.00000000000E+00  0.62266220299E+02  0.62266220299E+02  0.00000000000E+00 0. -1.
         21   -1    0    0  502  503 -0.00000000000E+00 -0.00000000000E+00 -0.11109814144E+04  0.11109814144E+04  0.00000000000E+00 0.  1.
         -6    2    1    2    0  503 -0.10120570811E+03  0.22049877822E+02 -0.88562430576E+03  0.90839129491E+03  0.17353829905E+03 0.  0.
        -24    2    3    3    0    0 -0.10636920544E+03  0.68163813321E+02 -0.67711220081E+03  0.69472673382E+03  0.90573665530E+02 0.  0.
          6    2    1    2  501    0  0.10120570811E+03 -0.22049877822E+02 -0.16309088833E+03  0.26485633979E+03  0.18116691310E+03 0.  0.
         24    2    5    5    0    0  0.77868858687E+02  0.60011280152E+02 -0.77271038053E+02  0.14375399096E+03  0.70918852903E+02 0.  0.
          5    1    5    5  501    0  0.23336849421E+02 -0.82061157974E+02 -0.85819850279E+02  0.12110234882E+03  0.47000000000E+01 0. -1.
        -11    1    6    6    0    0  0.14750614855E+02  0.22341358994E+02  0.10949823518E+02  0.28924308036E+02  0.00000000000E+00 0.  1.
         12    1    6    6    0    0  0.63118243832E+02  0.37669921158E+02 -0.88220861571E+02  0.11482968293E+03  0.00000000000E+00 0. -1.
         -5    1    3    3    0  503  0.51634973325E+01 -0.46113935499E+02 -0.20851210495E+03  0.21366456108E+03  0.47000000000E+01 0.  1.
         13    1    4    4    0    0  0.11489764948E+02  0.18474292672E+02 -0.18457700600E+03  0.18585474256E+03  0.00000000000E+00 0. -1.
        -14    1    4    4    0    0 -0.11785897039E+03  0.49689520648E+02 -0.49253519482E+03  0.50887199127E+03  0.00000000000E+00 0.  1.
</event>
<event>
12    1  0.8728348E-002  0.2088234E+03  0.7818608E-02  0.1142598E+00
         21   -1    0    0  503  502  0.00000000000E+00  0.00000000000E+00  0.46500216738E+03  0.46500216738E+03  0.00000000000E+00 0.  1.
         21   -1    0    0  501  503 -0.00000000000E+00 -0.00000000000E+00 -0.10586409253E+03  0.10586409253E+03  0.00000000000E+00 0.  1.
          6    2    1    2  501    0 -0.79344926626E+02 -0.88542892920E+02  0.82447281770E+02  0.22451010456E+03  0.17167344440E+03 0.  0.
         24    2    3    3    0    0 -0.89463148107E+02 -0.94230241502E+01  0.16373237129E+02  0.12082692649E+03  0.78984903729E+02 0.  0.
         -6    2    1    2    0  502  0.79344926626E+02  0.88542892920E+02  0.27669079309E+03  0.34635615535E+03  0.17108281650E+03 0.  0.
        -24    2    5    5    0    0  0.66773789088E+02  0.10630350232E+03  0.12965688589E+03  0.19764659745E+03  0.80585953555E+02 0.  0.
          5    1    3    3  501    0  0.10118221481E+02 -0.79119868770E+02  0.66074044641E+02  0.10368317807E+03  0.47000000000E+01 0. -1.
        -11    1    4    4    0    0 -0.40414568568E+02 -0.32854388166E+02  0.35689767223E+02  0.63138796779E+02  0.00000000000E+00 0.  1.
         12    1    4    4    0    0 -0.49048579539E+02  0.23431364016E+02 -0.19316530094E+02  0.57688129709E+02  0.00000000000E+00 0. -1.
         -5    1    5    5    0  502  0.12571137538E+02 -0.17760609398E+02  0.14703390720E+03  0.14870955790E+03  0.47000000000E+01 0.  1.
         13    1    6    6    0    0 -0.18189094577E+02  0.25309436776E+02  0.20143412163E+02  0.37110211600E+02  0.00000000000E+00 0. -1.
        -14    1    6    6    0    0  0.84962883665E+02  0.80994065542E+02  0.10951347373E+03  0.16053638585E+03  0.00000000000E+00 0.  1.
</event>
<event>
12    1  0.8728348E-002  0.1981048E+03  0.7818608E-02  0.1151939E+00
         21   -1    0    0  501  502  0.00000000000E+00  0.00000000000E+00  0.11713084023E+03  0.11713084023E+03  0.00000000000E+00 0. -1.
         21   -1    0    0  502  503 -0.00000000000E+00 -0.00000000000E+00 -0.63474972098E+03  0.63474972098E+03  0.00000000000E+00 0.  1.
         -6    2    1    2    0  503 -0.15456912445E+02 -0.91535092141E+02 -0.51817156708E+03  0.55377494793E+03  0.17189337039E+03 0.  0.
        -24    2    3    3    0    0 -0.81021815661E+01 -0.45515057395E+02 -0.11699570544E+03  0.14987384910E+03  0.81467231197E+02 0.  0.
          6    2    1    2  501    0  0.15456912445E+02  0.91535092141E+02  0.55268632605E+00  0.19810561329E+03  0.17500839785E+03 0.  0.
         24    2    5    5    0    0 -0.10387913628E+02  0.12776155369E+03  0.15174585444E+02  0.15102906409E+03  0.78412925000E+02 0.  0.
          5    1    5    5  501    0  0.25844826073E+02 -0.36226461545E+02 -0.14621899118E+02  0.47076549200E+02  0.47000000000E+01 0. -1.
        -11    1    6    6    0    0 -0.59321482279E+01  0.65998246098E+02 -0.31611088102E+02  0.73418116032E+02  0.00000000000E+00 0.  1.
         12    1    6    6    0    0 -0.44557653997E+01  0.61763307587E+02  0.46785673546E+02  0.77610948059E+02  0.00000000000E+00 0. -1.
         -5    1    3    3    0  503 -0.73547308794E+01 -0.46020034746E+02 -0.40117586164E+03  0.40390109882E+03  0.47000000000E+01 0.  1.
         13    1    4    4    0    0 -0.37569652903E+02 -0.29214159307E+02 -0.10288944104E+03  0.11336305836E+03  0.00000000000E+00 0. -1.
        -14    1    4    4    0    0  0.29467471337E+02 -0.16300898088E+02 -0.14106264395E+02  0.36510790743E+02  0.00000000000E+00 0.  1.
</event>
<event>
12    1  0.8728348E-002  0.2568731E+03  0.7818608E-02  0.1109313E+00
         21   -1    0    0  501  502  0.00000000000E+00  0.00000000000E+00  0.35901730151E+03  0.35901730151E+03  0.00000000000E+00 0.  1.
         21   -1    0    0  502  503 -0.00000000000E+00 -0.00000000000E+00 -0.19090168953E+03  0.19090168953E+03  0.00000000000E+00 0. -1.
         -6    2    1    2    0  503 -0.18833798866E+03 -0.28095771372E+02  0.14201939511E+03  0.29351882599E+03  0.17240424090E+03 0.  0.
        -24    2    3    3    0    0 -0.24077749829E+02  0.10156553577E+02  0.75271328123E+02  0.11207445195E+03  0.78816345541E+02 0.  0.
          6    2    1    2  501    0  0.18833798866E+03  0.28095771372E+02  0.26096216872E+02  0.25640016504E+03  0.16970404166E+03 0.  0.
         24    2    5    5    0    0  0.13803465748E+03 -0.14579979519E+02  0.72954484439E+02  0.17534813187E+03  0.78475907656E+02 0.  0.
          5    1    5    5  501    0  0.50303331181E+02  0.42675750891E+02 -0.46858267567E+02  0.81052033172E+02  0.47000000000E+01 0. -1.
        -13    1    6    6    0    0  0.72882664829E+01  0.61236170337E+01  0.36960107407E+02  0.38166307831E+02  0.00000000000E+00 0.  1.
         14    1    6    6    0    0  0.13074639100E+03 -0.20703596553E+02  0.35994377032E+02  0.13718182404E+03  0.00000000000E+00 0. -1.
         -5    1    3    3    0  503 -0.16426023883E+03 -0.38252324949E+02  0.66748066985E+02  0.18144437404E+03  0.47000000000E+01 0.  1.
         11    1    4    4    0    0 -0.23890694346E+02 -0.59991799343E+01 -0.90325726470E+01  0.26236287940E+02  0.00000000000E+00 0. -1.
        -12    1    4    4    0    0 -0.18705548266E+00  0.16155733511E+02  0.84303900770E+02  0.85838164007E+02  0.00000000000E+00 0.  1.
</event>
<event>
12    1  0.8728348E-002  0.1870681E+03  0.7818608E-02  0.1163168E+00
         21   -1    0    0  503  502  0.00000000000E+00  0.00000000000E+00  0.10537574447E+03  0.10537574447E+03  0.00000000000E+00 0.  1.
         21   -1    0    0  501  503 -0.00000000000E+00 -0.00000000000E+00 -0.58213384897E+03  0.58213384897E+03  0.00000000000E+00 0.  1.
          6    2    1    2  501    0  0.13914602136E+02 -0.43263441672E+02 -0.46729089886E+03  0.50020209127E+03  0.17255725549E+03 0.  0.
         24    2    3    3    0    0 -0.47252283368E+01  0.31652667406E+02 -0.35313392497E+03  0.36231165880E+03  0.74444274487E+02 0.  0.
         -6    2    1    2    0  502 -0.13914602136E+02  0.43263441672E+02 -0.94672056422E+01  0.18730750216E+03  0.18146385548E+03 0.  0.
        -24    2    5    5    0    0  0.84996995212E+01  0.76626487989E+02 -0.58054236085E+02  0.12407552208E+03  0.77978056519E+02 0.  0.
          5    1    3    3  501    0  0.18639830472E+02 -0.74916109078E+02 -0.11415697389E+03  0.13789043247E+03  0.47000000000E+01 0. -1.
        -11    1    4    4    0    0  0.55424959446E+01 -0.20864655477E+02 -0.49564467858E+02  0.54061905104E+02  0.00000000000E+00 0.  1.
         12    1    4    4    0    0 -0.10267724281E+02  0.52517322883E+02 -0.30356945711E+03  0.30824975370E+03  0.00000000000E+00 0. -1.
         -5    1    5    5    0  502 -0.22414301657E+02 -0.33363046317E+02  0.48587030442E+02  0.63231980085E+02  0.47000000000E+01 0.  1.
         13    1    6    6    0    0  0.33105468655E+01  0.48553931658E+02 -0.76079134295E+02  0.90313225360E+02  0.00000000000E+00 0. -1.
        -14    1    6    6    0    0  0.51891526558E+01  0.28072556331E+02  0.18024898210E+02  0.33762296719E+02  0.00000000000E+00 0.  1.
</event>
<event>
12    1  0.8728348E-002  0.2196981E+03  0.7818608E-02  0.1134417E+00
         21   -1    0    0  503  502  0.00000000000E+00  0.00000000000E+00  0.43416517755E+03  0.43416517755E+03  0.00000000000E+00 0.  1.
         21   -1    0    0  501  503 -0.00000000000E+00 -0.00000000000E+00 -0.17103382480E+03  0.17103382480E+03  0.00000000000E+00 0.  1.
          6    2    1    2  501    0 -0.11984321417E+03 -0.63775863196E+02  0.31150489255E+03  0.38023839363E+03  0.17063464244E+03 0.  0.
         24    2    3    3    0    0 -0.25985008340E+02  0.20538694213E+02  0.86537198523E+02  0.12226385856E+03  0.79766570457E+02 0.  0.
         -6    2    1    2    0  502  0.11984321417E+03  0.63775863196E+02 -0.48373539798E+02  0.22496060872E+03  0.17273540289E+03 0.  0.
        -24    2    5    5    0    0  0.11878776349E+03 -0.11549541651E+02 -0.30306393055E+02  0.14734912514E+03  0.80928132016E+02 0.  0.
          5    1    3    3  501    0 -0.93858205833E+02 -0.84314557409E+02  0.22496769402E+03  0.25797453508E+03  0.47000000000E+01 0. -1.
        -11    1    4    4    0    0 -0.32731635670E+02 -0.21000535604E+02  0.63024773053E+02  0.74057440461E+02  0.00000000000E+00 0.  1.
         12    1    4    4    0    0  0.67466273299E+01  0.41539229817E+02  0.23512425470E+02  0.48206418095E+02  0.00000000000E+00 0. -1.
         -5    1    5    5    0  502  0.10554506803E+01  0.75325404847E+02 -0.18067146743E+02  0.77611483577E+02  0.47000000000E+01 0.  1.
         11    1    6    6    0    0 -0.96598786452E+01 -0.11840744157E+02  0.38206989859E+00  0.15286021557E+02  0.00000000000E+00 0. -1.
        -12    1    6    6    0    0  0.12844764214E+03  0.29120250546E+00 -0.30688462953E+02  0.13206310358E+03  0.00000000000E+00 0.  1.
</event>
<event>
12    1  0.8728348E-002  0.2413208E+03  0.7818608E-02  0.1119036E+00
         21   -1    0    0  503  502  0.00000000000E+00  0.00000000000E+00  0.20870695665E+03  0.20870695665E+03  0.00000000000E+00 0.  1.
         21   -1    0    0  501  503 -0.00000000000E+00 -0.00000000000E+00 -0.37708211620E+03  0.37708211620E+03  0.00000000000E+00 0.  1.
          6    2    1    2  501    0 -0.15745514604E+03 -0.60523449000E+02 -0.23408687142E+03  0.33568156923E+03  0.17155244579E+03 0.  0.
         24    2    3    3    0    0 -0.16296071525E+02 -0.25495698481E+02 -0.11646787581E+03  0.14857425844E+03  0.87143281935E+02 0.  0.
         -6    2    1    2    0  502  0.15745514604E+03  0.60523449000E+02  0.65711711877E+02  0.25010750362E+03  0.17257034333E+03 0.  0.
        -24    2    5    5    0    0  0.14304022940E+03  0.10076524074E+03  0.32106852247E+02  0.19553124307E+03  0.81163268099E+02 0.  0.
          5    1    3    3  501    0 -0.14115907451E+03 -0.35027750520E+02 -0.11761899561E+03  0.18710731079E+03  0.47000000000E+01 0. -1.
        -11    1    4    4    0    0 -0.48540369318E+02 -0.23366533027E+02 -0.45198640887E+02  0.70321258928E+02  0.00000000000E+00 0.  1.
         12    1    4    4    0    0  0.32244297793E+02 -0.21291654541E+01 -0.71269234928E+02  0.78252999513E+02  0.00000000000E+00 0. -1.
         -5    1    5    5    0  502  0.14414916641E+02 -0.40241791742E+02  0.33604859630E+02  0.54576260545E+02  0.47000000000E+01 0.  1.
         13    1    6    6    0    0  0.64335558275E+02  0.51618373684E+02 -0.25474295431E+02  0.86327633398E+02  0.00000000000E+00 0. -1.
        -14    1    6    6    0    0  0.78704671124E+02  0.49146867059E+02  0.57581147679E+02  0.10920360968E+03  0.00000000000E+00 0.  1.
</event>
<event>
12    1  0.8728348E-002  0.2211202E+03  0.7818608E-02  0.1133177E+00
         21   -1    0    0  503  502  0.00000000000E+00  0.00000000000E+00  0.20030648470E+03  0.20030648470E+03  0.00000000000E+00 0. -1.
         21   -1    0    0  501  503 -0.00000000000E+00 -0.00000000000E+00 -0.24334500691E+03  0.24334500691E+03  0.00000000000E+00 0. -1.
          6    2    1    2  501    0  0.11520906120E+03 -0.78201276922E+02 -0.22215464528E+02  0.22155296016E+03  0.17089066621E+03 0.  0.
         24    2    3    3    0    0  0.14008113093E+03 -0.46106013374E+02  0.16975936030E+02  0.16492450731E+03  0.71856962047E+02 0.  0.
         -6    2    1    2    0  502 -0.11520906120E+03  0.78201276922E+02 -0.20823057685E+02  0.22209853145E+03  0.17177191401E+03 0.  0.
        -24    2    5    5    0    0 -0.38662519130E+02  0.20417704538E+02  0.49278640854E+02  0.10320928686E+03  0.79448721859E+02 0.  0.
          5    1    3    3  501    0 -0.24872069729E+02 -0.32095263547E+02 -0.39191400558E+02  0.56628452853E+02  0.47000000000E+01 0. -1.
        -13    1    4    4    0    0  0.35641352831E+02 -0.42284107399E+00 -0.24902684937E+02  0.43481358572E+02  0.00000000000E+00 0.  1.
         14    1    4    4    0    0  0.10443977810E+03 -0.45683172300E+02  0.41878620967E+02  0.12144314874E+03  0.00000000000E+00 0. -1.
         -5    1    5    5    0  502 -0.76546542074E+02  0.57783572384E+02 -0.70101698539E+02  0.11888924459E+03  0.47000000000E+01 0.  1.
         13    1    6    6    0    0  0.29987707094E+01  0.18368664650E+02 -0.16796104135E+02  0.25070093356E+02  0.00000000000E+00 0. -1.
        -14    1    6    6    0    0 -0.41661289840E+02  0.20490398881E+01  0.66074744989E+02  0.78139193501E+02  0.00000000000E+00 0.  1.
</event>
<event>
12    1  0.8728348E-002  0.1792347E+03  0.7818608E-02  0.1168755E+00
         21   -1    0    0  503  502  0.00000000000E+00  0.00000000000E+00  0.73257572067E+03  0.73257572067E+03  0.00000000000E+00 0. -1.
         21   -1    0    0  501  503 -0.00000000000E+00 -0.00000000000E+00 -0.49532296997E+02  0.49532296997E+02  0.00000000000E+00 0. -1.
          6    2    1    2  501    0 -0.12549235105E+01 -0.51167599772E+02  0.20739682827E+03  0.27411404276E+03  0.17177126058E+03 0.  0.
         24    2    3    3    0    0  0.24438587295E+02  0.15611114314E+02  0.17664383300E+03  0.19609231585E+03  0.80051240822E+02 0.  0.
         -6    2    1    2    0  502  0.12549235105E+01  0.51167599772E+02  0.47564659540E+03  0.50799397491E+03  0.17087567622E+03 0.  0.
        -24    2    5    5    0    0 -0.42588940714E+02  0.68645983986E+02  0.41844527093E+03  0.43368475700E+03  0.80373718954E+02 0.  0.
          5    1    3    3  501    0 -0.25693510805E+02 -0.66778714086E+02  0.30752995265E+02  0.78021726911E+02  0.47000000000E+01 0. -1.
        -11    1    4    4    0    0  0.17264010131E+02 -0.13120489947E+02  0.16127828965E+03  0.16272946879E+03  0.00000000000E+00 0.  1.
         12    1    4    4    0    0  0.71745771634E+01  0.28731604260E+02  0.15365543354E+02  0.33362847052E+02  0.00000000000E+00 0. -1.
         -5    1    5    5    0  502  0.43843864224E+02 -0.17478384214E+02  0.57201324470E+02  0.74309217907E+02  0.47000000000E+01 0.  1.
         13    1    6    6    0    0  0.72807112500E+01  0.62695473103E+02  0.21039493533E+03  0.21965827987E+03  0.00000000000E+00 0. -1.
        -14    1    6    6    0    0 -0.49869651964E+02  0.59505108829E+01  0.20805033560E+03  0.21402647712E+03  0.00000000000E+00 0.  1.
</event>
<event>
12    1  0.8728348E-002  0.1742935E+03  0.7818608E-02  0.1173822E+00
         21   -1    0    0  501  502  0.00000000000E+00  0.00000000000E+00  0.56041266494E+02  0.56041266494E+02  0.00000000000E+00 0.  1.
         21   -1    0    0  502  503 -0.00000000000E+00 -0.00000000000E+00 -0.62774433490E+03  0.62774433490E+03  0.00000000000E+00 0.  1.
         -6    2    1    2    0  503 -0.13141161120E+02  0.64978021892E+01 -0.41447704599E+03  0.44905544270E+03  0.17217623939E+03 0.  0.
        -24    2    3    3    0    0 -0.23230830496E+02  0.54266419204E+02 -0.14853699907E+03  0.17863014662E+03  0.79755711082E+02 0.  0.
          6    2    1    2  501    0  0.13141161120E+02 -0.64978021892E+01 -0.15722602241E+03  0.23473015870E+03  0.17367588701E+03 0.  0.
         24    2    5    5    0    0  0.87244504534E+01 -0.13348387131E+01 -0.10004469341E+01  0.78286290302E+02  0.77780746493E+02 0.  0.
          5    1    5    5  501    0  0.44167106671E+01 -0.51629634761E+01 -0.15622557548E+03  0.15644386839E+03  0.47000000000E+01 0. -1.
        -11    1    6    6    0    0 -0.28658981271E+02  0.17765841645E+02 -0.10361227176E+02  0.35274882926E+02  0.00000000000E+00 0.  1.
         12    1    6    6    0    0  0.37383431725E+02 -0.19100680359E+02  0.93607802421E+01  0.43011407375E+02  0.00000000000E+00 0. -1.
         -5    1    3    3    0  503  0.10089669376E+02 -0.47768617015E+02 -0.26594004693E+03  0.27042529608E+03  0.47000000000E+01 0.  1.
         11    1    4    4    0    0  0.23255195946E+02 -0.39039976694E+01 -0.24842751542E+02  0.34252118773E+02  0.00000000000E+00 0. -1.
        -12    1    4    4    0    0 -0.46486026442E+02  0.58170416873E+02 -0.12369424752E+03  0.14437802784E+03  0.00000000000E+00 0.  1.
</event>
<event>
12    1  0.8728348E-002  0.2151523E+03  0.7818608E-02  0.1138022E+00
         21   -1    0    0  503  502  0.00000000000E+00  0.00000000000E+00  0.60113264938E+03  0.60113264938E+03  0.00000000000E+00 0.  1.
         21   -1    0    0  501  503 -0.00000000000E+00 -0.00000000000E+00 -0.13223631467E+03  0.13223631467E+03  0.00000000000E+00 0. -1.
          6    2    1    2  501    0 -0.12127877884E+02 -0.12518499359E+03 -0.51633380371E+01  0.21277017124E+03  0.17154042575E+03 0.  0.
         24    2    3    3    0    0 -0.36812883802E+02 -0.10859972695E+03 -0.59057517624E+02  0.15103611921E+03  0.78581357906E+02 0.  0.
         -6    2    1    2    0  502  0.12127877884E+02  0.12518499359E+03  0.47405967274E+03  0.52059879280E+03  0.17456277296E+03 0.  0.
        -24    2    5    5    0    0 -0.57793463515E+02  0.83246534498E+02  0.33937268847E+03  0.36308529476E+03  0.79918956816E+02 0.  0.
          5    1    3    3  501    0  0.24685005918E+02 -0.16585266640E+02  0.53894179587E+02  0.61734052030E+02  0.47000000000E+01 0. -1.
        -13    1    4    4    0    0 -0.28134329462E+02 -0.25341463729E+02  0.13558978795E+02  0.40219102230E+02  0.00000000000E+00 0.  1.
         14    1    4    4    0    0 -0.86785543395E+01 -0.83258263221E+02 -0.72616496419E+02  0.11081701698E+03  0.00000000000E+00 0. -1.
         -5    1    5    5    0  502  0.69921341399E+02  0.41938459092E+02  0.13468698427E+03  0.15751349805E+03  0.47000000000E+01 0.  1.
         11    1    6    6    0    0 -0.45138555110E+02  0.98091468656E+01  0.72177675961E+02  0.85693205254E+02  0.00000000000E+00 0. -1.
        -12    1    6    6    0    0 -0.12654908405E+02  0.73437387633E+02  0.26719501251E+03  0.27739208950E+03  0.00000000000E+00 0.  1.
</event>
<event>
12    1  0.8728348E-002  0.2434362E+03  0.7818608E-02  0.1119360E+00
         21   -1    0    0  503  502  0.00000000000E+00  0.00000000000E+00  0.51258138740E+03  0.51258138740E+03  0.00000000000E+00 0.  1.
         21   -1    0    0  501  503 -0.00000000000E+00 -0.00000000000E+00 -0.17873267068E+03  0.17873267068E+03  0.00000000000E+00 0. -1.
          6    2    1    2  501    0  0.33645484226E+02 -0.15265628427E+03 -0.49030084934E+02  0.23759901483E+03  0.17208539416E+03 0.  0.
         24    2    3    3    0    0  0.75151539363E+02 -0.69104675786E+02 -0.25336503536E+02  0.14122941541E+03  0.94236931614E+02 0.  0.
         -6    2    1    2    0  502 -0.33645484226E+02  0.15265628427E+03  0.38287880165E+03  0.45371504325E+03  0.18661512258E+03 0.  0.
        -24    2    5    5    0    0 -0.79829946675E+02  0.66264546095E+02  0.26874290524E+03  0.30323039338E+03  0.94668431346E+02 0.  0.
          5    1    3    3  501    0 -0.41506055138E+02 -0.83551608489E+02 -0.23693581398E+02  0.96369599427E+02  0.47000000000E+01 0. -1.
        -11    1    4    4    0    0  0.42781098967E+02  0.79073082340E+01 -0.36704757255E+02  0.56920885073E+02  0.00000000000E+00 0.  1.
         12    1    4    4    0    0  0.32370440397E+02 -0.77011984020E+02  0.11368253720E+02  0.84308530332E+02  0.00000000000E+00 0. -1.
         -5    1    5    5    0  502  0.46184462450E+02  0.86391738180E+02  0.11413589641E+03  0.15048464987E+03  0.47000000000E+01 0.  1.
         13    1    6    6    0    0 -0.23967435420E+02  0.22074128002E+02  0.88652141321E+01  0.33768285554E+02  0.00000000000E+00 0. -1.
        -14    1    6    6    0    0 -0.55862511255E+02  0.44190418093E+02  0.25987769111E+03  0.26946210782E+03  0.00000000000E+00 0.  1.
</event>
<event>
12    1  0.8728348E-002  0.3138901E+03  0.7818608E-02  0.1078997E+00
         21   -1    0    0  503  502  0.00000000000E+00  0.00000000000E+00  0.12139730410E+04  0.12139730410E+04  0.00000000000E+00 0. -1.
         21   -1    0    0  501  503 -0.00000000000E+00 -0.00000000000E+00 -0.13641017551E+03  0.13641017551E+03  0.00000000000E+00 0.  1.
          6    2    1    2  501    0 -0.19902384181E+03  0.17081480434E+03  0.10702050901E+03  0.33163293254E+03  0.17244948712E+03 0.  0.
         24    2    3    3    0    0 -0.14786791009E+03  0.15992258548E+03  0.22093315943E+02  0.23178160354E+03  0.76121251638E+02 0.  0.
         -6    2    1    2    0  502  0.19902384181E+03 -0.17081480434E+03  0.97054235646E+03  0.10187502839E+04  0.16465566602E+03 0.  0.
        -24    2    5    5    0    0  0.21838548488E+03 -0.16689480191E+03  0.86439930531E+03  0.91068235647E+03  0.81302524191E+02 0.  0.
          5    1    3    3  501    0 -0.51155931718E+02  0.10892218863E+02  0.84927193063E+02  0.99851329001E+02  0.47000000000E+01 0. -1.
        -13    1    4    4    0    0 -0.12170142739E+03  0.16353525738E+03  0.24205735392E+02  0.20528257467E+03  0.00000000000E+00 0.  1.
         14    1    4    4    0    0 -0.26166482701E+02 -0.36126719095E+01 -0.21124194484E+01  0.26499028872E+02  0.00000000000E+00 0. -1.
         -5    1    5    5    0  502 -0.19361643074E+02 -0.39200024267E+01  0.10614305114E+03  0.10806792747E+03  0.47000000000E+01 0.  1.
         11    1    6    6    0    0  0.12452779499E+03 -0.10406134091E+03  0.62886065574E+03  0.64946259225E+03  0.00000000000E+00 0. -1.
        -12    1    6    6    0    0  0.93857689887E+02 -0.62833461004E+02  0.23553864957E+03  0.26121976421E+03  0.00000000000E+00 0.  1.
</event>
<event>
12    1  0.8728348E-002  0.1734381E+03  0.7818608E-02  0.1174458E+00
         21   -1    0    0  501  502  0.00000000000E+00  0.00000000000E+00  0.18642591496E+03  0.18642591496E+03  0.00000000000E+00 0. -1.
         21   -1    0    0  502  503 -0.00000000000E+00 -0.00000000000E+00 -0.34604530246E+03  0.34604530246E+03  0.00000000000E+00 0. -1.
         -6    2    1    2    0  503  0.61692729565E+01 -0.18008171049E+02 -0.27453455990E+03  0.32441766976E+03  0.17180001666E+03 0.  0.
        -24    2    3    3    0    0  0.27862267896E+02 -0.71306911727E+02 -0.13815235197E+03  0.17631791140E+03  0.78364225858E+02 0.  0.
          6    2    1    2  501    0 -0.61692729565E+01  0.18008171049E+02  0.11491517240E+03  0.20805354766E+03  0.17239033526E+03 0.  0.
         24    2    5    5    0    0  0.44782587297E+00  0.40940844712E+02  0.14443064327E+03  0.16980506352E+03  0.79354871122E+02 0.  0.
          5    1    5    5  501    0 -0.66170988295E+01 -0.22932673663E+02 -0.29515470863E+02  0.38248484134E+02  0.47000000000E+01 0. -1.
        -13    1    6    6    0    0  0.17713112855E+01  0.66430671603E+01 -0.97053214778E+01  0.11893744152E+02  0.00000000000E+00 0.  1.
         14    1    6    6    0    0 -0.13234854125E+01  0.34297777552E+02  0.15413596474E+03  0.15791131937E+03  0.00000000000E+00 0. -1.
         -5    1    3    3    0  503 -0.21692994939E+02  0.53298740679E+02 -0.13638220793E+03  0.14809975836E+03  0.47000000000E+01 0.  1.
         13    1    4    4    0    0 -0.40490841236E+01 -0.51975804775E+02 -0.12714517064E+03  0.13741824399E+03  0.00000000000E+00 0. -1.
        -14    1    4    4    0    0  0.31911352019E+02 -0.19331106953E+02 -0.11007181323E+02  0.38899667407E+02  0.00000000000E+00 0.  1.
</event>
<event>
12    1  0.8728348E-002  0.2867751E+03  0.7818608E-02  0.1092169E+00
         21   -1    0    0  503  502  0.00000000000E+00  0.00000000000E+00  0.12160828535E+04  0.12160828535E+04  0.00000000000E+00 0. -1.
         21   -1    0    0  501  503 -0.00000000000E+00 -0.00000000000E+00 -0.68040398816E+02  0.68040398816E+02  0.00000000000E+00 0.  1.
          6    2    1    2  501    0  0.33230708010E+02 -0.22696862499E+03  0.51108540672E+03  0.58558603796E+03  0.17053937436E+03 0.  0.
         24    2    3    3    0    0  0.82563741833E+01 -0.17399922548E+03  0.48390141451E+03  0.52085170343E+03  0.82353019503E+02 0.  0.
         -6    2    1    2    0  502 -0.33230708010E+02  0.22696862499E+03  0.63695704799E+03  0.69853721438E+03  0.17210729855E+03 0.  0.
        -24    2    5    5    0    0  0.40262295041E+02  0.17440347864E+03  0.44528896388E+03  0.48658660558E+03  0.80290955958E+02 0.  0.
          5    1    3    3  501    0  0.24974333827E+02 -0.52969399510E+02  0.27183992217E+02  0.64734334532E+02  0.47000000000E+01 0. -1.
        -13    1    4    4    0    0  0.60670138046E+01  0.97102642650E+00 -0.14672242377E+00  0.61459804992E+01  0.00000000000E+00 0.  1.
         14    1    4    4    0    0  0.21893603787E+01 -0.17497025190E+03  0.48404813693E+03  0.51470572293E+03  0.00000000000E+00 0. -1.
         -5    1    5    5    0  502 -0.73493003052E+02  0.52565146341E+02  0.19166808410E+03  0.21195060880E+03  0.47000000000E+01 0.  1.
         13    1    6    6    0    0 -0.18543280698E+01  0.11915500883E+03  0.21228540573E+03  0.24344701302E+03  0.00000000000E+00 0. -1.
        -14    1    6    6    0    0  0.42116623111E+02  0.55248469816E+02  0.23300355815E+03  0.24313959256E+03  0.00000000000E+00 0.  1.
</event>
<event>
12    1  0.8728348E-002  0.1885832E+03  0.7818608E-02  0.1160474E+00
         21   -1    0    0  503  502  0.00000000000E+00  0.00000000000E+00  0.24849312220E+03  0.24849312220E+03  0.00000000000E+00 0. -1.
         21   -1    0    0  501  503 -0.00000000000E+00 -0.00000000000E+00 -0.17873289075E+03  0.17873289075E+03  0.00000000000E+00 0. -1.
          6    2    1    2  501    0 -0.54216827623E+02 -0.47633879807E+02 -0.63395189398E+02  0.19895367574E+03  0.17422733467E+03 0.  0.
         24    2    3    3    0    0 -0.59096650183E+02 -0.75186045789E+02 -0.84716823122E+02  0.16346231646E+03  0.10196878561E+03 0.  0.
         -6    2    1    2    0  502  0.54216827623E+02  0.47633879807E+02  0.13315542084E+03  0.22827233721E+03  0.17079064065E+03 0.  0.
        -24    2    5    5    0    0  0.37895385584E+02  0.67443253576E+02  0.21221863874E+02  0.11333752119E+03  0.80064808135E+02 0.  0.
          5    1    3    3  501    0  0.48798225592E+01  0.27552165982E+02  0.21321633724E+02  0.35491359275E+02  0.47000000000E+01 0. -1.
        -11    1    4    4    0    0 -0.20212512634E+02  0.13110524214E+02 -0.58827636093E+02  0.63569822089E+02  0.00000000000E+00 0.  1.
         12    1    4    4    0    0 -0.38884137549E+02 -0.88296570003E+02 -0.25889187029E+02  0.99892494374E+02  0.00000000000E+00 0. -1.
         -5    1    5    5    0  502  0.16321442040E+02 -0.19809373769E+02  0.11193355697E+03  0.11493481602E+03  0.47000000000E+01 0.  1.
         11    1    6    6    0    0  0.23972601523E+02  0.83271462165E+02  0.28209142233E+02  0.91129455943E+02  0.00000000000E+00 0. -1.
        -12    1    6    6    0    0  0.13922784060E+02 -0.15828208589E+02 -0.69872783597E+01  0.22208065247E+02  0.00000000000E+00 0.  1.
</event>
<event>
12    1  0.8728348E-002  0.1971082E+03  0.7818608E-02  0.1153582E+00
         21   -1    0    0  501  502  0.00000000000E+00  0.00000000000E+00  0.20701926583E+03  0.20701926583E+03  0.00000000000E+00 0. -1.
         21   -1    0    0  502  503 -0.00000000000E+00 -0.00000000000E+00 -0.20337774956E+03  0.20337774956E+03  0.00000000000E+00 0. -1.
         -6    2    1    2    0  503 -0.68166584628E+02 -0.49946693403E+02  0.68815403353E+02  0.20877546106E+03  0.17807379920E+03 0.  0.
        -24    2    3    3    0    0 -0.67753238932E+02 -0.47312650633E+02 -0.22532656179E+02  0.11726771813E+03  0.80093750225E+02 0.  0.
          6    2    1    2  501    0  0.68166584628E+02  0.49946693403E+02 -0.65173887083E+02  0.20162155432E+03  0.17106215294E+03 0.  0.
         24    2    5    5    0    0  0.85291190378E+02 -0.17392152113E+02 -0.23388782775E+02  0.12040667157E+03  0.79835188287E+02 0.  0.
          5    1    5    5  501    0 -0.17124605750E+02  0.67338845515E+02 -0.41785104308E+02  0.81214882746E+02  0.47000000000E+01 0. -1.
        -13    1    6    6    0    0  0.83727089002E+01  0.76433121087E+01  0.24081237576E+02  0.26616319759E+02  0.00000000000E+00 0.  1.
         14    1    6    6    0    0  0.76918481477E+02 -0.25035464221E+02 -0.47470020351E+02  0.93790351816E+02  0.00000000000E+00 0. -1.
         -5    1    3    3    0  503 -0.41334569515E+00 -0.26340427698E+01  0.91348059532E+02  0.91507742930E+02  0.47000000000E+01 0.  1.
         13    1    4    4    0    0 -0.52312221921E+02 -0.56303823888E+02 -0.44611624026E+02  0.88864425643E+02  0.00000000000E+00 0. -1.
        -14    1    4    4    0    0 -0.15441017012E+02  0.89911732553E+01  0.22078967847E+02  0.28403292486E+02  0.00000000000E+00 0.  1.
</event>
<event>
12    1  0.8728348E-002  0.2195048E+03  0.7818608E-02  0.1134687E+00
         21   -1    0    0  501  502  0.00000000000E+00  0.00000000000E+00  0.17661827811E+04  0.17661827811E+04  0.00000000000E+00 0. -1.
         21   -1    0    0  502  503 -0.00000000000E+00 -0.00000000000E+00 -0.27439532786E+02  0.27439532786E+02  0.00000000000E+00 0.  1.
         -6    2    1    2    0  503  0.13259709318E+03 -0.31005130625E+02  0.75968080697E+03  0.79075742263E+03  0.17216000033E+03 0.  0.
        -24    2    3    3    0    0  0.15030371545E+03 -0.25019567584E+02  0.47136155195E+03  0.50179473601E+03  0.79994117264E+02 0.  0.
          6    2    1    2  501    0 -0.13259709318E+03  0.31005130625E+02  0.97906244136E+03  0.10028648913E+04  0.16920821147E+03 0.  0.
         24    2    5    5    0    0 -0.88775758522E+02  0.37156593206E+02  0.92278642441E+03  0.93112069327E+03  0.78671549192E+02 0.  0.
          5    1    5    5  501    0 -0.43821334658E+02 -0.61514625811E+01  0.56276016953E+02  0.71744198004E+02  0.47000000000E+01 0. -1.
        -13    1    6    6    0    0 -0.60642006643E+02 -0.34566018170E+01  0.28380611103E+03  0.29023319886E+03  0.00000000000E+00 0.  1.
         14    1    6    6    0    0 -0.28133751878E+02  0.40613195023E+02  0.63898031338E+03  0.64088749441E+03  0.00000000000E+00 0. -1.
         -5    1    3    3    0  503 -0.17706622270E+02 -0.59855630409E+01  0.28831925503E+03  0.28896268662E+03  0.47000000000E+01 0.  1.
         11    1    4    4    0    0  0.20039810297E+02  0.21610880521E+02  0.47280057285E+02  0.55713804129E+02  0.00000000000E+00 0. -1.
        -12    1    4    4    0    0  0.13026390515E+03 -0.46630448105E+02  0.42408149466E+03  0.44608093189E+03  0.00000000000E+00 0.  1.
</event>
<event>
12    1  0.8728348E-002  0.1972100E+03  0.7818608E-02  0.1152491E+00
         21   -1    0    0  503  502  0.00000000000E+00  0.00000000000E+00  0.27616518040E+02  0.27616518040E+02  0.00000000000E+00 0.  1.
         21   -1    0    0  501  503 -0.00000000000E+00 -0.00000000000E+00 -0.14328114001E+04  0.14328114001E+04  0.00000000000E+00 0. -1.
          6    2    1    2  501    0  0.94152402995E+02  0.87530449653E+01 -0.81685072700E+03  0.83991150923E+03  0.17106999254E+03 0.  0.
         24    2    3    3    0    0  0.34472250362E+02  0.21091755164E+02 -0.22769895319E+03  0.24759751566E+03  0.88456307287E+02 0.  0.
         -6    2    1    2    0  502 -0.94152402995E+02 -0.87530449653E+01 -0.58834415503E+03  0.62051640889E+03  0.17306206444E+03 0.  0.
        -24    2    5    5    0    0 -0.13347626016E+03 -0.11930779225E+02 -0.50314974839E+03  0.52651300118E+03  0.78089791797E+02 0.  0.
          5    1    3    3  501    0  0.59680152633E+02 -0.12338710199E+02 -0.58915177381E+03  0.59231399357E+03  0.47000000000E+01 0. -1.
        -11    1    4    4    0    0  0.11720770178E+02  0.54869867151E+02 -0.12046816962E+03  0.13289341092E+03  0.00000000000E+00 0.  1.
         12    1    4    4    0    0  0.22751480185E+02 -0.33778111987E+02 -0.10723078357E+03  0.11470410474E+03  0.00000000000E+00 0. -1.
         -5    1    5    5    0  502  0.39323857167E+02  0.31777342602E+01 -0.85194406641E+02  0.94003407707E+02  0.47000000000E+01 0.  1.
         11    1    6    6    0    0 -0.88625733917E+02 -0.43910076084E+02 -0.29199301649E+03  0.30828969683E+03  0.00000000000E+00 0. -1.
        -12    1    6    6    0    0 -0.44850526246E+02  0.31979296859E+02 -0.21115673191E+03  0.21822330435E+03  0.00000000000E+00 0.  1.
</event>
<event>
12    1  0.8728348E-002  0.2338704E+03  0.7818608E-02  0.1124068E+00
         21   -1    0    0  503  502  0.00000000000E+00  0.00000000000E+00  0.15597516440E+04  0.15597516440E+04  0.00000000000E+00 0.  1.
         21   -1    0    0  501  503 -0.00000000000E+00 -0.00000000000E+00 -0.25074295779E+03  0.25074295779E+03  0.00000000000E+00 0.  1.
          6    2    1    2  501    0  0.11866892100E+03 -0.10465487587E+03 -0.18540680344E+03  0.29788988468E+03  0.17125345187E+03 0.  0.
         24    2    3    3    0    0  0.48700635223E+02 -0.64808889481E+02 -0.10120227756E+02  0.10493720327E+03  0.65859347053E+02 0.  0.
         -6    2    1    2    0  502 -0.11866892100E+03  0.10465487587E+03  0.14944154897E+04  0.15126047171E+04  0.17222200405E+03 0.  0.
        -24    2    5    5    0    0 -0.75237799717E+01  0.14058818839E+02  0.75511601339E+03  0.75951329270E+03  0.80037431643E+02 0.  0.
          5    1    3    3  501    0  0.69968285776E+02 -0.39845986384E+02 -0.17528657569E+03  0.19295268140E+03  0.47000000000E+01 0. -1.
        -11    1    4    4    0    0  0.35901447907E+02 -0.32098516890E+02 -0.36980458110E+02  0.60718885286E+02  0.00000000000E+00 0.  1.
         12    1    4    4    0    0  0.12799187317E+02 -0.32710372592E+02  0.26860230354E+02  0.44218317989E+02  0.00000000000E+00 0. -1.
         -5    1    5    5    0  502 -0.11114514103E+03  0.90596057027E+02  0.73929947626E+03  0.75309142442E+03  0.47000000000E+01 0.  1.
         11    1    6    6    0    0  0.17138800841E+02  0.21426189484E+02  0.67068477643E+03  0.67124577423E+03  0.00000000000E+00 0. -1.
        -12    1    6    6    0    0 -0.24662580812E+02 -0.73673706454E+01  0.84431236964E+02  0.88267518475E+02  0.00000000000E+00 0.  1.
</event>
<event>
12    1  0.8728348E-002  0.2893333E+03  0.7818608E-02  0.1090804E+00
         21   -1    0    0  501  502  0.00000000000E+00  0.00000000000E+00  0.16355388578E+03  0.16355388578E+03  0.00000000000E+00 0.  1.
         21   -1    0    0  502  503 -0.00000000000E+00 -0.00000000000E+00 -0.58198539120E+03  0.58198539120E+03  0.00000000000E+00 0.  1.
         -6    2    1    2    0  503 -0.22076102036E+03  0.72153953495E+02 -0.34020752912E+03  0.44660374283E+03  0.17254599133E+03 0.  0.
        -24    2    3    3    0    0 -0.14850159533E+03  0.10812424359E+03 -0.18843033573E+03  0.27463370850E+03  0.78575483152E+02 0.  0.
          6    2    1    2  501    0  0.22076102036E+03 -0.72153953495E+02 -0.78223976294E+02  0.29893553414E+03  0.17117780811E+03 0.  0.
         24    2    5    5    0    0  0.20766950425E+03 -0.75992750596E+02 -0.18905283058E+02  0.23788701635E+03  0.85623020742E+02 0.  0.
          5    1    5    5  501    0  0.13091516113E+02  0.38387971017E+01 -0.59318693236E+02  0.61048517792E+02  0.47000000000E+01 0. -1.
        -13    1    6    6    0    0  0.73387254397E+02 -0.52861726104E+02 -0.41938624579E+02  0.99694029040E+02  0.00000000000E+00 0.  1.
         14    1    6    6    0    0  0.13428224985E+03 -0.23131024492E+02  0.23033341521E+02  0.13819298731E+03  0.00000000000E+00 0. -1.
         -5    1    3    3    0  503 -0.72259425031E+02 -0.35970290094E+02 -0.15177719339E+03  0.17197003434E+03  0.47000000000E+01 0.  1.
         11    1    4    4    0    0  0.71747790652E+01 -0.31281203802E+01 -0.36593796693E+01  0.86402344477E+01  0.00000000000E+00 0. -1.
        -12    1    4    4    0    0 -0.15567637440E+03  0.11125236397E+03 -0.18477095606E+03  0.26599347405E+03  0.00000000000E+00 0.  1.
</event>
<event>
12    1  0.8728348E-002  0.2047871E+03  0.7818608E-02  0.1146107E+00
         21   -1    0    0  503  502  0.00000000000E+00  0.00000000000E+00  0.12337216481E+03  0.12337216481E+03  0.00000000000E+00 0.  1.
         21   -1    0    0  501  503 -0.00000000000E+00 -0.00000000000E+00 -0.41667497014E+03  0.41667497014E+03  0.00000000000E+00 0.  1.
          6    2    1    2  501    0 -0.82679799621E+02  0.73148725040E+02 -0.26412897857E+03  0.33319240770E+03  0.17048864476E+03 0.  0.
         24    2    3    3    0    0 -0.51970719209E+02  0.87705899652E+02 -0.93180172166E+02  0.15883489177E+03  0.78439134810E+02 0.  0.
         -6    2    1    2    0  502  0.82679799621E+02 -0.73148725040E+02 -0.29173826760E+02  0.20685472725E+03  0.17248501610E+03 0.  0.
        -24    2    5    5    0    0  0.19783178116E+02 -0.38590678573E+02 -0.74261322967E+02  0.12197118417E+03  0.86496306679E+02 0.  0.
          5    1    3    3  501    0 -0.30709080412E+02 -0.14557174612E+02 -0.17094880640E+03  0.17435751593E+03  0.47000000000E+01 0. -1.
        -13    1    4    4    0    0 -0.64822434843E+02  0.37981783496E+02 -0.69243654003E+02  0.10217263604E+03  0.00000000000E+00 0.  1.
         14    1    4    4    0    0  0.12851715634E+02  0.49724116155E+02 -0.23936518163E+02  0.56662255726E+02  0.00000000000E+00 0. -1.
         -5    1    5    5    0  502  0.62896621505E+02 -0.34558046467E+02  0.45087496207E+02  0.84883543084E+02  0.47000000000E+01 0.  1.
         13    1    6    6    0    0  0.12637414443E+02  0.19934463703E+02 -0.55154847128E+02  0.59992868314E+02  0.00000000000E+00 0. -1.
        -14    1    6    6    0    0  0.71457636730E+01 -0.58525142275E+02 -0.19106475839E+02  0.61978315852E+02  0.00000000000E+00 0.  1.
</event>
<event>
12    1  0.8728348E-002  0.1993410E+03  0.7818608E-02  0.1150331E+00
         21   -1    0    0  503  502  0.00000000000E+00  0.00000000000E+00  0.34038697180E+03  0.34038697180E+03  0.00000000000E+00 0.  1.
         21   -1    0    0  501  503 -0.00000000000E+00 -0.00000000000E+00 -0.16105645638E+03  0.16105645638E+03  0.00000000000E+00 0.  1.
          6    2    1    2  501    0  0.78596122424E+02  0.63498591860E+02 -0.41966755516E+02  0.20371070880E+03  0.17183545235E+03 0.  0.
         24    2    3    3    0    0  0.59919806343E+02  0.10312709364E+03 -0.60121855051E+02  0.15605653191E+03  0.80705780849E+02 0.  0.
         -6    2    1    2    0  502 -0.78596122424E+02 -0.63498591860E+02  0.22129727094E+03  0.29773271938E+03  0.17164751218E+03 0.  0.
        -24    2    5    5    0    0 -0.78782132660E+02 -0.13127315342E+02  0.78041371659E+02  0.14580628068E+03  0.93755346309E+02 0.  0.
          5    1    3    3  501    0  0.18676316082E+02 -0.39628501783E+02  0.18155099536E+02  0.47654176891E+02  0.47000000000E+01 0. -1.
        -13    1    4    4    0    0  0.55469152199E+02  0.41088663936E+02 -0.63462746557E+02  0.93768999943E+02  0.00000000000E+00 0.  1.
         14    1    4    4    0    0  0.44506541438E+01  0.62038429708E+02  0.33408915056E+01  0.62287531970E+02  0.00000000000E+00 0. -1.
         -5    1    5    5    0  502  0.18601023564E+00 -0.50371276519E+02  0.14325589928E+03  0.15192643870E+03  0.47000000000E+01 0.  1.
         11    1    6    6    0    0  0.14024319884E+02  0.20166281843E+02  0.15278864258E+02  0.28927567554E+02  0.00000000000E+00 0. -1.
        -12    1    6    6    0    0 -0.92806452544E+02 -0.33293597185E+02  0.62762507401E+02  0.11687871313E+03  0.00000000000E+00 0.  1.
</event>
<event>
12    1  0.8728348E-002  0.1774326E+03  0.7818608E-02  0.1170324E+00
         21   -1    0    0  501  502  0.00000000000E+00  0.00000000000E+00  0.20831177187E+03  0.20831177187E+03  0.00000000000E+00 0. -1.
         21   -1    0    0  502  503 -0.00000000000E+00 -0.00000000000E+00 -0.16508075101E+03  0.16508075101E+03  0.00000000000E+00 0.  1.
         -6    2    1    2    0  503  0.40672500566E+02  0.21801401519E+02 -0.32737759244E+02  0.18042750352E+03  0.17132650039E+03 0.  0.
        -24    2    3    3    0    0 -0.29788815215E+02 -0.21463214357E+02  0.41556244502E+01  0.89764193586E+02  0.81806467673E+02 0.  0.
          6    2    1    2  501    0 -0.40672500566E+02 -0.21801401519E+02  0.75968780110E+02  0.19296501936E+03  0.17127372751E+03 0.  0.
         24    2    5    5    0    0  0.41363142789E+02  0.16570567127E+02  0.69171350279E+02  0.10202245611E+03  0.60319255420E+02 0.  0.
          5    1    5    5  501    0 -0.82035643355E+02 -0.38371968646E+02  0.67974298309E+01  0.90942563251E+02  0.47000000000E+01 0. -1.
        -11    1    6    6    0    0  0.24470970010E+01  0.25862975801E+02  0.52698743397E+02  0.58754058214E+02  0.00000000000E+00 0.  1.
         12    1    6    6    0    0  0.38916045788E+02 -0.92924086742E+01  0.16472606882E+02  0.43268397893E+02  0.00000000000E+00 0. -1.
         -5    1    3    3    0  503  0.70461315781E+02  0.43264615876E+02 -0.36893383694E+02  0.90663309938E+02  0.47000000000E+01 0.  1.
         13    1    4    4    0    0  0.72268517100E+00  0.10381802338E+02  0.34627995911E+02  0.36158017015E+02  0.00000000000E+00 0. -1.
        -14    1    4    4    0    0 -0.30511500386E+02 -0.31845016695E+02 -0.30472371461E+02  0.53606176571E+02  0.00000000000E+00 0.  1.
</event>
<event>
12    1  0.8728348E-002  0.1743948E+03  0.7818608E-02  0.1173382E+00
         21   -1    0    0  503  502  0.00000000000E+00  0.00000000000E+00  0.18996949409E+02  0.18996949409E+02  0.00000000000E+00 0. -1.
         21   -1    0    0  501  503 -0.00000000000E+00 -0.00000000000E+00 -0.18061225211E+04  0.18061225211E+04  0.00000000000E+00 0. -1.
          6    2    1    2  501    0  0.13488014918E+02  0.26465579730E+02 -0.12026128092E+04  0.12151918087E+04  0.17184647123E+03 0.  0.
         24    2    3    3    0    0  0.17527404877E+01  0.36016296811E+02 -0.33462661083E+03  0.34706102167E+03  0.84712090947E+02 0.  0.
         -6    2    1    2    0  502 -0.13488014918E+02 -0.26465579730E+02 -0.58451276247E+03  0.60992766176E+03  0.17168060357E+03 0.  0.
        -24    2    5    5    0    0 -0.53099164261E+02 -0.74677424340E+02 -0.35240307067E+03  0.36953127215E+03  0.63001570842E+02 0.  0.
          5    1    3    3  501    0  0.11735274431E+02 -0.95507170812E+01 -0.86798619838E+03  0.86813078706E+03  0.47000000000E+01 0. -1.
        -11    1    4    4    0    0  0.62081464727E+01 -0.24393311903E+02 -0.16573298512E+03  0.16763352023E+03  0.00000000000E+00 0.  1.
         12    1    4    4    0    0 -0.44554059850E+01  0.60409608715E+02 -0.16889362570E+03  0.17942750143E+03  0.00000000000E+00 0. -1.
         -5    1    5    5    0  502  0.39611149342E+02  0.48211844610E+02 -0.23210969180E+03  0.24039638961E+03  0.47000000000E+01 0.  1.
         11    1    6    6    0    0 -0.65233386822E+02 -0.49721945066E+02 -0.23532965401E+03  0.24921419028E+03  0.00000000000E+00 0. -1.
        -12    1    6    6    0    0  0.12134222562E+02 -0.24955479274E+02 -0.11707341666E+03  0.12031708187E+03  0.00000000000E+00 0.  1.
</event>
<event>
12    1  0.8728348E-002  0.1838193E+03  0.7818608E-02  0.1164174E+00
         21   -1    0    0  501  502  0.00000000000E+00  0.00000000000E+00  0.36774156003E+03  0.36774156003E+03  0.00000000000E+00 0.  1.
         21   -1    0    0  502  503 -0.00000000000E+00 -0.00000000000E+00 -0.11770816091E+03  0.11770816091E+03  0.00000000000E+00 0.  1.
         -6    2    1    2    0  503 -0.44987843443E+02 -0.46203467263E+02  0.11229729853E+02  0.18409157592E+03  0.17206084693E+03 0.  0.
        -24    2    3    3    0    0 -0.46013748215E+02  0.25569210861E+02 -0.31953412469E+02  0.10019137576E+03  0.79033167974E+02 0.  0.
          6    2    1    2  501    0  0.44987843443E+02  0.46203467263E+02  0.23880366927E+03  0.30135814502E+03  0.17213620383E+03 0.  0.
         24    2    5    5    0    0  0.32522314271E+02  0.18959253151E+02  0.32669888821E+02  0.93005410306E+02  0.78520892157E+02 0.  0.
          5    1    5    5  501    0  0.12465529172E+02  0.27244214112E+02  0.20613378045E+03  0.20835273472E+03  0.47000000000E+01 0. -1.
        -13    1    6    6    0    0  0.47057523977E+02 -0.70716037292E+01  0.40157042752E+02  0.62265610289E+02  0.00000000000E+00 0.  1.
         14    1    6    6    0    0 -0.14535209706E+02  0.26030856880E+02 -0.74871539309E+01  0.30739800017E+02  0.00000000000E+00 0. -1.
         -5    1    3    3    0  503  0.10259047720E+01 -0.71772678123E+02  0.43183142322E+02  0.83900200157E+02  0.47000000000E+01 0.  1.
         13    1    4    4    0    0  0.22333931510E+01  0.34045250153E+02  0.10151728463E+02  0.35596694984E+02  0.00000000000E+00 0. -1.
        -14    1    4    4    0    0 -0.48247141366E+02 -0.84760392925E+01 -0.42105140932E+02  0.64594680779E+02  0.00000000000E+00 0.  1.
</event>
<event>
12    1  0.8728348E-002  0.2217760E+03  0.7818608E-02  0.1132979E+00
         21   -1    0    0  501  502  0.00000000000E+00  0.00000000000E+00  0.14320290737E+03  0.14320290737E+03  0.00000000000E+00 0. -1.
         21   -1    0    0  502  503 -0.00000000000E+00 -0.00000000000E+00 -0.49628411254E+03  0.49628411254E+03  0.00000000000E+00 0. -1.
         -6    2    1    2    0  503 -0.51453387048E+02  0.12980592856E+03 -0.35656767596E+03  0.41991082437E+03  0.17230079153E+03 0.  0.
        -24    2    3    3    0    0  0.20962475566E+02  0.12143245619E+03 -0.21525630208E+03  0.26083484698E+03  0.80711058816E+02 0.  0.
          6    2    1    2  501    0  0.51453387048E+02 -0.12980592856E+03  0.34864707844E+01  0.21957619554E+03  0.16942408341E+03 0.  0.
         24    2    5    5    0    0  0.59657473059E+02 -0.14044770079E+03 -0.37274279312E+02  0.17640116697E+03  0.80270972722E+02 0.  0.
          5    1    5    5  501    0 -0.82040860114E+01  0.10641772224E+02  0.40760750097E+02  0.43175028567E+02  0.47000000000E+01 0. -1.
        -11    1    6    6    0    0  0.45633496380E+02 -0.10607004499E+03 -0.62706629993E+02  0.13139783819E+03  0.00000000000E+00 0.  1.
         12    1    6    6    0    0  0.14023976680E+02 -0.34377655791E+02  0.25432350681E+02  0.45003328774E+02  0.00000000000E+00 0. -1.
         -5    1    3    3    0  503 -0.72415862614E+02  0.83734723711E+01 -0.14131137388E+03  0.15907597740E+03  0.47000000000E+01 0.  1.
         13    1    4    4    0    0  0.31438827501E+02  0.10866456855E+03 -0.12298812430E+03  0.16710017071E+03  0.00000000000E+00 0. -1.
        -14    1    4    4    0    0 -0.10476351935E+02  0.12767887645E+02 -0.92268177780E+02  0.93734676271E+02  0.00000000000E+00 0.  1.
</event>
<event>
12    1  0.8728348E-002  0.2189480E+03  0.7818608E-02  0.1134801E+00
         21   -1    0    0  503  502  0.00000000000E+00  0.00000000000E+00  0.17868067820E+03  0.17868067820E+03  0.00000000000E+00 0.  1.
         21   -1    0    0  501  503 -0.00000000000E+00 -0.00000000000E+00 -0.26879809825E+03  0.26879809825E+03  0.00000000000E+00 0. -1.
          6    2    1    2  501    0  0.13097130319E+03 -0.34300172495E+02 -0.61064676743E+02  0.22730404533E+03  0.17207048029E+03 0.  0.
         24    2    3    3    0    0  0.95682898195E+02  0.44940099400E+02 -0.32099475077E+02  0.13573240603E+03  0.78854804581E+02 0.  0.
         -6    2    1    2    0  502 -0.13097130319E+03  0.34300172495E+02 -0.29052743305E+02  0.22017473112E+03  0.17118079986E+03 0.  0.
        -24    2    5    5    0    0 -0.35737911817E+02  0.37033392428E+02 -0.67262502911E+02  0.11741800360E+03  0.81326949867E+02 0.  0.
          5    1    3    3  501    0  0.35288404990E+02 -0.79240271894E+02 -0.28965201666E+02  0.91571639301E+02  0.47000000000E+01 0. -1.
        -13    1    4    4    0    0  0.86424766087E+01 -0.18077873645E+02  0.72313583859E+01  0.21302452008E+02  0.00000000000E+00 0.  1.
         14    1    4    4    0    0  0.87040421586E+02  0.63017973045E+02 -0.39330833463E+02  0.11442995402E+03  0.00000000000E+00 0. -1.
         -5    1    5    5    0  502 -0.95233391368E+02 -0.27332199337E+01  0.38209759606E+02  0.10275672753E+03  0.47000000000E+01 0.  1.
         13    1    6    6    0    0  0.73953744386E+01  0.56408922703E+01  0.16014104099E+02  0.18519253732E+02  0.00000000000E+00 0. -1.
        -14    1    6    6    0    0 -0.43133286255E+02  0.31392500158E+02 -0.83276607010E+02  0.98898749863E+02  0.00000000000E+00 0.  1.
</event>
<event>
12    1  0.8728348E-002  0.2087478E+03  0.7818608E-02  0.1142777E+00
         21   -1    0    0  503  502  0.00000000000E+00  0.00000000000E+00  0.48171656273E+02  0.48171656273E+02  0.00000000000E+00 0. -1.
         21   -1    0    0  501  503 -0.00000000000E+00 -0.00000000000E+00 -0.11710960386E+04  0.11710960386E+04  0.00000000000E+00 0. -1.
          6    2    1    2  501    0 -0.20135181201E+02 -0.11574870278E+03 -0.85592866034E+03  0.88101619036E+03  0.17254700338E+03 0.  0.
         24    2    3    3    0    0 -0.22018618688E+00 -0.12697397368E+03 -0.83885991706E+03  0.85210173498E+03  0.79176813694E+02 0.  0.
         -6    2    1    2    0  502  0.20135181201E+02  0.11574870278E+03 -0.26699572200E+03  0.33825150453E+03  0.17124303498E+03 0.  0.
        -24    2    5    5    0    0  0.47876523090E+02  0.76013921907E+02 -0.26483654968E+03  0.28951561543E+03  0.74904043570E+02 0.  0.
          5    1    3    3  501    0 -0.19914995014E+02  0.11225270895E+02 -0.17068743275E+02  0.28914455382E+02  0.47000000000E+01 0. -1.
        -11    1    4    4    0    0  0.59781074646E+01 -0.16798645863E+02 -0.37006549972E+03  0.37049481286E+03  0.00000000000E+00 0.  1.
         12    1    4    4    0    0 -0.61982936515E+01 -0.11017532782E+03 -0.46879441734E+03  0.48160692212E+03  0.00000000000E+00 0. -1.
         -5    1    5    5    0  502 -0.27741341889E+02  0.39734780877E+02 -0.21591723244E+01  0.48735889099E+02  0.47000000000E+01 0.  1.
         11    1    6    6    0    0  0.14254820958E+01  0.26772269698E+02 -0.17493724946E+03  0.17697973803E+03  0.00000000000E+00 0. -1.
        -12    1    6    6    0    0  0.46451040994E+02  0.49241652209E+02 -0.89899300215E+02  0.11253587739E+03  0.00000000000E+00 0.  1.
</event>
<event>
12    1  0.8728348E-002  0.2205467E+03  0.7818608E-02  0.1135792E+00
         21   -1    0    0  501  502  0.00000000000E+00  0.00000000000E+00  0.73882475006E+02  0.73882475006E+02  0.00000000000E+00 0.  1.
         21   -1    0    0  502  503 -0.00000000000E+00 -0.00000000000E+00 -0.14784566173E+04  0.14784566173E+04  0.00000000000E+00 0.  1.
         -6    2    1    2    0  503  0.11359871800E+03  0.27284066444E+02 -0.12843423430E+04  0.13011488827E+04  0.17263855849E+03 0.  0.
        -24    2    3    3    0    0  0.18689554052E+02 -0.40476191676E+02 -0.53575087375E+03  0.54351408952E+03  0.79943387841E+02 0.  0.
          6    2    1    2  501    0 -0.11359871800E+03 -0.27284066444E+02 -0.12023179930E+03  0.25119020962E+03  0.18706081052E+03 0.  0.
         24    2    5    5    0    0 -0.96646544149E+02  0.20332383155E+02 -0.14617050472E+03  0.19418486856E+03  0.81166411945E+02 0.  0.
          5    1    5    5  501    0 -0.16952173855E+02 -0.47616449599E+02  0.25938705419E+02  0.57005341063E+02  0.47000000000E+01 0. -1.
        -13    1    6    6    0    0 -0.64542060549E+02  0.18766559144E+02 -0.29921786553E+02  0.73574279694E+02  0.00000000000E+00 0.  1.
         14    1    6    6    0    0 -0.32104483600E+02  0.15658240117E+01 -0.11624871816E+03  0.12061058886E+03  0.00000000000E+00 0. -1.
         -5    1    3    3    0  503  0.94909163952E+02  0.67760258120E+02 -0.74859146927E+03  0.75763479319E+03  0.47000000000E+01 0.  1.
         11    1    4    4    0    0  0.50075062796E+02 -0.21226180720E+02 -0.29655758403E+03  0.30150367047E+03  0.00000000000E+00 0. -1.
        -12    1    4    4    0    0 -0.31385508744E+02 -0.19250010955E+02 -0.23919328972E+03  0.24201041904E+03  0.00000000000E+00 0.  1.
</event>
<event>
12    1  0.8728348E-002  0.2613120E+03  0.7818608E-02  0.1106476E+00
         21   -1    0    0  503  502  0.00000000000E+00  0.00000000000E+00  0.10823449515E+04  0.10823449515E+04  0.00000000000E+00 0.  1.
         21   -1    0    0  501  503 -0.00000000000E+00 -0.00000000000E+00 -0.77060009776E+02  0.77060009776E+02  0.00000000000E+00 0.  1.
          6    2    1    2  501    0  0.17137687744E+03 -0.96874031327E+02  0.25350695751E+03  0.36350668071E+03  0.17063621346E+03 0.  0.
         24    2    3    3    0    0  0.16051012264E+03 -0.22691082289E+02  0.20332226526E+03  0.27316405718E+03  0.83667639531E+02 0.  0.
         -6    2    1    2    0  502 -0.17137687744E+03  0.96874031327E+02  0.75177798423E+03  0.79589828059E+03  0.17184098289E+03 0.  0.
        -24    2    5    5    0    0 -0.12003324014E+03  0.41262092013E+02  0.26886582530E+03  0.30706794179E+03  0.76755129378E+02 0.  0.
          5    1    3    3  501    0  0.10866754808E+02 -0.74182949038E+02  0.50184692258E+02  0.90342623523E+02  0.47000000000E+01 0. -1.
        -11    1    4    4    0    0  0.56474921839E+02  0.25446723928E+02  0.40394171537E+02  0.73950264703E+02  0.00000000000E+00 0.  1.
         12    1    4    4    0    0  0.10403520080E+03 -0.48137806217E+02  0.16292809372E+03  0.19921379248E+03  0.00000000000E+00 0. -1.
         -5    1    5    5    0  502 -0.51343637305E+02  0.55611939314E+02  0.48291215892E+03  0.48883033879E+03  0.47000000000E+01 0.  1.
         11    1    6    6    0    0 -0.25822713686E+02 -0.40393708956E+01  0.10163434752E+02  0.28043260604E+02  0.00000000000E+00 0. -1.
        -12    1    6    6    0    0 -0.94210526453E+02  0.45301462908E+02  0.25870239055E+03  0.27902468119E+03  0.00000000000E+00 0.  1.
</event>
<event>
12    1  0.8728348E-002  0.2134763E+03  0.7818608E-02  0.1139319E+00
         21   -1    0    0  501  502  0.00000000000E+00  0.00000000000E+00  0.97430603515E+03  0.97430603515E+03  0.00000000000E+00 0. -1.
         21   -1    0    0  502  503 -0.00000000000E+00 -0.00000000000E+00 -0.46285899332E+02  0.46285899332E+02  0.00000000000E+00 0.  1.
         -6    2    1    2    0  503 -0.11832520724E+03 -0.40468628915E+02  0.47746818232E+03  0.52202477871E+03  0.16998658732E+03 0.  0.
        -24    2    3    3    0    0 -0.68078918733E+02  0.20353448576E+02  0.14089346920E+03  0.17629563309E+03  0.78614111581E+02 0.  0.
          6    2    1    2  501    0  0.11832520724E+03  0.40468628915E+02  0.45055195350E+03  0.49856715577E+03  0.17301324058E+03 0.  0.
         24    2    5    5    0    0  0.54021568471E+01  0.43293018102E+02  0.13518955960E+03  0.16355204870E+03  0.81052988176E+02 0.  0.
          5    1    5    5  501    0  0.11292305039E+03 -0.28243891872E+01  0.31536239389E+03  0.33501510707E+03  0.47000000000E+01 0. -1.
        -11    1    6    6    0    0  0.25342116217E+02  0.52767185657E+02  0.54795366827E+02  0.80181861803E+02  0.00000000000E+00 0.  1.
         12    1    6    6    0    0 -0.19939959370E+02 -0.94741675545E+01  0.80394192778E+02  0.83370186895E+02  0.00000000000E+00 0. -1.
         -5    1    3    3    0  503 -0.50246288505E+02 -0.60822077491E+02  0.33657471312E+03  0.34572914562E+03  0.47000000000E+01 0.  1.
         11    1    4    4    0    0  0.11790282685E+02  0.21259209780E+02  0.47843198380E+02  0.53665038875E+02  0.00000000000E+00 0. -1.
        -12    1    4    4    0    0 -0.79869201418E+02 -0.90576120434E+00  0.93050270821E+02  0.12263059422E+03  0.00000000000E+00 0.  1.
</event>
<event>
12    1  0.8728348E-002  0.2435175E+03  0.7818608E-02  0.1117645E+00
         21   -1    0    0  503  502  0.00000000000E+00  0.00000000000E+00  0.22691635460E+03  0.22691635460E+03  0.00000000000E+00 0.  1.
         21   -1    0    0  501  503 -0.00000000000E+00 -0.00000000000E+00 -0.56292378968E+03  0.56292378968E+03  0.00000000000E+00 0. -1.
          6    2    1    2  501    0 -0.52504464126E+01 -0.17135978983E+03 -0.45744135836E+03  0.51772440767E+03  0.17144742984E+03 0.  0.
         24    2    3    3    0    0 -0.27450304955E+02 -0.56831619265E+02 -0.10386105288E+03  0.14536616888E+03  0.79754953189E+02 0.  0.
         -6    2    1    2    0  502  0.52504464126E+01  0.17135978983E+03  0.12143392329E+03  0.27211573661E+03  0.17294227832E+03 0.  0.
        -24    2    5    5    0    0  0.25721730463E+02  0.86668575009E+02 -0.23042162164E+01  0.12070605229E+03  0.79947434830E+02 0.  0.
          5    1    3    3  501    0  0.22199858542E+02 -0.11452817057E+03 -0.35358030548E+03  0.37235823879E+03  0.47000000000E+01 0. -1.
        -11    1    4    4    0    0 -0.19489484638E+02 -0.48417900486E+02 -0.11684156192E+03  0.12796907318E+03  0.00000000000E+00 0.  1.
         12    1    4    4    0    0 -0.79608203172E+01 -0.84137187795E+01  0.12980509037E+02  0.17397095697E+02  0.00000000000E+00 0. -1.
         -5    1    5    5    0  502 -0.20471284050E+02  0.84691214822E+02  0.12373813950E+03  0.15140968432E+03  0.47000000000E+01 0.  1.
         11    1    6    6    0    0 -0.10169972742E+02 -0.38558481199E+01 -0.19011802582E+02  0.21903071651E+02  0.00000000000E+00 0. -1.
        -12    1    6    6    0    0  0.35891703205E+02  0.90524423129E+02  0.16707586366E+02  0.98802980643E+02  0.00000000000E+00 0.  1.
</event>
<event>
12    1  0.8728348E-002  0.1818010E+03  0.7818608E-02  0.1166086E+00
         21   -1    0    0  501  502  0.00000000000E+00  0.00000000000E+00  0.88934098315E+02  0.88934098315E+02  0.00000000000E+00 0. -1.
         21   -1    0    0  502  503 -0.00000000000E+00 -0.00000000000E+00 -0.84317650624E+03  0.84317650624E+03  0.00000000000E+00 0. -1.
         -6    2    1    2    0  503  0.51955985293E+02 -0.26296441003E+02 -0.72572218450E+03  0.74814725008E+03  0.17222279612E+03 0.  0.
        -24    2    3    3    0    0  0.30828800999E+02 -0.71042399397E+02 -0.64280625329E+03  0.65147408753E+03  0.72257663735E+02 0.  0.
          6    2    1    2  501    0 -0.51955985293E+02  0.26296441003E+02 -0.28520223424E+02  0.18396335448E+03  0.17215744372E+03 0.  0.
         24    2    5    5    0    0 -0.17132642682E+02 -0.40102307679E+02 -0.53381194501E+02  0.10483297535E+03  0.78985304131E+02 0.  0.
          5    1    5    5  501    0 -0.34823342612E+02  0.66398748682E+02  0.24860971078E+02  0.79130379122E+02  0.47000000000E+01 0. -1.
        -11    1    6    6    0    0 -0.22531293093E+02 -0.24521277452E+01 -0.61845235482E+02  0.65867330678E+02  0.00000000000E+00 0.  1.
         12    1    6    6    0    0  0.53986504109E+01 -0.37650179933E+02  0.84640409802E+01  0.38965644676E+02  0.00000000000E+00 0. -1.
         -5    1    3    3    0  503  0.21127184295E+02  0.44745958394E+02 -0.82915931211E+02  0.96673162550E+02  0.47000000000E+01 0.  1.
         13    1    4    4    0    0  0.35746948619E+02 -0.18958795691E+02 -0.44605068332E+03  0.44788223046E+03  0.00000000000E+00 0. -1.
        -14    1    4    4    0    0 -0.49181476203E+01 -0.52083603706E+02 -0.19675556997E+03  0.20359185707E+03  0.00000000000E+00 0.  1.
</event>
<event>
12    1  0.8728348E-002  0.2051972E+03  0.7818608E-02  0.1145689E+00
         21   -1    0    0  503  502  0.00000000000E+00  0.00000000000E+00  0.32150161755E+03  0.32150161755E+03  0.00000000000E+00 0. -1.
         21   -1    0    0  501  503 -0.00000000000E+00 -0.00000000000E+00 -0.37141898966E+03  0.37141898966E+03  0.00000000000E+00 0.  1.
          6    2    1    2  501    0  0.87784721511E+02 -0.68434184676E+02 -0.30416703934E+03  0.36619630057E+03  0.17085885335E+03 0.  0.
         24    2    3    3    0    0  0.99405950724E+02 -0.10107202005E+03 -0.27975223357E+03  0.32355296573E+03  0.79549438490E+02 0.  0.
         -6    2    1    2    0  502 -0.87784721511E+02  0.68434184676E+02  0.25424966723E+03  0.32672430663E+03  0.17238469854E+03 0.  0.
        -24    2    5    5    0    0 -0.52029330029E+02 -0.33269827042E+02  0.12482740916E+03  0.15821803106E+03  0.75080827795E+02 0.  0.
          5    1    3    3  501    0 -0.11621229213E+02  0.32637835373E+02 -0.24414805769E+02  0.42643334848E+02  0.47000000000E+01 0. -1.
        -13    1    4    4    0    0  0.88325743043E+02 -0.34171936088E+02 -0.16660546607E+03  0.19164169543E+03  0.00000000000E+00 0.  1.
         14    1    4    4    0    0  0.11080207681E+02 -0.66900083962E+02 -0.11314676750E+03  0.13191127030E+03  0.00000000000E+00 0. -1.
         -5    1    5    5    0  502 -0.35755391483E+02  0.10170401172E+03  0.12942225808E+03  0.16850627557E+03  0.47000000000E+01 0.  1.
         13    1    6    6    0    0 -0.53159481385E+02  0.92779856380E+01  0.60332341503E+02  0.80944443354E+02  0.00000000000E+00 0. -1.
        -14    1    6    6    0    0  0.11301513564E+01 -0.42547812680E+02  0.64495067654E+02  0.77273587710E+02  0.00000000000E+00 0.  1.
</event>
<event>
12    1  0.8728348E-002  0.2566771E+03  0.7818608E-02  0.1109263E+00
         21   -1    0    0  501  502  0.00000000000E+00  0.00000000000E+00  0.23277907124E+04  0.23277907124E+04  0.00000000000E+00 0. -1.
         21   -1    0    0  502  503 -0.00000000000E+00 -0.00000000000E+00 -0.51814408264E+02  0.51814408264E+02  0.00000000000E+00 0. -1.
         -6    2    1    2    0  503  0.14674445574E+03 -0.12198144135E+03  0.33435526805E+03  0.42109156199E+03  0.17062019511E+03 0.  0.
        -24    2    3    3    0    0  0.92167100888E+02 -0.13870461683E+03  0.18605188040E+03  0.26211251604E+03  0.79711502631E+02 0.  0.
          6    2    1    2  501    0 -0.14674445574E+03  0.12198144135E+03  0.19416210361E+04  0.19585135586E+04  0.17166742387E+03 0.  0.
         24    2    5    5    0    0 -0.68132191562E+02  0.39127677686E+01  0.57019210843E+03  0.57976068257E+03  0.79662433167E+02 0.  0.
          5    1    5    5  501    0 -0.78612264180E+02  0.11806867358E+03  0.13714289276E+04  0.13787528761E+04  0.47000000000E+01 0. -1.
        -13    1    6    6    0    0  0.37908089531E+01  0.19415672081E+02  0.41501573783E+02  0.45975201808E+02  0.00000000000E+00 0.  1.
         14    1    6    6    0    0 -0.71923000515E+02 -0.15502904312E+02  0.52869053465E+03  0.53378548076E+03  0.00000000000E+00 0. -1.
         -5    1    3    3    0  503  0.54577354855E+02  0.16723175474E+02  0.14830338765E+03  0.15897904595E+03  0.47000000000E+01 0.  1.
         13    1    4    4    0    0  0.10297245488E+03 -0.10202262625E+03  0.15967674932E+03  0.21565854262E+03  0.00000000000E+00 0. -1.
        -14    1    4    4    0    0 -0.10805353994E+02 -0.36681990573E+02  0.26375131080E+02  0.46453973423E+02  0.00000000000E+00 0.  1.
</event>
<event>
12    1  0.8728348E-002  0.1849302E+03  0.7818608E-02  0.1163507E+00
         21   -1    0    0  503  502  0.00000000000E+00  0.00000000000E+00  0.14121184497E+03  0.14121184497E+03  0.00000000000E+00 0. -1.
         21   -1    0    0  501  503 -0.00000000000E+00 -0.00000000000E+00 -0.27046436712E+03  0.27046436712E+03  0.00000000000E+00 0.  1.
          6    2    1    2  501    0 -0.62134237670E+02  0.26209778357E+02 -0.13396504759E+03  0.22835457703E+03  0.17219629178E+03 0.  0.
         24    2    3    3    0    0 -0.64093841270E+02 -0.45890445229E+02 -0.71054213502E+02  0.13253106565E+03  0.79384057938E+02 0.  0.
         -6    2    1    2    0  502  0.62134237670E+02 -0.26209778357E+02  0.47125254354E+01  0.18332163506E+03  0.17040245894E+03 0.  0.
        -24    2    5    5    0    0 -0.19661844174E+02 -0.43666904362E+02  0.25451389376E+02  0.97022499892E+02  0.80450019337E+02 0.  0.
          5    1    3    3  501    0  0.19596035993E+01  0.72100223585E+02 -0.62910834086E+02  0.95823511377E+02  0.47000000000E+01 0. -1.
        -11    1    4    4    0    0 -0.39909545823E+02  0.17742309711E+02 -0.24734384567E+02  0.50193138790E+02  0.00000000000E+00 0.  1.
         12    1    4    4    0    0 -0.24184295447E+02 -0.63632754940E+02 -0.46319828935E+02  0.82337926863E+02  0.00000000000E+00 0. -1.
         -5    1    5    5    0  502  0.81796081844E+02  0.17457126005E+02 -0.20738863940E+02  0.86299135169E+02  0.47000000000E+01 0.  1.
         13    1    6    6    0    0  0.52143141175E+01 -0.21485880932E+02  0.50633233257E+02  0.55249945350E+02  0.00000000000E+00 0. -1.
        -14    1    6    6    0    0 -0.24876158291E+02 -0.22181023429E+02 -0.25181843881E+02  0.41772554542E+02  0.00000000000E+00 0.  1.
</event>
<event>
12    1  0.8728348E-002  0.1827026E+03  0.7818608E-02  0.1165281E+00
         21   -1    0    0  501  502  0.00000000000E+00  0.00000000000E+00  0.15224940660E+03  0.15224940660E+03  0.00000000000E+00 0.  1.
         21   -1    0    0  502  503 -0.00000000000E+00 -0.00000000000E+00 -0.22866312880E+03  0.22866312880E+03  0.00000000000E+00 0. -1.
         -6    2    1    2    0  503  0.33347121102E+02  0.50482562024E+02 -0.77579886119E+02  0.19849147791E+03  0.17239405012E+03 0.  0.
        -24    2    3    3    0    0  0.55368732882E+02 -0.29103789482E+02 -0.57288321847E+02  0.11332824457E+03  0.75157248846E+02 0.  0.
          6    2    1    2  501    0 -0.33347121102E+02 -0.50482562024E+02  0.11661639123E+01  0.18242105750E+03  0.17209172765E+03 0.  0.
         24    2    5    5    0    0  0.12020776952E+01 -0.30311698397E+02 -0.64164616467E+02  0.10567008524E+03  0.78286811522E+02 0.  0.
          5    1    5    5  501    0 -0.34549198797E+02 -0.20170863627E+02  0.65330780379E+02  0.76750972254E+02  0.47000000000E+01 0. -1.
        -11    1    6    6    0    0 -0.78449068937E+01 -0.10621378947E+02  0.17077947412E+02  0.21587323657E+02  0.00000000000E+00 0.  1.
         12    1    6    6    0    0  0.90469845889E+01 -0.19690319450E+02 -0.81242563878E+02  0.84082761585E+02  0.00000000000E+00 0. -1.
         -5    1    3    3    0  503 -0.22021611780E+02  0.79586351507E+02 -0.20291564272E+02  0.85163233335E+02  0.47000000000E+01 0.  1.
         11    1    4    4    0    0 -0.13687037267E+00 -0.37603094660E+02 -0.39234416226E+02  0.54344741035E+02  0.00000000000E+00 0. -1.
        -12    1    4    4    0    0  0.55505603255E+02  0.84993051780E+01 -0.18053905621E+02  0.58983503536E+02  0.00000000000E+00 0.  1.
</event>
<event>
12    1  0.8728348E-002  0.2095573E+03  0.7818608E-02  0.1142213E+00
         21   -1    0    0  503  502  0.00000000000E+00  0.00000000000E+00  0.13524789570E+03  0.13524789570E+03  0.00000000000E+00 0.  1.
         21   -1    0    0  501  503 -0.00000000000E+00 -0.00000000000E+00 -0.32914839281E+03  0.32914839281E+03  0.00000000000E+00 0.  1.
          6    2    1    2  501    0 -0.10802187207E+03 -0.52468989245E+02 -0.63352147340E+02  0.21750130674E+03  0.16991646237E+03 0.  0.
         24    2    3    3    0    0 -0.79269049884E+02 -0.65146516768E+02  0.15853345915E+02  0.13216055066E+03  0.81776718305E+02 0.  0.
         -6    2    1    2    0  502  0.10802187207E+03  0.52468989245E+02 -0.13054834977E+03  0.24689498176E+03  0.17173392417E+03 0.  0.
        -24    2    5    5    0    0  0.98240289858E+02 -0.46115984136E+01 -0.28808566501E+02  0.12973293015E+03  0.79550476235E+02 0.  0.
          5    1    3    3  501    0 -0.28752822190E+02  0.12677527523E+02 -0.79205493255E+02  0.85340756088E+02  0.47000000000E+01 0. -1.
        -11    1    4    4    0    0 -0.85554578911E+02 -0.48930913804E+02 -0.12038254830E+02  0.99291187311E+02  0.00000000000E+00 0.  1.
         12    1    4    4    0    0  0.62855290272E+01 -0.16215602963E+02  0.27891600745E+02  0.32869363345E+02  0.00000000000E+00 0. -1.
         -5    1    5    5    0  502  0.97815822155E+01  0.57080587659E+02 -0.10173978327E+03  0.11716205162E+03  0.47000000000E+01 0.  1.
         11    1    6    6    0    0 -0.58512470992E+01  0.17342842141E+02 -0.12363561791E+02  0.22087755122E+02  0.00000000000E+00 0. -1.
        -12    1    6    6    0    0  0.10409153696E+03 -0.21954440555E+02 -0.16445004710E+02  0.10764517502E+03  0.00000000000E+00 0.  1.
</event>
<event>
12    1  0.8728348E-002  0.2271583E+03  0.7818608E-02  0.1129729E+00
         21   -1    0    0  503  502  0.00000000000E+00  0.00000000000E+00  0.28278255677E+03  0.28278255677E+03  0.00000000000E+00 0.  1.
         21   -1    0    0  501  503 -0.00000000000E+00 -0.00000000000E+00 -0.20595594703E+03  0.20595594703E+03  0.00000000000E+00 0.  1.
          6    2    1    2  501    0 -0.99409652100E+02  0.11090345008E+03 -0.52448148676E+02  0.22737118913E+03  0.16360010751E+03 0.  0.
         24    2    3    3    0    0 -0.12617785028E+02  0.68249972551E+01  0.32845098518E+01  0.80765010001E+02  0.79412906690E+02 0.  0.
         -6    2    1    2    0  502  0.99409652100E+02 -0.11090345008E+03  0.12927475842E+03  0.26136731467E+03  0.17151984096E+03 0.  0.
        -24    2    5    5    0    0  0.13349035510E+03 -0.10196410651E+03  0.84859566828E+02  0.20447965850E+03  0.79965184515E+02 0.  0.
          5    1    3    3  501    0 -0.86791867072E+02  0.10407845283E+03 -0.55732658528E+02  0.14660617913E+03  0.47000000000E+01 0. -1.
        -13    1    4    4    0    0 -0.36937625787E+02  0.16419885133E+02  0.24349876559E+02  0.47190224783E+02  0.00000000000E+00 0.  1.
         14    1    4    4    0    0  0.24319840759E+02 -0.95948878784E+01 -0.21065366708E+02  0.33574785219E+02  0.00000000000E+00 0. -1.
         -5    1    5    5    0  502 -0.34080703004E+02 -0.89393435750E+01  0.44415191592E+02  0.56887656174E+02  0.47000000000E+01 0.  1.
         11    1    6    6    0    0  0.21184797594E+00  0.92164536617E+01  0.14531247445E+02  0.17208865447E+02  0.00000000000E+00 0. -1.
        -12    1    6    6    0    0  0.13327850713E+03 -0.11118056017E+03  0.70328319383E+02  0.18727079305E+03  0.00000000000E+00 0.  1.
</event>
<event>
12    1  0.8728348E-002  0.2822703E+03  0.7818608E-02  0.1094926E+00
         21   -1    0    0  501  502  0.00000000000E+00  0.00000000000E+00  0.74143625495E+02  0.74143625495E+02  0.00000000000E+00 0. -1.
         21   -1    0    0  502  503 -0.00000000000E+00 -0.00000000000E+00 -0.11606507760E+04  0.11606507760E+04  0.00000000000E+00 0. -1.
         -6    2    1    2    0  503  0.17519244163E+03 -0.13130402870E+03 -0.72675785352E+03  0.77964960874E+03  0.17816676231E+03 0.  0.
        -24    2    3    3    0    0  0.19860760591E+03 -0.89207076577E+02 -0.55047081250E+03  0.59683923122E+03  0.76131917544E+02 0.  0.
          6    2    1    2  501    0 -0.17519244163E+03  0.13130402870E+03 -0.35974929698E+03  0.45514479276E+03  0.17263859979E+03 0.  0.
         24    2    5    5    0    0 -0.14918958034E+03  0.99735720098E+02 -0.16613650316E+03  0.25720361251E+03  0.79671926448E+02 0.  0.
          5    1    5    5  501    0 -0.26002861288E+02  0.31568308602E+02 -0.19361279382E+03  0.19794118024E+03  0.47000000000E+01 0. -1.
        -13    1    6    6    0    0  0.24096929006E+01  0.17820644050E+02 -0.20394812887E+00  0.17983980902E+02  0.00000000000E+00 0.  1.
         14    1    6    6    0    0 -0.15159927324E+03  0.81915076048E+02 -0.16593255503E+03  0.23921963161E+03  0.00000000000E+00 0. -1.
         -5    1    3    3    0  503 -0.23415164287E+02 -0.42096952123E+02 -0.17628704102E+03  0.18281037752E+03  0.47000000000E+01 0.  1.
         13    1    4    4    0    0  0.69233777981E+02 -0.12058277374E+02 -0.26383772025E+03  0.27303673873E+03  0.00000000000E+00 0. -1.
        -14    1    4    4    0    0  0.12937382793E+03 -0.77148799203E+02 -0.28663309225E+03  0.32380249250E+03  0.00000000000E+00 0.  1.
</event>
<event>
12    1  0.8728348E-002  0.1948723E+03  0.7818608E-02  0.1154436E+00
         21   -1    0    0  501  502  0.00000000000E+00  0.00000000000E+00  0.16636963306E+02  0.16636963306E+02  0.00000000000E+00 0.  1.
         21   -1    0    0  502  503 -0.00000000000E+00 -0.00000000000E+00 -0.24603151241E+04  0.24603151241E+04  0.00000000000E+00 0.  1.
         -6    2    1    2    0  503 -0.88322706788E+02 -0.18729113399E+02 -0.15653231669E+04  0.15772395138E+04  0.17116128872E+03 0.  0.
        -24    2    3    3    0    0 -0.54836381531E+02  0.29032843969E+02 -0.13680996093E+04  0.13715169817E+04  0.74245237071E+02 0.  0.
          6    2    1    2  501    0  0.88322706788E+02  0.18729113399E+02 -0.87835499384E+03  0.89971257358E+03  0.17269493225E+03 0.  0.
         24    2    5    5    0    0  0.10408811650E+03  0.59094073625E+02 -0.56927820627E+03  0.58757730039E+03  0.82722199304E+02 0.  0.
          5    1    5    5  501    0 -0.15765409709E+02 -0.40364960226E+02 -0.30907678757E+03  0.31213527319E+03  0.47000000000E+01 0. -1.
        -13    1    6    6    0    0  0.53376000158E+02  0.70305138088E+02 -0.42914477283E+03  0.43812902880E+03  0.00000000000E+00 0.  1.
         14    1    6    6    0    0  0.50712116339E+02 -0.11211064463E+02 -0.14013343345E+03  0.14944827158E+03  0.00000000000E+00 0. -1.
         -5    1    3    3    0  503 -0.33486325257E+02 -0.47761957368E+02 -0.19722355764E+03  0.20572253216E+03  0.47000000000E+01 0.  1.
         11    1    4    4    0    0  0.11234470819E+02  0.28495126833E+02 -0.45534467161E+03  0.45637370164E+03  0.00000000000E+00 0. -1.
        -12    1    4    4    0    0 -0.66070852350E+02  0.53771713535E+00 -0.91275493770E+03  0.91514328002E+03  0.00000000000E+00 0.  1.
</event>
<event>
12    1  0.8728348E-002  0.2392090E+03  0.7818608E-02  0.1121284E+00
         21   -1    0    0  501  502  0.00000000000E+00  0.00000000000E+00  0.42264462073E+03  0.42264462073E+03  0.00000000000E+00 0.  1.
         21   -1    0    0  502  503 -0.00000000000E+00 -0.00000000000E+00 -0.33639709580E+03  0.33639709580E+03  0.00000000000E+00 0. -1.
         -6    2    1    2    0  503  0.11623628735E+01 -0.15747898690E+03 -0.25235930097E+03  0.34771562407E+03  0.18005542489E+03 0.  0.
        -24    2    3    3    0    0  0.36267542143E+02 -0.12727220411E+03 -0.25833562728E+03  0.30078344094E+03  0.78865920802E+02 0.  0.
          6    2    1    2  501    0 -0.11623628735E+01  0.15747898690E+03  0.33860682590E+03  0.41132609246E+03  0.17243430455E+03 0.  0.
         24    2    5    5    0    0 -0.67365030414E+02  0.81036730691E+02  0.20205378824E+03  0.24134069950E+03  0.79464462808E+02 0.  0.
          5    1    5    5  501    0  0.66202667540E+02  0.76442256209E+02  0.13655303767E+03  0.16998539296E+03  0.47000000000E+01 0. -1.
        -11    1    6    6    0    0 -0.69308494800E+01  0.64832601081E+02  0.72740787397E+02  0.97685848455E+02  0.00000000000E+00 0.  1.
         12    1    6    6    0    0 -0.60434180934E+02  0.16204129610E+02  0.12931300084E+03  0.14365485104E+03  0.00000000000E+00 0. -1.
         -5    1    3    3    0  503 -0.35105179270E+02 -0.30206782787E+02  0.59763263098E+01  0.46932183138E+02  0.47000000000E+01 0.  1.
         11    1    4    4    0    0 -0.30503295559E+01 -0.93382649175E+02 -0.11399042706E+03  0.14738874156E+03  0.00000000000E+00 0. -1.
        -12    1    4    4    0    0  0.39317871699E+02 -0.33889554938E+02 -0.14434520022E+03  0.15339469937E+03  0.00000000000E+00 0.  1.
</event>
<event>
12    1  0.8728348E-002  0.2490235E+03  0.7818608E-02  0.1113942E+00
         21   -1    0    0  503  502  0.00000000000E+00  0.00000000000E+00  0.11609357848E+03  0.11609357848E+03  0.00000000000E+00 0. -1.
         21   -1    0    0  501  503 -0.00000000000E+00 -0.00000000000E+00 -0.65545574494E+03  0.65545574494E+03  0.00000000000E+00 0. -1.
          6    2    1    2  501    0 -0.16904337738E+03 -0.61756945891E+02 -0.43585781640E+03  0.50198081469E+03  0.17211367874E+03 0.  0.
         24    2    3    3    0    0 -0.26757747747E+02 -0.66079825279E+02 -0.18131982348E+03  0.21030365151E+03  0.79172135747E+02 0.  0.
         -6    2    1    2    0  502  0.16904337738E+03  0.61756945891E+02 -0.10350435007E+03  0.26956850873E+03  0.17194314937E+03 0.  0.
        -24    2    5    5    0    0  0.13615259782E+03  0.10359027120E+03 -0.53474932668E+02  0.19637791445E+03  0.80226196964E+02 0.  0.
          5    1    3    3  501    0 -0.14228562963E+03  0.43228793875E+01 -0.25453799292E+03  0.29167716319E+03  0.47000000000E+01 0. -1.
        -11    1    4    4    0    0 -0.30775933027E+02 -0.78937336847E+02 -0.17687260938E+03  0.19611777368E+03  0.00000000000E+00 0.  1.
         12    1    4    4    0    0  0.40181852799E+01  0.12857511569E+02 -0.44472140965E+01  0.14185877833E+02  0.00000000000E+00 0. -1.
         -5    1    5    5    0  502  0.32890779559E+02 -0.41833325307E+02 -0.50029417399E+02  0.73190594283E+02  0.47000000000E+01 0.  1.
         11    1    6    6    0    0  0.13457791944E+03  0.65538039987E+02 -0.51287316416E+02  0.15823033815E+03  0.00000000000E+00 0. -1.
        -12    1    6    6    0    0  0.15746783733E+01  0.38052231211E+02 -0.21876162515E+01  0.38147576293E+02  0.00000000000E+00 0.  1.
</event>
<event>
12    1  0.8728348E-002  0.2186964E+03  0.7818608E-02  0.1134883E+00
         21   -1    0    0  501  502  0.00000000000E+00  0.00000000000E+00  0.66164938356E+02  0.66164938356E+02  0.00000000000E+00 0. -1.
         21   -1    0    0  502  503 -0.00000000000E+00 -0.00000000000E+00 -0.13228688906E+04  0.13228688906E+04  0.00000000000E+00 0. -1.
         -6    2    1    2    0  503  0.92626947513E+01  0.13421280762E+03 -0.10961562780E+04  0.11177338515E+04  0.17225417734E+03 0.  0.
        -24    2    3    3    0    0 -0.60879585832E-01  0.16253524665E+03 -0.10196191901E+04  0.10354592781E+04  0.78325689986E+02 0.  0.
          6    2    1    2  501    0 -0.92626947513E+01 -0.13421280762E+03 -0.16054767421E+03  0.27129997749E+03  0.17242171222E+03 0.  0.
         24    2    5    5    0    0 -0.20318943222E+02 -0.21584630614E+02 -0.12376188760E+03  0.15220912568E+03  0.83497648989E+02 0.  0.
          5    1    5    5  501    0  0.11056248471E+02 -0.11262817701E+03 -0.36785786618E+02  0.11909085181E+03  0.47000000000E+01 0. -1.
        -11    1    6    6    0    0 -0.70266889379E+01 -0.30854785638E+02 -0.46319280541E+01  0.31981977920E+02  0.00000000000E+00 0.  1.
         12    1    6    6    0    0 -0.13292254284E+02  0.92701550235E+01 -0.11912995954E+03  0.12022714776E+03  0.00000000000E+00 0. -1.
         -5    1    3    3    0  503  0.93235743372E+01 -0.28322439028E+02 -0.76537087909E+02  0.82274573329E+02  0.47000000000E+01 0.  1.
         11    1    4    4    0    0 -0.38059223204E+02  0.59802975575E+02 -0.40326066418E+03  0.40944360251E+03  0.00000000000E+00 0. -1.
        -12    1    4    4    0    0  0.37998343618E+02  0.10273227108E+03 -0.61635852593E+03  0.62601567563E+03  0.00000000000E+00 0.  1.
</event>
<event>
12    1  0.8728348E-002  0.1831142E+03  0.7818608E-02  0.1166542E+00
         21   -1    0    0  501  502  0.00000000000E+00  0.00000000000E+00  0.54317274166E+03  0.54317274166E+03  0.00000000000E+00 0. -1.
         21   -1    0    0  502  503 -0.00000000000E+00 -0.00000000000E+00 -0.95513959373E+02  0.95513959373E+02  0.00000000000E+00 0. -1.
         -6    2    1    2    0  503 -0.27212979127E+02 -0.37310777355E+02  0.24615916056E+02  0.17771373309E+03  0.16983399915E+03 0.  0.
        -24    2    3    3    0    0  0.46141003583E+02 -0.74164819464E+01 -0.51042234410E+01  0.92979723574E+02  0.80219570448E+02 0.  0.
          6    2    1    2  501    0  0.27212979127E+02  0.37310777355E+02  0.42304286623E+03  0.46097296794E+03  0.17719528821E+03 0.  0.
         24    2    5    5    0    0  0.27232418093E+02 -0.10159918805E+02  0.95460585245E+02  0.12993564650E+03  0.83220912937E+02 0.  0.
          5    1    5    5  501    0 -0.19438966357E-01  0.47470696160E+02  0.32758228098E+03  0.33103732144E+03  0.47000000000E+01 0. -1.
        -13    1    6    6    0    0 -0.20267805245E+01 -0.22743887943E+02 -0.59868238875E+01  0.23605811537E+02  0.00000000000E+00 0.  1.
         14    1    6    6    0    0  0.29259198618E+02  0.12583969138E+02  0.10144740913E+03  0.10632983496E+03  0.00000000000E+00 0. -1.
         -5    1    3    3    0  503 -0.73353982711E+02 -0.29894295409E+02  0.29720139497E+02  0.84734009519E+02  0.47000000000E+01 0.  1.
         13    1    4    4    0    0  0.11998503081E+02 -0.63065544770E+01 -0.41146077158E+02  0.43321315435E+02  0.00000000000E+00 0. -1.
        -14    1    4    4    0    0  0.34142500502E+02 -0.11099274693E+01  0.36041853717E+02  0.49658408139E+02  0.00000000000E+00 0.  1.
</event>
<event>
12    1  0.8728348E-002  0.2530024E+03  0.7818608E-02  0.1112300E+00
         21   -1    0    0  503  502  0.00000000000E+00  0.00000000000E+00  0.17334825894E+03  0.17334825894E+03  0.00000000000E+00 0.  1.
         21   -1    0    0  501  503 -0.00000000000E+00 -0.00000000000E+00 -0.36239086968E+03  0.36239086968E+03  0.00000000000E+00 0. -1.
          6    2    1    2  501    0 -0.62132264544E+02  0.16498288107E+03 -0.77885334302E+02  0.25939487606E+03  0.17360819993E+03 0.  0.
         24    2    3    3    0    0 -0.28047136020E+02  0.14175181602E+03 -0.11608212903E+03  0.20298066245E+03  0.82739769543E+02 0.  0.
         -6    2    1    2    0  502  0.62132264544E+02 -0.16498288107E+03 -0.11115727644E+03  0.27634425255E+03  0.18146745292E+03 0.  0.
        -24    2    5    5    0    0  0.89861781185E+01 -0.12743406698E+03 -0.35188333333E+01  0.15047708298E+03  0.79440402130E+02 0.  0.
          5    1    3    3  501    0 -0.34085128524E+02  0.23231065049E+02  0.38196794730E+02  0.56414213612E+02  0.47000000000E+01 0. -1.
        -11    1    4    4    0    0 -0.71786106004E+01 -0.73221767290E+01  0.33935803890E+01  0.10801069857E+02  0.00000000000E+00 0.  1.
         12    1    4    4    0    0 -0.20868525419E+02  0.14907399275E+03 -0.11947570942E+03  0.19217959259E+03  0.00000000000E+00 0. -1.
         -5    1    5    5    0  502  0.53146086425E+02 -0.37548814090E+02 -0.10763844310E+03  0.12586716957E+03  0.47000000000E+01 0.  1.
         11    1    6    6    0    0 -0.87404630293E+01  0.58922384709E+01 -0.11676054170E+02  0.15730365830E+02  0.00000000000E+00 0. -1.
        -12    1    6    6    0    0  0.17726641148E+02 -0.13332630545E+03  0.81572208363E+01  0.13474671715E+03  0.00000000000E+00 0.  1.
</event>
<event>
12    1  0.8728348E-002  0.1788934E+03  0.7818608E-02  0.1170523E+00
         21   -1    0    0  501  502  0.00000000000E+00  0.00000000000E+00  0.84198465068E+02  0.84198465068E+02  0.00000000000E+00 0.  1.
         21   -1    0    0  502  503 -0.00000000000E+00 -0.00000000000E+00 -0.97133122412E+03  0.97133122412E+03  0.00000000000E+00 0.  1.
         -6    2    1    2    0  503 -0.10969320391E+02  0.50263434602E+02 -0.85696357970E+03  0.87411019509E+03  0.16442419949E+03 0.  0.
        -24    2    3    3    0    0  0.12322557429E+02 -0.29493176053E+02 -0.35708770605E+03  0.36735423057E+03  0.80098739390E+02 0.  0.
          6    2    1    2  501    0  0.10969320391E+02 -0.50263434602E+02 -0.30169179352E+02  0.18141949410E+03  0.17133626180E+03 0.  0.
         24    2    5    5    0    0 -0.50909845531E+00 -0.54669057269E+02  0.44043561245E+02  0.10604851509E+03  0.79482622385E+02 0.  0.
          5    1    5    5  501    0  0.11478418847E+02  0.44056226678E+01 -0.74212740597E+02  0.75370979012E+02  0.47000000000E+01 0. -1.
        -13    1    6    6    0    0  0.20611985908E+02 -0.18563167234E+02  0.56042575763E+02  0.62531715465E+02  0.00000000000E+00 0.  1.
         14    1    6    6    0    0 -0.21121084364E+02 -0.36105890035E+02 -0.11999014518E+02  0.43516799622E+02  0.00000000000E+00 0. -1.
         -5    1    3    3    0  503 -0.23291877820E+02  0.79756610654E+02 -0.49987587366E+03  0.50675596452E+03  0.47000000000E+01 0.  1.
         11    1    4    4    0    0 -0.44785536798E+01 -0.32873162787E+02 -0.51341887461E+02  0.61128485035E+02  0.00000000000E+00 0. -1.
        -12    1    4    4    0    0  0.16801111109E+02  0.33799867342E+01 -0.30574581858E+03  0.30622574553E+03  0.00000000000E+00 0.  1.
</event>
<event>
12    1  0.8728348E-002  0.2246005E+03  0.7818608E-02  0.1130569E+00
         21   -1    0    0  501  502  0.00000000000E+00  0.00000000000E+00  0.54914001825E+02  0.54914001825E+02  0.00000000000E+00 0. -1.
         21   -1    0    0  502  503 -0.00000000000E+00 -0.00000000000E+00 -0.99206939367E+03  0.99206939367E+03  0.00000000000E+00 0. -1.
         -6    2    1    2    0  503  0.13197295252E+03 -0.55356470399E+02 -0.32499974193E+03  0.39505724942E+03  0.17310170147E+03 0.  0.
        -24    2    3    3    0    0  0.31045618359E+02  0.24073711287E+02 -0.18100396964E+03  0.20204856313E+03  0.80732960087E+02 0.  0.
          6    2    1    2  501    0 -0.13197295252E+03  0.55356470399E+02 -0.61215564991E+03  0.65192614608E+03  0.17260347970E+03 0.  0.
         24    2    5    5    0    0 -0.20421467986E+02  0.33838561946E+02 -0.41278524257E+03  0.42241056183E+03  0.80479448521E+02 0.  0.
          5    1    5    5  501    0 -0.11155148454E+03  0.21517908452E+02 -0.19937040734E+03  0.22951558424E+03  0.47000000000E+01 0. -1.
        -11    1    6    6    0    0  0.50914686475E+01 -0.78505040821E+01 -0.31548096982E+01  0.98745274097E+01  0.00000000000E+00 0.  1.
         12    1    6    6    0    0 -0.25512936633E+02  0.41689066028E+02 -0.40963043287E+03  0.41253603442E+03  0.00000000000E+00 0. -1.
         -5    1    3    3    0  503  0.10092733416E+03 -0.79430181686E+02 -0.14399577230E+03  0.19300868629E+03  0.47000000000E+01 0.  1.
         11    1    4    4    0    0  0.49532858127E+02  0.50527474158E+01 -0.16183784016E+03  0.16932371600E+03  0.00000000000E+00 0. -1.
        -12    1    4    4    0    0 -0.18487239768E+02  0.19020963872E+02 -0.19166129473E+02  0.32724847132E+02  0.00000000000E+00 0.  1.
</event>
<event>
12    1  0.8728348E-002  0.3179258E+03  0.7818608E-02  0.1076705E+00
         21   -1    0    0  503  502  0.00000000000E+00  0.00000000000E+00  0.95646379565E+03  0.95646379565E+03  0.00000000000E+00 0. -1.
         21   -1    0    0  501  503 -0.00000000000E+00 -0.00000000000E+00 -0.68229492557E+03  0.68229492557E+03  0.00000000000E+00 0.  1.
          6    2    1    2  501    0 -0.61426716715E+02  0.26015783952E+03 -0.61632516352E+03  0.69349372033E+03  0.17210894795E+03 0.  0.
         24    2    3    3    0    0 -0.53794780653E+02  0.24456277723E+03 -0.41618632086E+03  0.49254820842E+03  0.81779297608E+02 0.  0.
         -6    2    1    2    0  502  0.61426716715E+02 -0.26015783952E+03  0.89049403360E+03  0.94526500090E+03  0.17056070784E+03 0.  0.
        -24    2    5    5    0    0  0.68074377079E+02 -0.17040145082E+03  0.76261777443E+03  0.78882067099E+03  0.83554807482E+02 0.  0.
          5    1    3    3  501    0 -0.76319360625E+01  0.15595062289E+02 -0.20013884266E+03  0.20094551191E+03  0.47000000000E+01 0. -1.
        -11    1    4    4    0    0  0.11361221355E+02  0.10442317495E+03 -0.21070418327E+03  0.23543476732E+03  0.00000000000E+00 0.  1.
         12    1    4    4    0    0 -0.65156002008E+02  0.14013960228E+03 -0.20548213759E+03  0.25711344110E+03  0.00000000000E+00 0. -1.
         -5    1    5    5    0  502 -0.66476603636E+01 -0.89756388702E+02  0.12787625917E+03  0.15644432991E+03  0.47000000000E+01 0.  1.
         13    1    6    6    0    0  0.55853662614E+02 -0.15333796865E+03  0.74073815466E+03  0.75850193014E+03  0.00000000000E+00 0. -1.
        -14    1    6    6    0    0  0.12220714465E+02 -0.17063482163E+02  0.21879619770E+02  0.30318740852E+02  0.00000000000E+00 0.  1.
</event>
<event>
12    1  0.8728348E-002  0.1852691E+03  0.7818608E-02  0.1163649E+00
         21   -1    0    0  501  502  0.00000000000E+00  0.00000000000E+00  0.29050511417E+03  0.29050511417E+03  0.00000000000E+00 0. -1.
         21   -1    0    0  502  503 -0.00000000000E+00 -0.00000000000E+00 -0.16944969228E+03  0.16944969228E+03  0.00000000000E+00 0. -1.
         -6    2    1    2    0  503 -0.67471440218E+02 -0.28324840426E+02 -0.68388191975E+02  0.19748821757E+03  0.17020563870E+03 0.  0.
        -24    2    3    3    0    0 -0.67470509483E+02 -0.38340834817E+02 -0.10473173126E+03  0.15949791627E+03  0.91916051364E+02 0.  0.
          6    2    1    2  501    0  0.67471440218E+02  0.28324840426E+02  0.18944361387E+03  0.26246658888E+03  0.16626826400E+03 0.  0.
         24    2    5    5    0    0  0.65463871413E+02 -0.55220246121E+01  0.40620099481E+02  0.10975716206E+03  0.77978400377E+02 0.  0.
          5    1    5    5  501    0  0.20075688058E+01  0.33846865038E+02  0.14882351439E+03  0.15270942682E+03  0.47000000000E+01 0. -1.
        -11    1    6    6    0    0 -0.27759919890E+01  0.10967601007E+02 -0.15979470244E+02  0.19579016131E+02  0.00000000000E+00 0.  1.
         12    1    6    6    0    0  0.68239863402E+02 -0.16489625619E+02  0.56599569725E+02  0.90178145929E+02  0.00000000000E+00 0. -1.
         -5    1    3    3    0  503 -0.93073491870E-03  0.10015994391E+02  0.36343539287E+02  0.37990301294E+02  0.47000000000E+01 0.  1.
         11    1    4    4    0    0 -0.88975624760E+02 -0.18196839410E+02 -0.80015806735E+02  0.12103849013E+03  0.00000000000E+00 0. -1.
        -12    1    4    4    0    0  0.21505115276E+02 -0.20143995407E+02 -0.24715924527E+02  0.38459426143E+02  0.00000000000E+00 0.  1.
</event>
<event>
12    1  0.8728348E-002  0.1858370E+03  0.7818608E-02  0.1162719E+00
         21   -1    0    0  501  502  0.00000000000E+00  0.00000000000E+00  0.10593428319E+03  0.10593428319E+03  0.00000000000E+00 0.  1.
         21   -1    0    0  502  503 -0.00000000000E+00 -0.00000000000E+00 -0.68863834985E+03  0.68863834985E+03  0.00000000000E+00 0.  1.
         -6    2    1    2    0  503 -0.29083769716E+02  0.61018010582E+02 -0.58027086405E+03  0.60871975061E+03  0.17104501118E+03 0.  0.
        -24    2    3    3    0    0  0.29834432851E+02  0.78932911805E+02 -0.29160732410E+03  0.31352315922E+03  0.78367352552E+02 0.  0.
          6    2    1    2  501    0  0.29083769716E+02 -0.61018010582E+02 -0.24332026139E+01  0.18585288243E+03  0.17310779923E+03 0.  0.
         24    2    5    5    0    0  0.18238423539E+02  0.23889793427E+02 -0.37232190157E+02  0.93332526564E+02  0.80133402573E+02 0.  0.
          5    1    5    5  501    0  0.10845346177E+02 -0.84907804009E+02  0.34798987543E+02  0.92520355864E+02  0.47000000000E+01 0. -1.
        -13    1    6    6    0    0  0.21805240787E+02  0.33909658792E+02  0.12709148150E+02  0.42271218717E+02  0.00000000000E+00 0.  1.
         14    1    6    6    0    0 -0.35668172479E+01 -0.10019865365E+02 -0.49941338307E+02  0.51061307847E+02  0.00000000000E+00 0. -1.
         -5    1    3    3    0  503 -0.58918202567E+02 -0.17914901223E+02 -0.28866353994E+03  0.29519659139E+03  0.47000000000E+01 0.  1.
         11    1    4    4    0    0  0.30231152766E+02  0.78162966675E+02 -0.29672496651E+03  0.30833273862E+03  0.00000000000E+00 0. -1.
        -12    1    4    4    0    0 -0.39671991524E+00  0.76994513034E+00  0.51176424042E+01  0.51904205969E+01  0.00000000000E+00 0.  1.
</event>
<event>
12    1  0.8728348E-002  0.3726429E+03  0.7818608E-02  0.1053747E+00
         21   -1    0    0  501  502  0.00000000000E+00  0.00000000000E+00  0.89301435832E+02  0.89301435832E+02  0.00000000000E+00 0. -1.
         21   -1    0    0  502  503 -0.00000000000E+00 -0.00000000000E+00 -0.17502911190E+04  0.17502911190E+04  0.00000000000E+00 0.  1.
         -6    2    1    2    0  503 -0.19392059982E+03  0.26729229327E+03 -0.52053818126E+03  0.63980410308E+03  0.17128608553E+03 0.  0.
        -24    2    3    3    0    0 -0.75836714504E+02  0.45522293881E+02 -0.21034822014E+03  0.24059784238E+03  0.76272285514E+02 0.  0.
          6    2    1    2  501    0  0.19392059982E+03 -0.26729229327E+03 -0.11404515020E+04  0.11997884518E+04  0.17266247908E+03 0.  0.
         24    2    5    5    0    0  0.40411951631E+02 -0.77406974505E+02 -0.55537296715E+03  0.56578504389E+03  0.63628749102E+02 0.  0.
          5    1    5    5  501    0  0.15350864819E+03 -0.18988531876E+03 -0.58507853481E+03  0.63400340791E+03  0.47000000000E+01 0. -1.
        -11    1    6    6    0    0  0.35565780794E+02 -0.42433094591E+02 -0.16979957560E+03  0.17859839908E+03  0.00000000000E+00 0.  1.
         12    1    6    6    0    0  0.48461708367E+01 -0.34973879914E+02 -0.38557339155E+03  0.38718664481E+03  0.00000000000E+00 0. -1.
         -5    1    3    3    0  503 -0.11808388531E+03  0.22176999939E+03 -0.31018996112E+03  0.39920626070E+03  0.47000000000E+01 0.  1.
         11    1    4    4    0    0 -0.19640763284E+02 -0.97219817633E+01 -0.78030441960E+01  0.23262932113E+02  0.00000000000E+00 0. -1.
        -12    1    4    4    0    0 -0.56195951220E+02  0.55244275645E+02 -0.20254517594E+03  0.21733491027E+03  0.00000000000E+00 0.  1.
</event>
<event>
12    1  0.8728348E-002  0.2194151E+03  0.7818608E-02  0.1135053E+00
         21   -1    0    0  503  502  0.00000000000E+00  0.00000000000E+00  0.25103874015E+03  0.25103874015E+03  0.00000000000E+00 0. -1.
         21   -1    0    0  501  503 -0.00000000000E+00 -0.00000000000E+00 -0.20975449778E+03  0.20975449778E+03  0.00000000000E+00 0.  1.
          6    2    1    2  501    0  0.65587217923E+00 -0.13833045878E+03 -0.52707779213E+02  0.22565707537E+03  0.17031517748E+03 0.  0.
         24    2    3    3    0    0  0.60994168625E+02 -0.10038373357E+03 -0.59904302226E+02  0.15386192292E+03  0.79295544183E+02 0.  0.
         -6    2    1    2    0  502 -0.65587217923E+00  0.13833045878E+03  0.93992021584E+02  0.23513616255E+03  0.16528390370E+03 0.  0.
        -24    2    5    5    0    0 -0.38109294140E+02  0.19730022788E+02  0.53638894044E+02  0.10429546881E+03  0.78478161048E+02 0.  0.
          5    1    3    3  501    0 -0.60338296446E+02 -0.37946725212E+02  0.71965230129E+01  0.71795152454E+02  0.47000000000E+01 0. -1.
        -13    1    4    4    0    0  0.16401860244E+02 -0.69712011344E+02 -0.68452927499E+02  0.99068606673E+02  0.00000000000E+00 0.  1.
         14    1    4    4    0    0  0.44592308381E+02 -0.30671722227E+02  0.85486252728E+01  0.54793316246E+02  0.00000000000E+00 0. -1.
         -5    1    5    5    0  502  0.37453421961E+02  0.11860043600E+03  0.40353127540E+02  0.13084069374E+03  0.47000000000E+01 0.  1.
         13    1    6    6    0    0 -0.45229417505E+02  0.15853690942E+02  0.70695582846E+02  0.85410216943E+02  0.00000000000E+00 0. -1.
        -14    1    6    6    0    0  0.71201233650E+01  0.38763318454E+01 -0.17056688802E+02  0.18885251870E+02  0.00000000000E+00 0.  1.
</event>
<event>
12    1  0.8728348E-002  0.2144039E+03  0.7818608E-02  0.1138663E+00
         21   -1    0    0  503  502  0.00000000000E+00  0.00000000000E+00  0.27587782406E+03  0.27587782406E+03  0.00000000000E+00 0.  1.
         21   -1    0    0  501  503 -0.00000000000E+00 -0.00000000000E+00 -0.35006629378E+03  0.35006629378E+03  0.00000000000E+00 0. -1.
          6    2    1    2  501    0  0.12216572709E+03  0.23377993790E+02 -0.26508301016E+03  0.34093697434E+03  0.17463683097E+03 0.  0.
         24    2    3    3    0    0 -0.26175675572E+01 -0.19948372411E+02 -0.89956012449E+02  0.12152959079E+03  0.79199545710E+02 0.  0.
         -6    2    1    2    0  502 -0.12216572709E+03 -0.23377993790E+02  0.19089454043E+03  0.28500714350E+03  0.17122310244E+03 0.  0.
        -24    2    5    5    0    0 -0.29152257189E+02 -0.61566652394E+02  0.13195837498E+03  0.16836478058E+03  0.79330825192E+02 0.  0.
          5    1    3    3  501    0  0.12478329465E+03  0.43326366201E+02 -0.17512699771E+03  0.21940738355E+03  0.47000000000E+01 0. -1.
        -13    1    4    4    0    0  0.13128484339E+02 -0.46291033262E+01 -0.97357504316E+02  0.98347696187E+02  0.00000000000E+00 0.  1.
         14    1    4    4    0    0 -0.15746051896E+02 -0.15319269085E+02  0.74014918675E+01  0.23181894605E+02  0.00000000000E+00 0. -1.
         -5    1    5    5    0  502 -0.93013469900E+02  0.38188658603E+02  0.58936165447E+02  0.11664236292E+03  0.47000000000E+01 0.  1.
         11    1    6    6    0    0  0.21047138307E+02  0.34977509156E+01  0.37649644190E+02  0.43274842576E+02  0.00000000000E+00 0. -1.
        -12    1    6    6    0    0 -0.50199395495E+02 -0.65064403309E+02  0.94308730794E+02  0.12508993801E+03  0.00000000000E+00 0.  1.
</event>
<event>
12    1  0.8728348E-002  0.2312663E+03  0.7818608E-02  0.1125927E+00
         21   -1    0    0  501  502  0.00000000000E+00  0.00000000000E+00  0.40759048451E+02  0.40759048451E+02  0.00000000000E+00 0.  1.
         21   -1    0    0  502  503 -0.00000000000E+00 -0.00000000000E+00 -0.13401504696E+04  0.13401504696E+04  0.00000000000E+00 0. -1.
         -6    2    1    2    0  503 -0.72248277215E+02  0.13592174249E+03 -0.53896519225E+03  0.58609372818E+03  0.17125374771E+03 0.  0.
        -24    2    3    3    0    0 -0.44285518971E+02 -0.11873419718E+01 -0.20127759264E+03  0.22053139174E+03  0.78478076372E+02 0.  0.
          6    2    1    2  501    0  0.72248277215E+02 -0.13592174249E+03 -0.76042622888E+03  0.79481578986E+03  0.17259651387E+03 0.  0.
         24    2    5    5    0    0 -0.15895657086E+01 -0.55493025412E+02 -0.53990433653E+03  0.54870036859E+03  0.80581631307E+02 0.  0.
          5    1    5    5  501    0  0.73837842924E+02 -0.80428717076E+02 -0.22052189235E+03  0.24611542127E+03  0.47000000000E+01 0. -1.
        -13    1    6    6    0    0 -0.37083970732E+02 -0.49272489346E+02 -0.32589628811E+03  0.33167964920E+03  0.00000000000E+00 0.  1.
         14    1    6    6    0    0  0.35494405024E+02 -0.62205360656E+01 -0.21400804842E+03  0.21702071939E+03  0.00000000000E+00 0. -1.
         -5    1    3    3    0  503 -0.27962758244E+02  0.13710908446E+03 -0.33768759961E+03  0.36556233644E+03  0.47000000000E+01 0.  1.
         13    1    4    4    0    0  0.12960819156E+02  0.59991585345E+01 -0.12006104844E+03  0.12090751874E+03  0.00000000000E+00 0. -1.
        -14    1    4    4    0    0 -0.57246338127E+02 -0.71865005063E+01 -0.81216544205E+02  0.99623872998E+02  0.00000000000E+00 0.  1.
</event>
<event>
12    1  0.8728348E-002  0.1828535E+03  0.7818608E-02  0.1165214E+00
         21   -1    0    0  503  502  0.00000000000E+00  0.00000000000E+00  0.11084118580E+03  0.11084118580E+03  0.00000000000E+00 0.  1.
         21   -1    0    0  501  503 -0.00000000000E+00 -0.00000000000E+00 -0.30469613816E+03  0.30469613816E+03  0.00000000000E+00 0.  1.
          6    2    1    2  501    0 -0.60125814482E+02 -0.16082473640E+01 -0.12103907579E+03  0.21928488768E+03  0.17267803586E+03 0.  0.
         24    2    3    3    0    0  0.20056592476E+02  0.17263842276E+02 -0.14146651395E+02  0.84253578175E+02  0.78728841842E+02 0.  0.
         -6    2    1    2    0  502  0.60125814482E+02  0.16082473640E+01 -0.72815876574E+02  0.19625243628E+03  0.17203245868E+03 0.  0.
        -24    2    5    5    0    0  0.53806173681E+02 -0.55113328515E+02 -0.88594833626E+01  0.11040498284E+03  0.78601440725E+02 0.  0.
          5    1    3    3  501    0 -0.80182406958E+02 -0.18872089640E+02 -0.10689242440E+03  0.13503130951E+03  0.47000000000E+01 0. -1.
        -13    1    4    4    0    0  0.63728265940E+01 -0.31604478808E+02 -0.38266612568E+01  0.32466896000E+02  0.00000000000E+00 0.  1.
         14    1    4    4    0    0  0.13683765882E+02  0.48868321084E+02 -0.10319990139E+02  0.51786682175E+02  0.00000000000E+00 0. -1.
         -5    1    5    5    0  502  0.63196408011E+01  0.56721575879E+02 -0.63956393211E+02  0.85847453443E+02  0.47000000000E+01 0.  1.
         13    1    6    6    0    0  0.35986253769E+01 -0.31623541239E+01  0.28617442644E+02  0.29015661489E+02  0.00000000000E+00 0. -1.
        -14    1    6    6    0    0  0.50207548304E+02 -0.51950974391E+02 -0.37476926006E+02  0.81389321350E+02  0.00000000000E+00 0.  1.
</event>
<event>
12    1  0.8728348E-002  0.1910260E+03  0.7818608E-02  0.1157577E+00
         21   -1    0    0  503  502  0.00000000000E+00  0.00000000000E+00  0.59184417031E+02  0.59184417031E+02  0.00000000000E+00 0.  1.
         21   -1    0    0  501  503 -0.00000000000E+00 -0.00000000000E+00 -0.83247615364E+03  0.83247615364E+03  0.00000000000E+00 0.  1.
          6    2    1    2  501    0 -0.35090488680E+02  0.72482511170E+02 -0.61410602677E+03  0.64313074666E+03  0.17322207815E+03 0.  0.
         24    2    3    3    0    0 -0.17141481061E+02  0.10588004528E+03 -0.31963064153E+03  0.34618730984E+03  0.78597023640E+02 0.  0.
         -6    2    1    2    0  502  0.35090488680E+02 -0.72482511170E+02 -0.15918570984E+03  0.24852982401E+03  0.17303735546E+03 0.  0.
        -24    2    5    5    0    0  0.46406053386E+02 -0.45870571393E+02 -0.18333650440E+03  0.21056157120E+03  0.80413122734E+02 0.  0.
          5    1    3    3  501    0 -0.17949007619E+02 -0.33397534110E+02 -0.29447538524E+03  0.29694343682E+03  0.47000000000E+01 0. -1.
        -13    1    4    4    0    0 -0.85247761298E+01  0.37377476236E+02 -0.22935152572E+03  0.23253358873E+03  0.00000000000E+00 0.  1.
         14    1    4    4    0    0 -0.86167049312E+01  0.68502569045E+02 -0.90279115808E+02  0.11365372110E+03  0.00000000000E+00 0. -1.
         -5    1    5    5    0  502 -0.11315564707E+02 -0.26611939778E+02  0.24150794567E+02  0.37968252812E+02  0.47000000000E+01 0.  1.
         13    1    6    6    0    0 -0.12544902876E+02  0.11919203746E+02 -0.14316876599E+02  0.22459184350E+02  0.00000000000E+00 0. -1.
        -14    1    6    6    0    0  0.58950956263E+02 -0.57789775139E+02 -0.16901962781E+03  0.18810238685E+03  0.00000000000E+00 0.  1.
</event>
<event>
12    1  0.8728348E-002  0.1802299E+03  0.7818608E-02  0.1167903E+00
         21   -1    0    0  503  502  0.00000000000E+00  0.00000000000E+00  0.10921628580E+03  0.10921628580E+03  0.00000000000E+00 0. -1.
         21   -1    0    0  501  503 -0.00000000000E+00 -0.00000000000E+00 -0.48993115790E+03  0.48993115790E+03  0.00000000000E+00 0. -1.
          6    2    1    2  501    0  0.29857161303E+01  0.50775487534E+02 -0.37963453864E+03  0.42024420917E+03  0.17290386860E+03 0.  0.
         24    2    3    3    0    0 -0.63020403783E+02  0.95153361857E+01 -0.21681316408E+03  0.23971139229E+03  0.79946798318E+02 0.  0.
         -6    2    1    2    0  502 -0.29857161303E+01 -0.50775487534E+02 -0.10803334711E+01  0.17890323454E+03  0.17151715824E+03 0.  0.
        -24    2    5    5    0    0  0.45946307784E+02 -0.75262296408E+02 -0.12553075607E+02  0.12279921877E+03  0.84537518083E+02 0.  0.
          5    1    3    3  501    0  0.66006119914E+02  0.41260151348E+02 -0.16282137455E+03  0.18053281687E+03  0.47000000000E+01 0. -1.
        -13    1    4    4    0    0 -0.30796147218E+02 -0.24332430204E+02 -0.37054021185E+02  0.53976572039E+02  0.00000000000E+00 0.  1.
         14    1    4    4    0    0 -0.32224256565E+02  0.33847766390E+02 -0.17975914290E+03  0.18573482026E+03  0.00000000000E+00 0. -1.
         -5    1    5    5    0  502 -0.48932023914E+02  0.24486808874E+02  0.11472742135E+02  0.56104015768E+02  0.47000000000E+01 0.  1.
         11    1    6    6    0    0 -0.24380586425E+02 -0.29313616214E+02 -0.49902189362E+01  0.38452612070E+02  0.00000000000E+00 0. -1.
        -12    1    6    6    0    0  0.70326894209E+02 -0.45948680193E+02 -0.75628566704E+01  0.84346606699E+02  0.00000000000E+00 0.  1.
</event>
<event>
12    1  0.8728348E-002  0.3164236E+03  0.7818608E-02  0.1077526E+00
         21   -1    0    0  501  502  0.00000000000E+00  0.00000000000E+00  0.19411680408E+03  0.19411680408E+03  0.00000000000E+00 0.  1.
         21   -1    0    0  502  503 -0.00000000000E+00 -0.00000000000E+00 -0.52508673710E+03  0.52508673710E+03  0.00000000000E+00 0.  1.
         -6    2    1    2    0  503  0.26190952672E+03 -0.40602152883E+02 -0.10989890792E+03  0.33320315951E+03  0.16941499502E+03 0.  0.
        -24    2    3    3    0    0  0.13366091048E+03  0.44011079413E+02 -0.64075145811E+02  0.17280049799E+03  0.77150331787E+02 0.  0.
          6    2    1    2  501    0 -0.26190952672E+03  0.40602152883E+02 -0.22107102510E+03  0.38600038167E+03  0.17285474104E+03 0.  0.
         24    2    5    5    0    0 -0.25951032926E+03  0.71008340004E+02 -0.21730365080E+03  0.35491058474E+03  0.79704775076E+02 0.  0.
          5    1    5    5  501    0 -0.23991974677E+01 -0.30406187122E+02 -0.37673743076E+01  0.31089796927E+02  0.47000000000E+01 0. -1.
        -13    1    6    6    0    0 -0.14769457954E+03  0.70383827627E+01 -0.86415896559E+02  0.17126276547E+03  0.00000000000E+00 0.  1.
         14    1    6    6    0    0 -0.11181574972E+03  0.63969957242E+02 -0.13088775424E+03  0.18364781927E+03  0.00000000000E+00 0. -1.
         -5    1    3    3    0  503  0.12824861625E+03 -0.84613232296E+02 -0.45823762111E+02  0.16040266152E+03  0.47000000000E+01 0.  1.
         11    1    4    4    0    0 -0.65128325742E+01 -0.85756436356E+01 -0.42447813961E+01  0.11574835679E+02  0.00000000000E+00 0. -1.
        -12    1    4    4    0    0  0.14017374305E+03  0.52586723049E+02 -0.59830364415E+02  0.16122566231E+03  0.00000000000E+00 0.  1.
</event>
<event>
12    1  0.8728348E-002  0.1751635E+03  0.7818608E-02  0.1172769E+00
         21   -1    0    0  503  502  0.00000000000E+00  0.00000000000E+00  0.23455119664E+04  0.23455119664E+04  0.00000000000E+00 0. -1.
         21   -1    0    0  501  503 -0.00000000000E+00 -0.00000000000E+00 -0.21688126952E+02  0.21688126952E+02  0.00000000000E+00 0. -1.
          6    2    1    2  501    0 -0.32074907142E+02  0.25273975749E+01  0.41210866740E+03  0.44747689919E+03  0.17136754113E+03 0.  0.
         24    2    3    3    0    0  0.41025955267E+02  0.20064565548E+02  0.18809002430E+03  0.21113449757E+03  0.84345735084E+02 0.  0.
         -6    2    1    2    0  502  0.32074907142E+02 -0.25273975749E+01  0.19117151721E+04  0.19197231942E+04  0.17218320410E+03 0.  0.
        -24    2    5    5    0    0 -0.43517339371E+01 -0.13676804865E+02  0.18118887818E+04  0.18127717676E+04  0.54722308769E+02 0.  0.
          5    1    3    3  501    0 -0.73100862408E+02 -0.17537167973E+02  0.22401864310E+03  0.23634240162E+03  0.47000000000E+01 0. -1.
        -13    1    4    4    0    0  0.84889676202E+01 -0.13021582427E+02  0.15081317514E+03  0.15161213004E+03  0.00000000000E+00 0.  1.
         14    1    4    4    0    0  0.32536987646E+02  0.33086147975E+02  0.37276849164E+02  0.59522367531E+02  0.00000000000E+00 0. -1.
         -5    1    5    5    0  502  0.36426641079E+02  0.11149407290E+02  0.99826390288E+02  0.10695142664E+03  0.47000000000E+01 0.  1.
         11    1    6    6    0    0  0.12973730444E+02 -0.29906223002E+02  0.96579669389E+03  0.96634670475E+03  0.00000000000E+00 0. -1.
        -12    1    6    6    0    0 -0.17325464381E+02  0.16229418136E+02  0.84609208791E+03  0.84642506281E+03  0.00000000000E+00 0.  1.
</event>
<event>
12    1  0.8728348E-002  0.1854410E+03  0.7818608E-02  0.1162795E+00
         21   -1    0    0  503  502  0.00000000000E+00  0.00000000000E+00  0.19278098943E+03  0.19278098943E+03  0.00000000000E+00 0. -1.
         21   -1    0    0  501  503 -0.00000000000E+00 -0.00000000000E+00 -0.17853877410E+03  0.17853877410E+03  0.00000000000E+00 0. -1.
          6    2    1    2  501    0 -0.38023007701E+01  0.68739134943E+02  0.19587714737E+02  0.18647259583E+03  0.17218833950E+03 0.  0.
         24    2    3    3    0    0 -0.25622684485E+02  0.82792200822E+02  0.67038164482E+02  0.13218398756E+03  0.73942008316E+02 0.  0.
         -6    2    1    2    0  502  0.38023007701E+01 -0.68739134943E+02 -0.53454994002E+01  0.18484716770E+03  0.17146537516E+03 0.  0.
        -24    2    5    5    0    0  0.60632507256E+02 -0.66695161117E+02 -0.20358253326E+02  0.12584443066E+03  0.85427260266E+02 0.  0.
          5    1    3    3  501    0  0.21820383715E+02 -0.14053065880E+02 -0.47450449744E+02  0.54288608262E+02  0.47000000000E+01 0. -1.
        -13    1    4    4    0    0  0.25021491149E+02  0.18187861546E+02  0.11174004644E+02  0.32889689976E+02  0.00000000000E+00 0.  1.
         14    1    4    4    0    0 -0.50644175634E+02  0.64604339276E+02  0.55864159838E+02  0.99294297587E+02  0.00000000000E+00 0. -1.
         -5    1    5    5    0  502 -0.56830206486E+02 -0.20439738259E+01  0.15012753926E+02  0.59002737044E+02  0.47000000000E+01 0.  1.
         13    1    6    6    0    0  0.11033631872E+02 -0.71227038712E+02 -0.10019573075E+00  0.72076640565E+02  0.00000000000E+00 0. -1.
        -14    1    6    6    0    0  0.49598875384E+02  0.45318775953E+01 -0.20258057596E+02  0.53767790093E+02  0.00000000000E+00 0.  1.
</event>
<event>
12    1  0.8728348E-002  0.1736026E+03  0.7818608E-02  0.1174344E+00
         21   -1    0    0  503  502  0.00000000000E+00  0.00000000000E+00  0.10896843148E+03  0.10896843148E+03  0.00000000000E+00 0.  1.
         21   -1    0    0  501  503 -0.00000000000E+00 -0.00000000000E+00 -0.47799931074E+03  0.47799931074E+03  0.00000000000E+00 0.  1.
          6    2    1    2  501    0  0.13845626939E+02  0.54407611257E+01 -0.37538218126E+03  0.41324896258E+03  0.17216741795E+03 0.  0.
         24    2    3    3    0    0 -0.52726095146E+02  0.34675036654E+02 -0.22649257284E+03  0.24748816342E+03  0.77259990946E+02 0.  0.
         -6    2    1    2    0  502 -0.13845626939E+02 -0.54407611257E+01  0.63513019961E+01  0.17371877964E+03  0.17296407747E+03 0.  0.
        -24    2    5    5    0    0  0.78961423201E+01 -0.65077166683E+02 -0.22875381905E+02  0.10367954456E+03  0.76998559575E+02 0.  0.
          5    1    3    3  501    0  0.66571722085E+02 -0.29234275528E+02 -0.14888960842E+03  0.16576079917E+03  0.47000000000E+01 0. -1.
        -13    1    4    4    0    0 -0.50441520489E+02  0.21034130249E+01 -0.62829262838E+02  0.80599550894E+02  0.00000000000E+00 0.  1.
         14    1    4    4    0    0 -0.22845746572E+01  0.32571623629E+02 -0.16366331001E+03  0.16688861252E+03  0.00000000000E+00 0. -1.
         -5    1    5    5    0  502 -0.21741769259E+02  0.59636405557E+02  0.29226683901E+02  0.70039235077E+02  0.47000000000E+01 0.  1.
         11    1    6    6    0    0 -0.15350166738E+02 -0.68340563211E+02 -0.33818192865E+02  0.77780012648E+02  0.00000000000E+00 0. -1.
        -12    1    6    6    0    0  0.23246309058E+02  0.32633965284E+01  0.10942810960E+02  0.25899531916E+02  0.00000000000E+00 0.  1.
</event>
<event>
12    1  0.8728348E-002  0.1724539E+03  0.7818608E-02  0.1175480E+00
         21   -1    0    0  501  502  0.00000000000E+00  0.00000000000E+00  0.19493100035E+03  0.19493100035E+03  0.00000000000E+00 0. -1.
         21   -1    0    0  502  503 -0.00000000000E+00 -0.00000000000E+00 -0.21981488689E+03  0.21981488689E+03  0.00000000000E+00 0. -1.
         -6    2    1    2    0  503 -0.90641408436E+01 -0.17144017159E+02 -0.12764838099E+03  0.21455643864E+03  0.17136008934E+03 0.  0.
        -24    2    3    3    0    0 -0.21678693658E+02 -0.58223108063E+02 -0.12035002779E+03  0.17071610776E+03  0.10392287616E+03 0.  0.
          6    2    1    2  501    0  0.90641408436E+01  0.17144017159E+02  0.10276449446E+03  0.20018944859E+03  0.17070207390E+03 0.  0.
         24    2    5    5    0    0  0.42741561591E+02 -0.40483734190E+02  0.36018719537E+02  0.10567905306E+03  0.80030870781E+02 0.  0.
          5    1    5    5  501    0 -0.33677420748E+02  0.57627751350E+02  0.66745774918E+02  0.94510395530E+02  0.47000000000E+01 0. -1.
        -11    1    6    6    0    0 -0.16825833880E+02 -0.31808251665E+02  0.91619196355E+00  0.35996013216E+02  0.00000000000E+00 0.  1.
         12    1    6    6    0    0  0.59567395471E+02 -0.86754825256E+01  0.35102527573E+02  0.69683039847E+02  0.00000000000E+00 0. -1.
         -5    1    3    3    0  503  0.12614552815E+02  0.41079090904E+02 -0.72983531995E+01  0.43840330880E+02  0.47000000000E+01 0.  1.
         13    1    4    4    0    0 -0.28898305350E+02  0.14604988439E+02 -0.81850510188E+02  0.88022291253E+02  0.00000000000E+00 0. -1.
        -14    1    4    4    0    0  0.72196116915E+01 -0.72828096502E+02 -0.38499517606E+02  0.82693816510E+02  0.00000000000E+00 0.  1.
</event>
<event>
12    1  0.8728348E-002  0.2234975E+03  0.7818608E-02  0.1131350E+00
         21   -1    0    0  503  502  0.00000000000E+00  0.00000000000E+00  0.14890633149E+03  0.14890633149E+03  0.00000000000E+00 0.  1.
         21   -1    0    0  501  503 -0.00000000000E+00 -0.00000000000E+00 -0.34211630885E+03  0.34211630885E+03  0.00000000000E+00 0. -1.
          6    2    1    2  501    0 -0.74271621767E+02 -0.12086320331E+03 -0.13181860018E+03  0.25924677495E+03  0.17236171051E+03 0.  0.
         24    2    3    3    0    0 -0.74202116758E+02 -0.96287387322E+02 -0.16313005299E+03  0.21916594861E+03  0.81517383131E+02 0.  0.
         -6    2    1    2    0  502  0.74271621767E+02  0.12086320331E+03 -0.61391377176E+02  0.23177586539E+03  0.17270484321E+03 0.  0.
        -24    2    5    5    0    0  0.11857857661E+02 -0.71395958040E+01 -0.20166121682E+02  0.83445806996E+02  0.79780621863E+02 0.  0.
          5    1    3    3  501    0 -0.69505008328E-01 -0.24575815990E+02  0.31311452810E+02  0.40080826334E+02  0.47000000000E+01 0. -1.
        -13    1    4    4    0    0 -0.73956009124E+02 -0.31935625904E+02 -0.10582239698E+03  0.13299532018E+03  0.00000000000E+00 0.  1.
         14    1    4    4    0    0 -0.24610763479E+00 -0.64351761418E+02 -0.57307656020E+02  0.86170628436E+02  0.00000000000E+00 0. -1.
         -5    1    5    5    0  502  0.62413764106E+02  0.12800279912E+03 -0.41225255494E+02  0.14833005839E+03  0.47000000000E+01 0.  1.
         13    1    6    6    0    0  0.36066341867E+02  0.35463608764E+01 -0.37232382102E+02  0.51957751761E+02  0.00000000000E+00 0. -1.
        -14    1    6    6    0    0 -0.24208484206E+02 -0.10685956680E+02  0.17066260420E+02  0.31488055234E+02  0.00000000000E+00 0.  1.
</event>
<event>
12    1  0.8728348E-002  0.2818279E+03  0.7818608E-02  0.1094819E+00
         21   -1    0    0  503  502  0.00000000000E+00  0.00000000000E+00  0.12412040018E+03  0.12412040018E+03  0.00000000000E+00 0. -1.
         21   -1    0    0  501  503 -0.00000000000E+00 -0.00000000000E+00 -0.84233589618E+03  0.84233589618E+03  0.00000000000E+00 0.  1.
          6    2    1    2  501    0 -0.11746780437E+03 -0.18958592743E+03 -0.59675792157E+03  0.65957048396E+03  0.17079724064E+03 0.  0.
         24    2    3    3    0    0 -0.10443719775E+03 -0.20581436081E+03 -0.45673246609E+03  0.51792876362E+03  0.79868512014E+02 0.  0.
         -6    2    1    2    0  502  0.11746780437E+03  0.18958592743E+03 -0.12145757443E+03  0.30688581240E+03  0.17229466192E+03 0.  0.
        -24    2    5    5    0    0  0.11938615322E+03  0.18000601200E+03 -0.45465853111E+02  0.23012458162E+03  0.65076580514E+02 0.  0.
          5    1    3    3  501    0 -0.13030606621E+02  0.16228433380E+02 -0.14002545548E+03  0.14164172034E+03  0.47000000000E+01 0. -1.
        -11    1    4    4    0    0  0.34425624984E+01 -0.46781266426E+02 -0.13790813411E+03  0.14566740054E+03  0.00000000000E+00 0.  1.
         12    1    4    4    0    0 -0.10787976025E+03 -0.15903309439E+03 -0.31882433198E+03  0.37226136308E+03  0.00000000000E+00 0. -1.
         -5    1    5    5    0  502 -0.19183488492E+01  0.95799154337E+01 -0.75991721320E+02  0.76761230783E+02  0.47000000000E+01 0.  1.
         11    1    6    6    0    0  0.22446534885E+02  0.68685181899E+02  0.89263363939E+01  0.72809206989E+02  0.00000000000E+00 0. -1.
        -12    1    6    6    0    0  0.96939618336E+02  0.11132083010E+03 -0.54392189505E+02  0.15731537463E+03  0.00000000000E+00 0.  1.
</event>
<event>
12    1  0.8728348E-002  0.2015860E+03  0.7818608E-02  0.1149239E+00
         21   -1    0    0  501  502  0.00000000000E+00  0.00000000000E+00  0.38631407759E+03  0.38631407759E+03  0.00000000000E+00 0.  1.
         21   -1    0    0  502  503 -0.00000000000E+00 -0.00000000000E+00 -0.11197249608E+03  0.11197249608E+03  0.00000000000E+00 0.  1.
         -6    2    1    2    0  503  0.20117137455E+02 -0.93880446460E+02  0.20587027122E+03  0.28538934567E+03  0.17276073803E+03 0.  0.
        -24    2    3    3    0    0 -0.49269217306E+02  0.58185911622E+01  0.66430794639E+02  0.10040334091E+03  0.56625688619E+02 0.  0.
          6    2    1    2  501    0 -0.20117137455E+02  0.93880446460E+02  0.68471310295E+02  0.21289722800E+03  0.17725312947E+03 0.  0.
         24    2    5    5    0    0  0.21908793435E+02  0.29436164421E+02  0.85058830359E+02  0.13405256948E+03  0.96894807687E+02 0.  0.
          5    1    5    5  501    0 -0.42025930890E+02  0.64444282039E+02 -0.16587520064E+02  0.78844658516E+02  0.47000000000E+01 0. -1.
        -13    1    6    6    0    0 -0.14469332955E+02  0.52039535731E+02  0.70509152439E+02  0.88820129773E+02  0.00000000000E+00 0.  1.
         14    1    6    6    0    0  0.36378126390E+02 -0.22603371311E+02  0.14549677920E+02  0.45232439707E+02  0.00000000000E+00 0. -1.
         -5    1    3    3    0  503  0.69386354761E+02 -0.99699037622E+02  0.13943947658E+03  0.18498600476E+03  0.47000000000E+01 0.  1.
         13    1    4    4    0    0 -0.25982769778E+02  0.11517078529E+02  0.70567275941E+02  0.76075540464E+02  0.00000000000E+00 0. -1.
        -14    1    4    4    0    0 -0.23286447528E+02 -0.56984873673E+01 -0.41364813015E+01  0.24327800442E+02  0.00000000000E+00 0.  1.
</event>
<event>
12    1  0.8728348E-002  0.2218882E+03  0.7818608E-02  0.1132602E+00
         21   -1    0    0  503  502  0.00000000000E+00  0.00000000000E+00  0.19348907714E+04  0.19348907714E+04  0.00000000000E+00 0.  1.
         21   -1    0    0  501  503 -0.00000000000E+00 -0.00000000000E+00 -0.25527704045E+02  0.25527704045E+02  0.00000000000E+00 0. -1.
          6    2    1    2  501    0  0.11122927220E+03  0.84558823089E+02  0.87664837022E+03  0.90413536088E+03  0.17154078297E+03 0.  0.
         24    2    3    3    0    0  0.46637561670E+02  0.62469263343E+02  0.76815391680E+03  0.77586543399E+03  0.76349595664E+02 0.  0.
         -6    2    1    2    0  502 -0.11122927220E+03 -0.84558823089E+02  0.10327146972E+04  0.10562831146E+04  0.17237234956E+03 0.  0.
        -24    2    5    5    0    0 -0.75106748673E+02 -0.20891596372E+02  0.83132664656E+03  0.84195255357E+03  0.10817867947E+03 0.  0.
          5    1    3    3  501    0  0.64591710525E+02  0.22089559746E+02  0.10849445342E+03  0.12826992688E+03  0.47000000000E+01 0. -1.
        -11    1    4    4    0    0 -0.10868061017E+02  0.73681865961E+01  0.34692818777E+03  0.34717657236E+03  0.00000000000E+00 0.  1.
         12    1    4    4    0    0  0.57505622686E+02  0.55101076747E+02  0.42122572902E+03  0.42868886164E+03  0.00000000000E+00 0. -1.
         -5    1    5    5    0  502 -0.36122523522E+02 -0.63667226717E+02  0.20138805063E+03  0.21433056105E+03  0.47000000000E+01 0.  1.
         11    1    6    6    0    0 -0.68428824170E+02 -0.32353313140E+02  0.26837731180E+03  0.27884695146E+03  0.00000000000E+00 0. -1.
        -12    1    6    6    0    0 -0.66779245026E+01  0.11461716769E+02  0.56294933476E+03  0.56310560211E+03  0.00000000000E+00 0.  1.
</event>
<event>
12    1  0.8728348E-002  0.1910438E+03  0.7818608E-02  0.1157588E+00
         21   -1    0    0  503  502  0.00000000000E+00  0.00000000000E+00  0.87848546745E+02  0.87848546745E+02  0.00000000000E+00 0. -1.
         21   -1    0    0  501  503 -0.00000000000E+00 -0.00000000000E+00 -0.99726384611E+03  0.99726384611E+03  0.00000000000E+00 0. -1.
          6    2    1    2  501    0  0.81833058276E+02  0.10940980716E+02 -0.86948325746E+03  0.89022404851E+03  0.17228281128E+03 0.  0.
         24    2    3    3    0    0 -0.68592011951E-01  0.13375309892E+01 -0.67032445129E+03  0.67461693675E+03  0.75969386364E+02 0.  0.
         -6    2    1    2    0  502 -0.81833058276E+02 -0.10940980716E+02 -0.39932041911E+02  0.19488834435E+03  0.17196088016E+03 0.  0.
        -24    2    5    5    0    0 -0.11006512156E+03 -0.87809505488E+01 -0.71689991083E+02  0.15208212443E+03  0.76145135594E+02 0.  0.
          5    1    3    3  501    0  0.81901650287E+02  0.96034497267E+01 -0.19915880617E+03  0.21560711176E+03  0.47000000000E+01 0. -1.
        -11    1    4    4    0    0 -0.17390148150E+02  0.32213514693E+02 -0.44779932976E+03  0.44929318659E+03  0.00000000000E+00 0.  1.
         12    1    4    4    0    0  0.17321556138E+02 -0.30875983704E+02 -0.22252512152E+03  0.22532375016E+03  0.00000000000E+00 0. -1.
         -5    1    5    5    0  502  0.28232063283E+02 -0.21600301671E+01  0.31757949172E+02  0.42806219912E+02  0.47000000000E+01 0.  1.
         11    1    6    6    0    0 -0.78657867858E+02 -0.39009380157E+01 -0.58497777986E+01  0.78971497350E+02  0.00000000000E+00 0. -1.
        -12    1    6    6    0    0 -0.31407253701E+02 -0.48800125331E+01 -0.65840213285E+02  0.73110627085E+02  0.00000000000E+00 0.  1.
</event>
<event>
12    1  0.8728348E-002  0.1903227E+03  0.7818608E-02  0.1158364E+00
         21   -1    0    0  503  502  0.00000000000E+00  0.00000000000E+00  0.10064883209E+03  0.10064883209E+03  0.00000000000E+00 0. -1.
         21   -1    0    0  501  503 -0.00000000000E+00 -0.00000000000E+00 -0.71886756022E+03  0.71886756022E+03  0.00000000000E+00 0. -1.
          6    2    1    2  501    0 -0.58347575431E+02 -0.54226462822E+02 -0.59966592509E+03  0.62914383204E+03  0.17285193333E+03 0.  0.
         24    2    3    3    0    0 -0.67157719476E+02 -0.97951195258E+02 -0.45608206437E+03  0.47871814965E+03  0.83997746557E+02 0.  0.
         -6    2    1    2    0  502  0.58347575431E+02  0.54226462822E+02 -0.18552803047E+02  0.19037256026E+03  0.17190856980E+03 0.  0.
        -24    2    5    5    0    0  0.28499457247E+02  0.10102753658E+03 -0.25383658339E+02  0.13424768834E+03  0.79745404269E+02 0.  0.
          5    1    3    3  501    0  0.88101440444E+01  0.43724732435E+02 -0.14358386072E+03  0.15042568240E+03  0.47000000000E+01 0. -1.
        -13    1    4    4    0    0 -0.73482768608E+02 -0.76907928185E+02 -0.25300768388E+03  0.27445843911E+03  0.00000000000E+00 0.  1.
         14    1    4    4    0    0  0.63250491325E+01 -0.21043267073E+02 -0.20307438049E+03  0.20425971053E+03  0.00000000000E+00 0. -1.
         -5    1    5    5    0  502  0.29848118184E+02 -0.46801073762E+02  0.68308552919E+01  0.56124871924E+02  0.47000000000E+01 0.  1.
         13    1    6    6    0    0  0.76474196562E+01  0.51682524323E+02 -0.52620052596E+02  0.74151441543E+02  0.00000000000E+00 0. -1.
        -14    1    6    6    0    0  0.20852037591E+02  0.49345012262E+02  0.27236394257E+02  0.60096246796E+02  0.00000000000E+00 0.  1.
</event>
<event>
12    1  0.8728348E-002  0.1885300E+03  0.7818608E-02  0.1160227E+00
         21   -1    0    0  503  502  0.00000000000E+00  0.00000000000E+00  0.41216834828E+03  0.41216834828E+03  0.00000000000E+00 0.  1.
         21   -1    0    0  501  503 -0.00000000000E+00 -0.00000000000E+00 -0.11636419265E+03  0.11636419265E+03  0.00000000000E+00 0.  1.
          6    2    1    2  501    0  0.60012604851E+02  0.47204375121E+02  0.12070239423E+02  0.18891599914E+03  0.17237690762E+03 0.  0.
         24    2    3    3    0    0  0.10027560932E+03  0.19510920567E+01  0.45785715222E+01  0.12770175043E+03  0.78916216077E+02 0.  0.
         -6    2    1    2    0  502 -0.60012604851E+02 -0.47204375121E+02  0.28373391621E+03  0.33961654179E+03  0.17030764658E+03 0.  0.
        -24    2    5    5    0    0 -0.24525396179E+02 -0.39891556451E+02  0.53374871582E+02  0.10637803996E+03  0.79212241074E+02 0.  0.
          5    1    3    3  501    0 -0.40263004472E+02  0.45253283064E+02  0.74916679011E+01  0.61214248710E+02  0.47000000000E+01 0. -1.
        -13    1    4    4    0    0  0.60656892501E+02  0.65426220260E+00 -0.36354959910E+02  0.70720363241E+02  0.00000000000E+00 0.  1.
         14    1    4    4    0    0  0.39618716822E+02  0.12968298541E+01  0.40933531432E+02  0.56981387187E+02  0.00000000000E+00 0. -1.
         -5    1    5    5    0  502 -0.35487208671E+02 -0.73128186695E+01  0.23035904463E+03  0.23323850183E+03  0.47000000000E+01 0.  1.
         13    1    6    6    0    0  0.28849217777E+02 -0.18114907821E+02  0.15672342115E+02  0.37497327359E+02  0.00000000000E+00 0. -1.
        -14    1    6    6    0    0 -0.53374613956E+02 -0.21776648631E+02  0.37702529467E+02  0.68880712603E+02  0.00000000000E+00 0.  1.
</event>
<event>
12    1  0.8728348E-002  0.1807854E+03  0.7818608E-02  0.1167131E+00
         21   -1    0    0  503  502  0.00000000000E+00  0.00000000000E+00  0.23201169640E+02  0.23201169640E+02  0.00000000000E+00 0.  1.
         21   -1    0    0  501  503 -0.00000000000E+00 -0.00000000000E+00 -0.16600718947E+04  0.16600718947E+04  0.00000000000E+00 0.  1.
          6    2    1    2  501    0  0.39429792428E+02  0.39282993099E+02 -0.11470714919E+04  0.11611747667E+04  0.17162741378E+03 0.  0.
         24    2    3    3    0    0  0.82149591504E+02  0.59646579182E+02 -0.72242779132E+03  0.73387625356E+03  0.79788295337E+02 0.  0.
         -6    2    1    2    0  502 -0.39429792428E+02 -0.39282993099E+02 -0.48979923313E+03  0.52209829763E+03  0.17200430674E+03 0.  0.
        -24    2    5    5    0    0 -0.79238409276E+02 -0.27852201358E+02 -0.21633474767E+03  0.24547526211E+03  0.80018189385E+02 0.  0.
          5    1    3    3  501    0 -0.42719799076E+02 -0.20363586083E+02 -0.42464370059E+03  0.42729851313E+03  0.47000000000E+01 0. -1.
        -13    1    4    4    0    0  0.43315425591E+02 -0.50147660548E+01 -0.14133339396E+03  0.14790707293E+03  0.00000000000E+00 0.  1.
         14    1    4    4    0    0  0.38834165913E+02  0.64661345237E+02 -0.58109439736E+03  0.58596918063E+03  0.00000000000E+00 0. -1.
         -5    1    5    5    0  502  0.39808616848E+02 -0.11430791741E+02 -0.27346448546E+03  0.27662303552E+03  0.47000000000E+01 0.  1.
         11    1    6    6    0    0 -0.25165196539E+02  0.25519111350E+02 -0.41426340392E+02  0.54778224133E+02  0.00000000000E+00 0. -1.
        -12    1    6    6    0    0 -0.54073212737E+02 -0.53371312708E+02 -0.17490840728E+03  0.19069703798E+03  0.00000000000E+00 0.  1.
</event>
<event>
12    1  0.8728348E-002  0.2823338E+03  0.7818608E-02  0.1094653E+00
         21   -1    0    0  503  502  0.00000000000E+00  0.00000000000E+00  0.10164313625E+04  0.10164313625E+04  0.00000000000E+00 0.  1.
         21   -1    0    0  501  503 -0.00000000000E+00 -0.00000000000E+00 -0.80421441697E+02  0.80421441697E+02  0.00000000000E+00 0.  1.
          6    2    1    2  501    0 -0.43672014019E+02  0.21917891983E+03  0.56279142795E+03  0.62887374555E+03  0.16970961304E+03 0.  0.
         24    2    3    3    0    0  0.23258939075E+02  0.17059224470E+03  0.30545778191E+03  0.35853486032E+03  0.74833798073E+02 0.  0.
         -6    2    1    2    0  502  0.43672014019E+02 -0.21917891983E+03  0.37321849289E+03  0.46797905869E+03  0.17252742457E+03 0.  0.
        -24    2    5    5    0    0  0.68766995166E+02 -0.64557575602E+02  0.19192800427E+03  0.22834214702E+03  0.80044969184E+02 0.  0.
          5    1    3    3  501    0 -0.66930953094E+02  0.48586675124E+02  0.25733364604E+03  0.27033888523E+03  0.47000000000E+01 0. -1.
        -13    1    4    4    0    0  0.43088706971E+02  0.52316074777E+02  0.11325638507E+03  0.13198718539E+03  0.00000000000E+00 0.  1.
         14    1    4    4    0    0 -0.19829767896E+02  0.11827616993E+03  0.19220139684E+03  0.22654767493E+03  0.00000000000E+00 0. -1.
         -5    1    5    5    0  502 -0.25094981146E+02 -0.15462134423E+03  0.18129048862E+03  0.23963691166E+03  0.47000000000E+01 0.  1.
         13    1    6    6    0    0 -0.86506130974E+01 -0.67603922382E+01  0.78856094108E+02  0.79616704203E+02  0.00000000000E+00 0. -1.
        -14    1    6    6    0    0  0.77417608263E+02 -0.57797183364E+02  0.11307191016E+03  0.14872544282E+03  0.00000000000E+00 0.  1.
</event>
<event>
12    1  0.8728348E-002  0.1865950E+03  0.7818608E-02  0.1161683E+00
         21   -1    0    0  501  502  0.00000000000E+00  0.00000000000E+00  0.21544935307E+03  0.21544935307E+03  0.00000000000E+00 0.  1.
         21   -1    0    0  502  503 -0.00000000000E+00 -0.00000000000E+00 -0.38462696829E+03  0.38462696829E+03  0.00000000000E+00 0.  1.
         -6    2    1    2    0  503  0.46798861115E+02 -0.16246314178E+02 -0.31323176755E+03  0.36434490850E+03  0.17938504961E+03 0.  0.
        -24    2    3    3    0    0  0.87285132603E+02  0.19426026866E+02 -0.15859066579E+03  0.20049249183E+03  0.83965320891E+02 0.  0.
          6    2    1    2  501    0 -0.46798861115E+02  0.16246314178E+02  0.14405415233E+03  0.23573141287E+03  0.17989892741E+03 0.  0.
         24    2    5    5    0    0 -0.52993729048E+02  0.14120815034E+01  0.17590515500E+03  0.19974520414E+03  0.78391286043E+02 0.  0.
          5    1    5    5  501    0  0.61948679322E+01  0.14834232675E+02 -0.31851002669E+02  0.35986208730E+02  0.47000000000E+01 0. -1.
        -11    1    6    6    0    0 -0.31539977996E+02  0.35413686499E+02  0.56559820470E+02  0.73809976935E+02  0.00000000000E+00 0.  1.
         12    1    6    6    0    0 -0.21453751051E+02 -0.34001604995E+02  0.11934533453E+03  0.12593522720E+03  0.00000000000E+00 0. -1.
         -5    1    3    3    0  503 -0.40486271488E+02 -0.35672341045E+02 -0.15464110176E+03  0.16385241667E+03  0.47000000000E+01 0.  1.
         11    1    4    4    0    0  0.97087093757E+02 -0.36865457215E+01 -0.13227468688E+03  0.16412217151E+03  0.00000000000E+00 0. -1.
        -12    1    4    4    0    0 -0.98019611539E+01  0.23112572588E+02 -0.26315978914E+02  0.36370320322E+02  0.00000000000E+00 0.  1.
</event>
<event>
12    1  0.8728348E-002  0.2696158E+03  0.7818608E-02  0.1101789E+00
         21   -1    0    0  501  502  0.00000000000E+00  0.00000000000E+00  0.18784045324E+03  0.18784045324E+03  0.00000000000E+00 0. -1.
         21   -1    0    0  502  503 -0.00000000000E+00 -0.00000000000E+00 -0.40314096950E+03  0.40314096950E+03  0.00000000000E+00 0. -1.
         -6    2    1    2    0  503  0.58224765365E+02  0.19766742109E+03 -0.43068767119E+02  0.27104948772E+03  0.17073480439E+03 0.  0.
        -24    2    3    3    0    0  0.22797603932E+02  0.21218162675E+03 -0.28793463038E+02  0.22992017652E+03  0.80581949471E+02 0.  0.
          6    2    1    2  501    0 -0.58224765365E+02 -0.19766742109E+03 -0.17223174914E+03  0.31993193501E+03  0.17386815398E+03 0.  0.
         24    2    5    5    0    0 -0.30177987322E+02 -0.11145749809E+03 -0.19142107122E+02  0.14195075321E+03  0.80312584785E+02 0.  0.
          5    1    5    5  501    0 -0.28046778044E+02 -0.86209923006E+02 -0.15308964201E+03  0.17798118180E+03  0.47000000000E+01 0. -1.
        -11    1    6    6    0    0  0.77343463896E+01 -0.96856083890E+02 -0.29453737304E+00  0.97164848854E+02  0.00000000000E+00 0.  1.
         12    1    6    6    0    0 -0.37912333711E+02 -0.14601414196E+02 -0.18847569749E+02  0.44785904361E+02  0.00000000000E+00 0. -1.
         -5    1    3    3    0  503  0.35427161434E+02 -0.14514205664E+02 -0.14275304081E+02  0.41129311201E+02  0.47000000000E+01 0.  1.
         11    1    4    4    0    0  0.53171508750E+02  0.14217510416E+03 -0.19935067373E+02  0.15309597153E+03  0.00000000000E+00 0. -1.
        -12    1    4    4    0    0 -0.30373904818E+02  0.70006522591E+02 -0.88583956650E+01  0.76824204994E+02  0.00000000000E+00 0.  1.
</event>
<event>
12    1  0.8728348E-002  0.2044666E+03  0.7818608E-02  0.1146212E+00
         21   -1    0    0  503  502  0.00000000000E+00  0.00000000000E+00  0.91475418544E+03  0.91475418544E+03  0.00000000000E+00 0. -1.
         21   -1    0    0  501  503 -0.00000000000E+00 -0.00000000000E+00 -0.70294278638E+02  0.70294278638E+02  0.00000000000E+00 0.  1.
          6    2    1    2  501    0 -0.61334244934E+02 -0.91795508395E+02  0.12909848831E+03  0.24104003849E+03  0.17101337816E+03 0.  0.
         24    2    3    3    0    0 -0.16467610018E+02 -0.12442321700E+03  0.99241994288E+02  0.17786502339E+03  0.77683164262E+02 0.  0.
         -6    2    1    2    0  502  0.61334244934E+02  0.91795508395E+02  0.71536141850E+03  0.74400842559E+03  0.17209960289E+03 0.  0.
        -24    2    5    5    0    0  0.27755350343E+01  0.35735522967E+02  0.16265791670E+03  0.18537160675E+03  0.81365247655E+02 0.  0.
          5    1    3    3  501    0 -0.44866634915E+02  0.32627708601E+02  0.29856494020E+02  0.63175015095E+02  0.47000000000E+01 0. -1.
        -11    1    4    4    0    0 -0.26914816965E+02 -0.60956440120E+01  0.10246091562E+02  0.29437164274E+02  0.00000000000E+00 0.  1.
         12    1    4    4    0    0  0.10447206947E+02 -0.11832757298E+03  0.88995902726E+02  0.14842785912E+03  0.00000000000E+00 0. -1.
         -5    1    5    5    0  502  0.58558709899E+02  0.56059985428E+02  0.55270350180E+03  0.55863681885E+03  0.47000000000E+01 0.  1.
         13    1    6    6    0    0  0.95737177433E+01  0.19374214219E+02  0.16594976645E+03  0.16735095229E+03  0.00000000000E+00 0. -1.
        -14    1    6    6    0    0 -0.67981827090E+01  0.16361308748E+02 -0.32918497521E+01  0.18020654452E+02  0.00000000000E+00 0.  1.
</event>
<event>
12    1  0.8728348E-002  0.2221497E+03  0.7818608E-02  0.1132348E+00
         21   -1    0    0  501  502  0.00000000000E+00  0.00000000000E+00  0.60656047879E+03  0.60656047879E+03  0.00000000000E+00 0.  1.
         21   -1    0    0  502  503 -0.00000000000E+00 -0.00000000000E+00 -0.90646803238E+02  0.90646803238E+02  0.00000000000E+00 0.  1.
         -6    2    1    2    0  503  0.13211030409E+03 -0.44873221263E+02  0.14585874774E+03  0.26575411912E+03  0.17286913868E+03 0.  0.
        -24    2    3    3    0    0  0.15274979320E+03  0.61374591047E+00  0.11978085795E+03  0.20921033937E+03  0.78029713322E+02 0.  0.
          6    2    1    2  501    0 -0.13211030409E+03  0.44873221263E+02  0.37005492781E+03  0.43145316290E+03  0.17246577559E+03 0.  0.
         24    2    5    5    0    0 -0.62164099938E+01  0.43044253618E+02  0.18446435590E+03  0.20713515632E+03  0.83584824377E+02 0.  0.
          5    1    5    5  501    0 -0.12589389409E+03  0.18289676447E+01  0.18559057191E+03  0.22431800658E+03  0.47000000000E+01 0. -1.
        -13    1    6    6    0    0 -0.22606188257E+02  0.21133151884E+02  0.17569794214E+03  0.17840240113E+03  0.00000000000E+00 0.  1.
         14    1    6    6    0    0  0.16389778263E+02  0.21911101735E+02  0.87664137506E+01  0.28732755190E+02  0.00000000000E+00 0. -1.
         -5    1    3    3    0  503 -0.20639489110E+02 -0.45486967173E+02  0.26077889787E+02  0.56543779756E+02  0.47000000000E+01 0.  1.
         11    1    4    4    0    0  0.27491783337E+02  0.31012440623E+02  0.18988528094E+02  0.45586553101E+02  0.00000000000E+00 0. -1.
        -12    1    4    4    0    0  0.12525800986E+03 -0.30398694713E+02  0.10079232986E+03  0.16362378627E+03  0.00000000000E+00 0.  1.
</event>
<event>
12    1  0.8728348E-002  0.1763337E+03  0.7818608E-02  0.1171846E+00
         21   -1    0    0  503  502  0.00000000000E+00  0.00000000000E+00  0.91801206950E+02  0.91801206950E+02  0.00000000000E+00 0.  1.
         21   -1    0    0  501  503 -0.00000000000E+00 -0.00000000000E+00 -0.46718344010E+03  0.46718344010E+03  0.00000000000E+00 0.  1.
          6    2    1    2  501    0 -0.16772905790E+02 -0.29778058089E+02 -0.33551196030E+03  0.37819968011E+03  0.17116851175E+03 0.  0.
         24    2    3    3    0    0 -0.42696643901E+02  0.82849457277E+01 -0.31443786250E+03  0.32733672644E+03  0.79915701702E+02 0.  0.
         -6    2    1    2    0  502  0.16772905790E+02  0.29778058089E+02 -0.39870272852E+02  0.18078496695E+03  0.17298989133E+03 0.  0.
        -24    2    5    5    0    0 -0.93313034837E+01 -0.45304825270E+02 -0.39159781169E+02  0.10115165787E+03  0.80984992511E+02 0.  0.
          5    1    3    3  501    0  0.25923738111E+02 -0.38063003816E+02 -0.21074097797E+02  0.50862953662E+02  0.47000000000E+01 0. -1.
        -13    1    4    4    0    0 -0.20509879410E+02 -0.23210390831E+02 -0.25251570771E+03  0.25440825466E+03  0.00000000000E+00 0.  1.
         14    1    4    4    0    0 -0.22186764491E+02  0.31495336558E+02 -0.61922154788E+02  0.72928471786E+02  0.00000000000E+00 0. -1.
         -5    1    5    5    0  502  0.26104209274E+02  0.75082883359E+02 -0.71049168294E+00  0.79633309071E+02  0.47000000000E+01 0.  1.
         11    1    6    6    0    0  0.70775598309E+01 -0.27080146707E+02  0.21778212027E+02  0.35464302022E+02  0.00000000000E+00 0. -1.
        -12    1    6    6    0    0 -0.16408863315E+02 -0.18224678563E+02 -0.60937993196E+02  0.65687355852E+02  0.00000000000E+00 0.  1.
</event>
<event>
12    1  0.8728348E-002  0.2655095E+03  0.7818608E-02  0.1104226E+00
         21   -1    0    0  501  502  0.00000000000E+00  0.00000000000E+00  0.78938911181E+03  0.78938911181E+03  0.00000000000E+00 0.  1.
         21   -1    0    0  502  503 -0.00000000000E+00 -0.00000000000E+00 -0.91133769233E+02  0.91133769233E+02  0.00000000000E+00 0.  1.
         -6    2    1    2    0  503  0.12893234951E+03  0.15006399842E+03  0.27286089391E+03  0.37906927956E+03  0.17348687821E+03 0.  0.
        -24    2    3    3    0    0  0.75307346726E+02  0.98833832408E+02  0.70353212378E+02  0.16335738394E+03  0.79351984833E+02 0.  0.
          6    2    1    2  501    0 -0.12893234951E+03 -0.15006399842E+03  0.42539444867E+03  0.50145360148E+03  0.17706643699E+03 0.  0.
         24    2    5    5    0    0 -0.22810452818E+02 -0.22064667965E+01  0.13346287666E+03  0.15740441989E+03  0.80241053719E+02 0.  0.
          5    1    5    5  501    0 -0.10612189669E+03 -0.14785753163E+03  0.29193157201E+03  0.34404918159E+03  0.47000000000E+01 0. -1.
        -11    1    6    6    0    0 -0.30054877725E+01 -0.60161559529E+01 -0.10263154877E+02  0.12270266388E+02  0.00000000000E+00 0.  1.
         12    1    6    6    0    0 -0.19804965045E+02  0.38096891565E+01  0.14372603154E+03  0.14513415351E+03  0.00000000000E+00 0. -1.
         -5    1    3    3    0  503  0.53625002784E+02  0.51230166015E+02  0.20250768153E+03  0.21571189562E+03  0.47000000000E+01 0.  1.
         13    1    4    4    0    0  0.28961451340E+02  0.65678285732E+02  0.77838794203E+02  0.10588333563E+03  0.00000000000E+00 0. -1.
        -14    1    4    4    0    0  0.46345895386E+02  0.33155546677E+02 -0.74855818242E+01  0.57474048316E+02  0.00000000000E+00 0.  1.
</event>
<event>
12    1  0.8728348E-002  0.2112732E+03  0.7818608E-02  0.1140981E+00
         21   -1    0    0  503  502  0.00000000000E+00  0.00000000000E+00  0.32567851065E+03  0.32567851065E+03  0.00000000000E+00 0.  1.
         21   -1    0    0  501  503 -0.00000000000E+00 -0.00000000000E+00 -0.14862080148E+03  0.14862080148E+03  0.00000000000E+00 0. -1.
          6    2    1    2  501    0 -0.67480646274E+02  0.10062950101E+03  0.15809098586E+03  0.26217651232E+03  0.17048117112E+03 0.  0.
         24    2    3    3    0    0 -0.34195481729E+02 -0.85037083399E+01  0.10664934082E+03  0.13693158265E+03  0.78323255828E+02 0.  0.
         -6    2    1    2    0  502  0.67480646274E+02 -0.10062950101E+03  0.18966723309E+02  0.21212279980E+03  0.17307920588E+03 0.  0.
        -24    2    5    5    0    0 -0.68117094897E+01 -0.10027975672E+03 -0.18624135192E+02  0.12872832104E+03  0.78241250191E+02 0.  0.
          5    1    3    3  501    0 -0.33285164544E+02  0.10913320935E+03  0.51441645037E+02  0.12524492966E+03  0.47000000000E+01 0. -1.
        -13    1    4    4    0    0 -0.55593281835E+02 -0.61102869415E+01  0.99684284832E+02  0.11430181641E+03  0.00000000000E+00 0.  1.
         14    1    4    4    0    0  0.21397800106E+02 -0.23934213985E+01  0.69650559926E+01  0.22629766246E+02  0.00000000000E+00 0. -1.
         -5    1    5    5    0  502  0.74292355764E+02 -0.34974429392E+00  0.37590858501E+02  0.83394478767E+02  0.47000000000E+01 0.  1.
         11    1    6    6    0    0 -0.36476483034E+01 -0.59166467995E+02  0.28783019697E+02  0.65897181245E+02  0.00000000000E+00 0. -1.
        -12    1    6    6    0    0 -0.31640611863E+01 -0.41113288725E+02 -0.47407154888E+02  0.62831139792E+02  0.00000000000E+00 0.  1.
</event>
<event>
12    1  0.8728348E-002  0.1724886E+03  0.7818608E-02  0.1175444E+00
         21   -1    0    0  503  502  0.00000000000E+00  0.00000000000E+00  0.76443302071E+03  0.76443302071E+03  0.00000000000E+00 0. -1.
         21   -1    0    0  501  503 -0.00000000000E+00 -0.00000000000E+00 -0.39000839269E+02  0.39000839269E+02  0.00000000000E+00 0. -1.
          6    2    1    2  501    0  0.30005989468E+01 -0.14494392340E+02  0.33275262473E+03  0.37480209509E+03  0.17185229185E+03 0.  0.
         24    2    3    3    0    0  0.43830858775E+02  0.43279604008E+02  0.18260266525E+03  0.20875377349E+03  0.80250459736E+02 0.  0.
         -6    2    1    2    0  502 -0.30005989468E+01  0.14494392340E+02  0.39267955671E+03  0.42863176489E+03  0.17119831954E+03 0.  0.
        -24    2    5    5    0    0 -0.19053039765E+02  0.68195417642E+02  0.31389050870E+03  0.33182636700E+03  0.81042291878E+02 0.  0.
          5    1    3    3  501    0 -0.40830259828E+02 -0.57773996348E+02  0.15014995948E+03  0.16604832160E+03  0.47000000000E+01 0. -1.
        -13    1    4    4    0    0  0.89652442936E+01  0.20001295970E+02  0.15927886052E+03  0.16077992056E+03  0.00000000000E+00 0.  1.
         14    1    4    4    0    0  0.34865614482E+02  0.23278308038E+02  0.23323804722E+02  0.47973852931E+02  0.00000000000E+00 0. -1.
         -5    1    5    5    0  502  0.16052440818E+02 -0.53701025301E+02  0.78789048007E+02  0.96805397889E+02  0.47000000000E+01 0.  1.
         13    1    6    6    0    0 -0.24709218950E+02  0.21979855715E+02  0.25311226581E+03  0.25526354746E+03  0.00000000000E+00 0. -1.
        -14    1    6    6    0    0  0.56561791852E+01  0.46215561927E+02  0.60778242893E+02  0.76562819543E+02  0.00000000000E+00 0.  1.
</event>
<event>
12    1  0.8728348E-002  0.2693241E+03  0.7818608E-02  0.1101690E+00
         21   -1    0    0  503  502  0.00000000000E+00  0.00000000000E+00  0.21379553344E+03  0.21379553344E+03  0.00000000000E+00 0. -1.
         21   -1    0    0  501  503 -0.00000000000E+00 -0.00000000000E+00 -0.38294492849E+03  0.38294492849E+03  0.00000000000E+00 0.  1.
          6    2    1    2  501    0 -0.18149774168E+03 -0.99916133078E+02 -0.18558743833E+03  0.32707514336E+03  0.17207785522E+03 0.  0.
         24    2    3    3    0    0 -0.18130729896E+03 -0.48759625637E+02 -0.18532499990E+03  0.27570216023E+03  0.80102982581E+02 0.  0.
         -6    2    1    2    0  502  0.18149774168E+03  0.99916133078E+02  0.16438043284E+02  0.26966531856E+03  0.17182697950E+03 0.  0.
        -24    2    5    5    0    0  0.25537185450E+02  0.56839460353E+02  0.33973434570E+02  0.10684985622E+03  0.79873809368E+02 0.  0.
          5    1    3    3  501    0 -0.19044271356E+00 -0.51156507441E+02 -0.26243843297E+00  0.51372983133E+02  0.47000000000E+01 0. -1.
        -11    1    4    4    0    0 -0.12817192601E+03 -0.70453935284E+02 -0.12448946281E+03  0.19206620204E+03  0.00000000000E+00 0.  1.
         12    1    4    4    0    0 -0.53135372949E+02  0.21694309648E+02 -0.60835537088E+02  0.83635958190E+02  0.00000000000E+00 0. -1.
         -5    1    5    5    0  502  0.15596055623E+03  0.43076672725E+02 -0.17535391286E+02  0.16281546235E+03  0.47000000000E+01 0.  1.
         13    1    6    6    0    0 -0.26402317078E+02  0.31763836000E+01  0.10070272338E+02  0.28435578855E+02  0.00000000000E+00 0. -1.
        -14    1    6    6    0    0  0.51939502527E+02  0.53663076753E+02  0.23903162232E+02  0.78414277361E+02  0.00000000000E+00 0.  1.
</event>
<event>
12    1  0.8728348E-002  0.2035446E+03  0.7818608E-02  0.1146884E+00
         21   -1    0    0  501  502  0.00000000000E+00  0.00000000000E+00  0.35366340434E+03  0.35366340434E+03  0.00000000000E+00 0.  1.
         21   -1    0    0  502  503 -0.00000000000E+00 -0.00000000000E+00 -0.14326043118E+03  0.14326043118E+03  0.00000000000E+00 0.  1.
         -6    2    1    2    0  503 -0.10616079767E+03  0.16356786329E+02  0.21196202168E+03  0.29386786133E+03  0.17289523380E+03 0.  0.
        -24    2    3    3    0    0 -0.24770135053E+02  0.28421757042E+01  0.19121723447E+03  0.20866503945E+03  0.79720953177E+02 0.  0.
          6    2    1    2  501    0  0.10616079767E+03 -0.16356786329E+02 -0.15590485246E+01  0.20305597418E+03  0.17231261880E+03 0.  0.
         24    2    5    5    0    0  0.57882849741E+02  0.49713237934E+02  0.31874680552E+02  0.11453528394E+03  0.79249641550E+02 0.  0.
          5    1    5    5  501    0  0.48277947926E+02 -0.66070024264E+02 -0.33433729076E+02  0.88520690249E+02  0.47000000000E+01 0. -1.
        -13    1    6    6    0    0  0.59630509013E+02  0.34795298934E+02  0.54099320425E+02  0.87711156095E+02  0.00000000000E+00 0.  1.
         14    1    6    6    0    0 -0.17476592717E+01  0.14917939000E+02 -0.22224639873E+02  0.26824127841E+02  0.00000000000E+00 0. -1.
         -5    1    3    3    0  503 -0.81390662613E+02  0.13514610625E+02  0.20744787207E+02  0.85202821886E+02  0.47000000000E+01 0.  1.
         13    1    4    4    0    0  0.25907574121E+02  0.16893957225E+02  0.69259045572E+02  0.75851325507E+02  0.00000000000E+00 0. -1.
        -14    1    4    4    0    0 -0.50677709175E+02 -0.14051781520E+02  0.12195818890E+03  0.13281371394E+03  0.00000000000E+00 0.  1.
</event>
<event>
12    1  0.8728348E-002  0.1826528E+03  0.7818608E-02  0.1165603E+00
         21   -1    0    0  501  502  0.00000000000E+00  0.00000000000E+00  0.85923087371E+03  0.85923087371E+03  0.00000000000E+00 0. -1.
         21   -1    0    0  502  503 -0.00000000000E+00 -0.00000000000E+00 -0.50199530520E+02  0.50199530520E+02  0.00000000000E+00 0. -1.
         -6    2    1    2    0  503  0.10425207195E+02 -0.54251753639E+02  0.18643523270E+03  0.26099833970E+03  0.17409795984E+03 0.  0.
        -24    2    3    3    0    0 -0.16111220738E+02 -0.89673513190E+02  0.17958838209E+03  0.21596665730E+03  0.78030120349E+02 0.  0.
          6    2    1    2  501    0 -0.10425207195E+02  0.54251753639E+02  0.62259611049E+03  0.64843206452E+03  0.17258704408E+03 0.  0.
         24    2    5    5    0    0 -0.42346245387E+02  0.90477818586E+02  0.35282751925E+03  0.37433634533E+03  0.75239623461E+02 0.  0.
          5    1    5    5  501    0  0.31921038192E+02 -0.36226064946E+02  0.26976859124E+03  0.27409571919E+03  0.47000000000E+01 0. -1.
        -13    1    6    6    0    0 -0.32112995627E+02  0.63647953902E+01  0.49117884076E+02  0.59028142819E+02  0.00000000000E+00 0.  1.
         14    1    6    6    0    0 -0.10233249759E+02  0.84113023195E+02  0.30370963518E+03  0.31530820251E+03  0.00000000000E+00 0. -1.
         -5    1    3    3    0  503  0.26536427933E+02  0.35421759551E+02  0.68468506075E+01  0.45031682406E+02  0.47000000000E+01 0.  1.
         13    1    4    4    0    0 -0.41534054957E+02 -0.21387938895E+02  0.78606057830E+02  0.91440876958E+02  0.00000000000E+00 0. -1.
        -14    1    4    4    0    0  0.25422834218E+02 -0.68285574294E+02  0.10098232426E+03  0.12452578034E+03  0.00000000000E+00 0.  1.
</event>
<event>
12    1  0.8728348E-002  0.1739886E+03  0.7818608E-02  0.1174047E+00
         21   -1    0    0  503  502  0.00000000000E+00  0.00000000000E+00  0.33474104829E+03  0.33474104829E+03  0.00000000000E+00 0.  1.
         21   -1    0    0  501  503 -0.00000000000E+00 -0.00000000000E+00 -0.10162307132E+03  0.10162307132E+03  0.00000000000E+00 0.  1.
          6    2    1    2  501    0  0.36408737931E+01  0.16294001293E+02  0.42576927523E+02  0.17912237898E+03  0.17318568490E+03 0.  0.
         24    2    3    3    0    0 -0.16237921060E+02  0.71843830434E+02  0.41971970082E+01  0.10858130076E+03  0.79668540596E+02 0.  0.
         -6    2    1    2    0  502 -0.36408737931E+01 -0.16294001293E+02  0.19054104945E+03  0.25724174063E+03  0.17201357842E+03 0.  0.
        -24    2    5    5    0    0 -0.43011577219E+02  0.35420672202E+02  0.65103170786E+02  0.11588682863E+03  0.78017398127E+02 0.  0.
          5    1    3    3  501    0  0.19878794853E+02 -0.55549829141E+02  0.38379730515E+02  0.70541078222E+02  0.47000000000E+01 0. -1.
        -13    1    4    4    0    0 -0.20873715358E+02  0.45111515119E+02 -0.35084003529E+02  0.60841171034E+02  0.00000000000E+00 0.  1.
         14    1    4    4    0    0  0.46357942975E+01  0.26732315315E+02  0.39281200537E+02  0.47740129729E+02  0.00000000000E+00 0. -1.
         -5    1    5    5    0  502  0.39370703426E+02 -0.51714673496E+02  0.12543787866E+03  0.14135491200E+03  0.47000000000E+01 0.  1.
         13    1    6    6    0    0 -0.39822070926E+02  0.14106053432E+01 -0.27276365040E+01  0.39940294706E+02  0.00000000000E+00 0. -1.
        -14    1    6    6    0    0 -0.31895062930E+01  0.34010066859E+02  0.67830807290E+02  0.75946533929E+02  0.00000000000E+00 0.  1.
</event>
<event>
12    1  0.8728348E-002  0.2457662E+03  0.7818608E-02  0.1116108E+00
         21   -1    0    0  503  502  0.00000000000E+00  0.00000000000E+00  0.32090264479E+03  0.32090264479E+03  0.00000000000E+00 0. -1.
         21   -1    0    0  501  503 -0.00000000000E+00 -0.00000000000E+00 -0.27093692894E+03  0.27093692894E+03  0.00000000000E+00 0. -1.
          6    2    1    2  501    0 -0.54120544967E+02  0.16553845055E+03 -0.13895773666E+03  0.28233004832E+03  0.17340412801E+03 0.  0.
         24    2    3    3    0    0 -0.74302446310E+02  0.18085102677E+03 -0.14184822933E+03  0.25640266742E+03  0.85985232960E+02 0.  0.
         -6    2    1    2    0  502  0.54120544967E+02 -0.16553845055E+03  0.18892345251E+03  0.30950952541E+03  0.17254582989E+03 0.  0.
        -24    2    5    5    0    0  0.86368763006E+02 -0.13259591864E+03  0.86195772952E+02  0.19681425433E+03  0.79151112245E+02 0.  0.
          5    1    3    3  501    0  0.20181901343E+02 -0.15312576218E+02  0.28904926723E+01  0.25927380896E+02  0.47000000000E+01 0. -1.
        -13    1    4    4    0    0 -0.43308352612E+02  0.11099293753E+03 -0.33409422859E+02  0.12373857573E+03  0.00000000000E+00 0.  1.
         14    1    4    4    0    0 -0.30994093698E+02  0.69858089236E+02 -0.10843880648E+03  0.13266409170E+03  0.00000000000E+00 0. -1.
         -5    1    5    5    0  502 -0.32248218039E+02 -0.32942531905E+02  0.10272767956E+03  0.11269527107E+03  0.47000000000E+01 0.  1.
         13    1    6    6    0    0  0.23921151720E+02 -0.91101284824E+02  0.76242087950E+02  0.12117970775E+03  0.00000000000E+00 0. -1.
        -14    1    6    6    0    0  0.62447611286E+02 -0.41494633819E+02  0.99536850020E+01  0.75634546579E+02  0.00000000000E+00 0.  1.
</event>
<event>
12    1  0.8728348E-002  0.2158623E+03  0.7818608E-02  0.1137448E+00
         21   -1    0    0  501  502  0.00000000000E+00  0.00000000000E+00  0.65376157046E+02  0.65376157046E+02  0.00000000000E+00 0. -1.
         21   -1    0    0  502  503 -0.00000000000E+00 -0.00000000000E+00 -0.13953379441E+04  0.13953379441E+04  0.00000000000E+00 0. -1.
         -6    2    1    2    0  503 -0.12795624373E+03  0.18019111911E+02 -0.11804371182E+04  0.12000117998E+04  0.17291339160E+03 0.  0.
        -24    2    3    3    0    0 -0.55555325720E+02  0.95186809484E+01 -0.10077620313E+04  0.10125206643E+04  0.80229573474E+02 0.  0.
          6    2    1    2  501    0  0.12795624373E+03 -0.18019111911E+02 -0.14952466890E+03  0.26070230136E+03  0.17003109899E+03 0.  0.
         24    2    5    5    0    0  0.12805237668E+03  0.27877829106E+02 -0.68124669948E+02  0.16713634460E+03  0.78224053213E+02 0.  0.
          5    1    5    5  501    0 -0.96132953668E-01 -0.45896941016E+02 -0.81399998949E+02  0.93565956764E+02  0.47000000000E+01 0. -1.
        -11    1    6    6    0    0  0.10698165678E+03  0.18621650424E+02 -0.15489075711E+02  0.10968934414E+03  0.00000000000E+00 0.  1.
         12    1    6    6    0    0  0.21070719903E+02  0.92561786816E+01 -0.52635594237E+02  0.57447000459E+02  0.00000000000E+00 0. -1.
         -5    1    3    3    0  503 -0.72400918008E+02  0.85004309622E+01 -0.17267508692E+03  0.18749113552E+03  0.47000000000E+01 0.  1.
         11    1    4    4    0    0 -0.75622610860E+01  0.34285531303E+02 -0.62278878261E+03  0.62377764723E+03  0.00000000000E+00 0. -1.
        -12    1    4    4    0    0 -0.47993064634E+02 -0.24766850355E+02 -0.38497324868E+03  0.38874301708E+03  0.00000000000E+00 0.  1.
</event>
<event>
12    1  0.8728348E-002  0.1762692E+03  0.7818608E-02  0.1171685E+00
         21   -1    0    0  501  502  0.00000000000E+00  0.00000000000E+00  0.84777894998E+02  0.84777894998E+02  0.00000000000E+00 0.  1.
         21   -1    0    0  502  503 -0.00000000000E+00 -0.00000000000E+00 -0.41441439526E+03  0.41441439526E+03  0.00000000000E+00 0.  1.
         -6    2    1    2    0  503 -0.12324925116E+02 -0.37595872606E+02 -0.25167685128E+03  0.30726544475E+03  0.17177154203E+03 0.  0.
        -24    2    3    3    0    0 -0.55122301119E+01 -0.80170342906E+02 -0.96533178180E+02  0.14617339766E+03  0.74768570469E+02 0.  0.
          6    2    1    2  501    0  0.12324925116E+02  0.37595872606E+02 -0.77959648981E+02  0.19192684551E+03  0.17085916347E+03 0.  0.
         24    2    5    5    0    0 -0.45546418974E+02  0.19371305797E+02 -0.94847668436E+01  0.10031829358E+03  0.86741428714E+02 0.  0.
          5    1    5    5  501    0  0.57871344090E+02  0.18224566809E+02 -0.68474882138E+02  0.91608551926E+02  0.47000000000E+01 0. -1.
        -13    1    6    6    0    0  0.23113369747E+02 -0.77874208801E+01 -0.10305135626E+02  0.26477681267E+02  0.00000000000E+00 0.  1.
         14    1    6    6    0    0 -0.68659788721E+02  0.27158726677E+02  0.82036878280E+00  0.73840612314E+02  0.00000000000E+00 0. -1.
         -5    1    3    3    0  503 -0.68126950041E+01  0.42574470300E+02 -0.15514367310E+03  0.16109204709E+03  0.47000000000E+01 0.  1.
         13    1    4    4    0    0 -0.27878409542E+01 -0.86419172536E+00  0.11648562814E+02  0.12008659382E+02  0.00000000000E+00 0. -1.
        -14    1    4    4    0    0 -0.27243891577E+01 -0.79306151181E+02 -0.10818174099E+03  0.13416473827E+03  0.00000000000E+00 0.  1.
</event>
<event>
12    1  0.8728348E-002  0.1965864E+03  0.7818608E-02  0.1152694E+00
         21   -1    0    0  503  502  0.00000000000E+00  0.00000000000E+00  0.82096755289E+02  0.82096755289E+02  0.00000000000E+00 0. -1.
         21   -1    0    0  501  503 -0.00000000000E+00 -0.00000000000E+00 -0.47850888068E+03  0.47850888068E+03  0.00000000000E+00 0.  1.
          6    2    1    2  501    0  0.12884836064E+02 -0.94009281081E+02 -0.23489836005E+03  0.30617902876E+03  0.17194357844E+03 0.  0.
         24    2    3    3    0    0 -0.10739212968E+02 -0.45944834584E+02 -0.39811116159E+02  0.10381942449E+03  0.83470290596E+02 0.  0.
         -6    2    1    2    0  502 -0.12884836064E+02  0.94009281081E+02 -0.16151376534E+03  0.25442660721E+03  0.17216979448E+03 0.  0.
        -24    2    5    5    0    0  0.15779784043E+02 -0.12809227043E+02 -0.91526741199E+02  0.12346047543E+03  0.80326003000E+02 0.  0.
          5    1    3    3  501    0  0.23624049033E+02 -0.48064446497E+02 -0.19508724389E+03  0.20235960427E+03  0.47000000000E+01 0. -1.
        -11    1    4    4    0    0 -0.34597999992E+01 -0.20316276992E+02 -0.64367641419E+02  0.67586349130E+02  0.00000000000E+00 0.  1.
         12    1    4    4    0    0 -0.72794129690E+01 -0.25628557593E+02  0.24556525260E+02  0.36233075364E+02  0.00000000000E+00 0. -1.
         -5    1    5    5    0  502 -0.28664620107E+02  0.10681850812E+03 -0.69987024138E+02  0.13096613177E+03  0.47000000000E+01 0.  1.
         11    1    6    6    0    0 -0.26679374366E+02 -0.23607687266E+02 -0.23957464000E+02  0.42931014382E+02  0.00000000000E+00 0. -1.
        -12    1    6    6    0    0  0.42459158409E+02  0.10798460222E+02 -0.67569277199E+02  0.80529461051E+02  0.00000000000E+00 0.  1.
</event>
<event>
12    1  0.8728348E-002  0.1847529E+03  0.7818608E-02  0.1163478E+00
         21   -1    0    0  501  502  0.00000000000E+00  0.00000000000E+00  0.28579503485E+03  0.28579503485E+03  0.00000000000E+00 0.  1.
         21   -1    0    0  502  503 -0.00000000000E+00 -0.00000000000E+00 -0.12114382947E+03  0.12114382947E+03  0.00000000000E+00 0.  1.
         -6    2    1    2    0  503  0.19347169919E+01  0.63809835537E+02  0.11025099826E+03  0.21514855437E+03  0.17337294942E+03 0.  0.
        -24    2    3    3    0    0 -0.64248317270E+02  0.32692871922E+02  0.77431750481E+02  0.13485127874E+03  0.83621296627E+02 0.  0.
          6    2    1    2  501    0 -0.19347169919E+01 -0.63809835537E+02  0.54400207115E+02  0.19179030995E+03  0.17247812097E+03 0.  0.
         24    2    5    5    0    0 -0.54301134176E+02  0.59598403655E+01  0.30674699543E+02  0.10126385506E+03  0.79556887071E+02 0.  0.
          5    1    5    5  501    0  0.52366417184E+02 -0.69769675903E+02  0.23725507572E+02  0.90526454884E+02  0.47000000000E+01 0. -1.
        -13    1    6    6    0    0 -0.53877767801E+02 -0.25472410871E+02  0.35639041259E+02  0.69439173675E+02  0.00000000000E+00 0.  1.
         14    1    6    6    0    0 -0.42336637510E+00  0.31432251236E+02 -0.49643417160E+01  0.31824681390E+02  0.00000000000E+00 0. -1.
         -5    1    3    3    0  503  0.66183034262E+02  0.31116963615E+02  0.32819247780E+02  0.80297275630E+02  0.47000000000E+01 0.  1.
         11    1    4    4    0    0  0.50198593891E+01 -0.21614009982E+02  0.12444022921E+02  0.25440481958E+02  0.00000000000E+00 0. -1.
        -12    1    4    4    0    0 -0.69268176659E+02  0.54306881904E+02  0.64987727560E+02  0.10941079679E+03  0.00000000000E+00 0.  1.
</event>
<event>
12    1  0.8728348E-002  0.2384594E+03  0.7818608E-02  0.1121070E+00
         21   -1    0    0  503  502  0.00000000000E+00  0.00000000000E+00  0.22966893505E+03  0.22966893505E+03  0.00000000000E+00 0. -1.
         21   -1    0    0  501  503 -0.00000000000E+00 -0.00000000000E+00 -0.83139263097E+03  0.83139263097E+03  0.00000000000E+00 0.  1.
          6    2    1    2  501    0 -0.12040038758E+02 -0.16124457051E+03 -0.74628399089E+03  0.78345560576E+03  0.17526584693E+03 0.  0.
         24    2    3    3    0    0  0.35474271946E+02 -0.29468903130E+02 -0.33687721231E+03  0.35072192718E+03  0.85981241041E+02 0.  0.
         -6    2    1    2    0  502  0.12040038758E+02  0.16124457051E+03  0.14456029497E+03  0.27760596025E+03  0.17327035590E+03 0.  0.
        -24    2    5    5    0    0  0.11194842988E+00  0.17678307868E+03  0.79527310506E+02  0.20952436477E+03  0.79521046748E+02 0.  0.
          5    1    3    3  501    0 -0.47514310705E+02 -0.13177566738E+03 -0.40940677858E+03  0.43273367858E+03  0.47000000000E+01 0. -1.
        -13    1    4    4    0    0  0.10827377697E+02 -0.57133672250E+02 -0.16650005185E+03  0.17636256938E+03  0.00000000000E+00 0.  1.
         14    1    4    4    0    0  0.24646894249E+02  0.27664769120E+02 -0.17037716046E+03  0.17435935780E+03  0.00000000000E+00 0. -1.
         -5    1    5    5    0  502  0.11928090329E+02 -0.15538508170E+02  0.65032984463E+02  0.68081595480E+02  0.47000000000E+01 0.  1.
         13    1    6    6    0    0 -0.26006981551E+01  0.27433372286E+02  0.50247177832E+02  0.57307350541E+02  0.00000000000E+00 0. -1.
        -14    1    6    6    0    0  0.27126465850E+01  0.14934970639E+03  0.29280132673E+02  0.15221701423E+03  0.00000000000E+00 0.  1.
</event>
<event>
12    1  0.8728348E-002  0.2204788E+03  0.7818608E-02  0.1133682E+00
         21   -1    0    0  501  502  0.00000000000E+00  0.00000000000E+00  0.41342659560E+02  0.41342659560E+02  0.00000000000E+00 0.  1.
         21   -1    0    0  502  503 -0.00000000000E+00 -0.00000000000E+00 -0.12306539459E+04  0.12306539459E+04  0.00000000000E+00 0.  1.
         -6    2    1    2    0  503  0.13137019701E+03  0.39545159906E+02 -0.73532381384E+03  0.76766659003E+03  0.17259471000E+03 0.  0.
        -24    2    3    3    0    0  0.80000920623E+02  0.90918138692E+02 -0.42869650463E+03  0.45251522599E+03  0.79517805719E+02 0.  0.
          6    2    1    2  501    0 -0.13137019701E+03 -0.39545159906E+02 -0.45398747246E+03  0.50433001539E+03  0.17152897987E+03 0.  0.
         24    2    5    5    0    0 -0.15772530130E+03 -0.58645211529E+02 -0.38991105506E+03  0.43230723593E+03  0.80885004008E+02 0.  0.
          5    1    5    5  501    0  0.26355104287E+02  0.19100051624E+02 -0.64076417401E+02  0.72022779458E+02  0.47000000000E+01 0. -1.
        -11    1    6    6    0    0 -0.13135370781E+03 -0.31188455239E+02 -0.21949689249E+03  0.25769245645E+03  0.00000000000E+00 0.  1.
         12    1    6    6    0    0 -0.26371593482E+02 -0.27456756291E+02 -0.17041416257E+03  0.17461477948E+03  0.00000000000E+00 0. -1.
         -5    1    3    3    0  503  0.51369276387E+02 -0.51372978787E+02 -0.30662730921E+03  0.31515136405E+03  0.47000000000E+01 0.  1.
         13    1    4    4    0    0 -0.77581529092E+01  0.44677794444E+02 -0.12059137059E+03  0.12883544898E+03  0.00000000000E+00 0. -1.
        -14    1    4    4    0    0  0.87759073532E+02  0.46240344249E+02 -0.30810513404E+03  0.32367977701E+03  0.00000000000E+00 0.  1.
</event>
<event>
12    1  0.8728348E-002  0.1903759E+03  0.7818608E-02  0.1158128E+00
         21   -1    0    0  503  502  0.00000000000E+00  0.00000000000E+00  0.15059148954E+03  0.15059148954E+03  0.00000000000E+00 0. -1.
         21   -1    0    0  501  503 -0.00000000000E+00 -0.00000000000E+00 -0.24441550881E+03  0.24441550881E+03  0.00000000000E+00 0. -1.
          6    2    1    2  501    0 -0.79978089981E+02 -0.24592217823E+01 -0.71456230798E+02  0.20332158666E+03  0.17271691299E+03 0.  0.
         24    2    3    3    0    0 -0.23637621081E+02  0.54032633209E+02 -0.52945463529E+01  0.99566892287E+02  0.80045432328E+02 0.  0.
         -6    2    1    2    0  502  0.79978089981E+02  0.24592217823E+01 -0.22367788467E+02  0.19168541169E+03  0.17274384633E+03 0.  0.
        -24    2    5    5    0    0 -0.61767799468E+01  0.11066876134E+02  0.34595494231E+02  0.87937356761E+02  0.79846741544E+02 0.  0.
          5    1    3    3  501    0 -0.56340468900E+02 -0.56491854992E+02 -0.66161684445E+02  0.10375469437E+03  0.47000000000E+01 0. -1.
        -11    1    4    4    0    0  0.22834246657E+02 -0.40308987030E+01  0.69242150989E+01  0.24199085096E+02  0.00000000000E+00 0.  1.
         12    1    4    4    0    0 -0.46471867738E+02  0.58063531912E+02 -0.12218761452E+02  0.75367807190E+02  0.00000000000E+00 0. -1.
         -5    1    5    5    0  502  0.86154869928E+02 -0.86076543515E+01 -0.56963282698E+02  0.10374805493E+03  0.47000000000E+01 0.  1.
         11    1    6    6    0    0  0.27290179658E+02  0.15774966352E+02 -0.89952077465E+01  0.32779829645E+02  0.00000000000E+00 0. -1.
        -12    1    6    6    0    0 -0.33466959604E+02 -0.47080902184E+01  0.43590701978E+02  0.55157527116E+02  0.00000000000E+00 0.  1.
</event>
<event>
12    1  0.8728348E-002  0.1978848E+03  0.7818608E-02  0.1151648E+00
         21   -1    0    0  503  502  0.00000000000E+00  0.00000000000E+00  0.39514062219E+03  0.39514062219E+03  0.00000000000E+00 0.  1.
         21   -1    0    0  501  503 -0.00000000000E+00 -0.00000000000E+00 -0.15492782011E+03  0.15492782011E+03  0.00000000000E+00 0.  1.
          6    2    1    2  501    0 -0.95938058656E+02 -0.11670087484E+02 -0.45280098569E+02  0.20299923522E+03  0.17267918269E+03 0.  0.
         24    2    3    3    0    0 -0.10253672683E+03  0.34829479103E+02  0.49202109444E+01  0.13409413244E+03  0.78931330373E+02 0.  0.
         -6    2    1    2    0  502  0.95938058656E+02  0.11670087484E+02  0.28549290065E+03  0.34706920708E+03  0.17207712265E+03 0.  0.
        -24    2    5    5    0    0  0.20636410575E+02  0.58731471115E+02  0.20773469122E+03  0.22894409896E+03  0.73392447670E+02 0.  0.
          5    1    3    3  501    0  0.65986681761E+01 -0.46499566587E+02 -0.50200309513E+02  0.68905102784E+02  0.47000000000E+01 0. -1.
        -11    1    4    4    0    0 -0.34166555327E+02  0.21160544958E+02  0.39426990438E+02  0.56299287215E+02  0.00000000000E+00 0.  1.
         12    1    4    4    0    0 -0.68370171505E+02  0.13668934145E+02 -0.34506779494E+02  0.77794845223E+02  0.00000000000E+00 0. -1.
         -5    1    5    5    0  502  0.75301648081E+02 -0.47061383630E+02  0.77758209432E+02  0.11812510811E+03  0.47000000000E+01 0.  1.
         11    1    6    6    0    0  0.39131473466E+02  0.54583171219E+02  0.19465301966E+03  0.20591355676E+03  0.00000000000E+00 0. -1.
        -12    1    6    6    0    0 -0.18495062891E+02  0.41482998955E+01  0.13081671556E+02  0.23030542201E+02  0.00000000000E+00 0.  1.
</event>
<event>
12    1  0.8728348E-002  0.1751897E+03  0.7818608E-02  0.1172632E+00
         21   -1    0    0  503  502  0.00000000000E+00  0.00000000000E+00  0.12102177374E+04  0.12102177374E+04  0.00000000000E+00 0. -1.
         21   -1    0    0  501  503 -0.00000000000E+00 -0.00000000000E+00 -0.10214690578E+03  0.10214690578E+03  0.00000000000E+00 0. -1.
          6    2    1    2  501    0  0.80912671923E+00  0.30098302994E+02 -0.15224991607E+02  0.17548956309E+03  0.17221563185E+03 0.  0.
         24    2    3    3    0    0  0.25090811581E+02 -0.31847791653E+02 -0.48188209605E+02  0.10108806712E+03  0.79075047329E+02 0.  0.
         -6    2    1    2    0  502 -0.80912671923E+00 -0.30098302994E+02  0.11232958232E+04  0.11368750801E+04  0.17258296190E+03 0.  0.
        -24    2    5    5    0    0  0.18775416018E+02 -0.24588056309E+02  0.26110270542E+03  0.27442915163E+03  0.78610735450E+02 0.  0.
          5    1    3    3  501    0 -0.24281684861E+02  0.61946094648E+02  0.32963217998E+02  0.74401495970E+02  0.47000000000E+01 0. -1.
        -13    1    4    4    0    0  0.32879026078E+02 -0.43309614394E+02 -0.37114665910E+01  0.54502550757E+02  0.00000000000E+00 0.  1.
         14    1    4    4    0    0 -0.77882144972E+01  0.11461822741E+02 -0.44476743014E+02  0.46585516363E+02  0.00000000000E+00 0. -1.
         -5    1    5    5    0  502 -0.19584542738E+02 -0.55102466853E+01  0.86219311783E+03  0.86244592848E+03  0.47000000000E+01 0.  1.
         11    1    6    6    0    0  0.30760237460E+02  0.19999223607E+02  0.14274977881E+03  0.14738948573E+03  0.00000000000E+00 0. -1.
        -12    1    6    6    0    0 -0.11984821441E+02 -0.44587279916E+02  0.11835292661E+03  0.12703966590E+03  0.00000000000E+00 0.  1.
</event>
<event>
12    1  0.8728348E-002  0.1761039E+03  0.7818608E-02  0.1171688E+00
         21   -1    0    0  501  502  0.00000000000E+00  0.00000000000E+00  0.18598121742E+02  0.18598121742E+02  0.00000000000E+00 0.  1.
         21   -1    0    0  502  503 -0.00000000000E+00 -0.00000000000E+00 -0.19127273508E+04  0.19127273508E+04  0.00000000000E+00 0. -1.
         -6    2    1    2    0  503 -0.21850419002E+02  0.30487721490E+02 -0.59915060095E+03  0.62442753512E+03  0.17181781640E+03 0.  0.
        -24    2    3    3    0    0 -0.37469816171E+01  0.84693754904E+02 -0.43884421475E+03  0.45417403014E+03  0.80639524078E+02 0.  0.
          6    2    1    2  501    0  0.21850419002E+02 -0.30487721490E+02 -0.12949786281E+04  0.13068979374E+04  0.17206286524E+03 0.  0.
         24    2    5    5    0    0 -0.26908262738E+02 -0.66734378431E+02 -0.99151728467E+03  0.99737878430E+03  0.80500818033E+02 0.  0.
          5    1    5    5  501    0  0.48758681739E+02  0.36246656941E+02 -0.30346134342E+03  0.30951915309E+03  0.47000000000E+01 0. -1.
        -13    1    6    6    0    0 -0.48052227176E+01  0.12601776332E+02 -0.38205019620E+02  0.40515656927E+02  0.00000000000E+00 0.  1.
         14    1    6    6    0    0 -0.22103040020E+02 -0.79336154762E+02 -0.95331226505E+03  0.95686312738E+03  0.00000000000E+00 0. -1.
         -5    1    3    3    0  503 -0.18103437385E+02 -0.54206033414E+02 -0.16030638620E+03  0.17025350498E+03  0.47000000000E+01 0.  1.
         13    1    4    4    0    0  0.15154289674E+02  0.57449427059E+02 -0.39371395790E+03  0.39817178430E+03  0.00000000000E+00 0. -1.
        -14    1    4    4    0    0 -0.18901271291E+02  0.27244327845E+02 -0.45130256848E+02  0.56002245841E+02  0.00000000000E+00 0.  1.
</event>
<event>
12    1  0.8728348E-002  0.2002129E+03  0.7818608E-02  0.1151528E+00
         21   -1    0    0  501  502  0.00000000000E+00  0.00000000000E+00  0.68735339856E+02  0.68735339856E+02  0.00000000000E+00 0.  1.
         21   -1    0    0  502  503 -0.00000000000E+00 -0.00000000000E+00 -0.10463823834E+04  0.10463823834E+04  0.00000000000E+00 0.  1.
         -6    2    1    2    0  503  0.85448957010E+02 -0.31443134465E+02 -0.86403652400E+03  0.88491658967E+03  0.16801208560E+03 0.  0.
        -24    2    3    3    0    0  0.88416069155E+02 -0.78823514034E+02 -0.68515814293E+03  0.69978617797E+03  0.78920633564E+02 0.  0.
          6    2    1    2  501    0 -0.85448957010E+02  0.31443134465E+02 -0.11361051950E+03  0.23020113354E+03  0.17831157221E+03 0.  0.
         24    2    5    5    0    0 -0.89915519010E+02 -0.30785421150E+02 -0.33706041805E+02  0.12871636195E+03  0.79995386518E+02 0.  0.
          5    1    5    5  501    0  0.44665620001E+01  0.62228555616E+02 -0.79904477692E+02  0.10148477159E+03  0.47000000000E+01 0. -1.
        -11    1    6    6    0    0 -0.45939322993E+02  0.95311141986E+01 -0.48259227361E+02  0.67306883455E+02  0.00000000000E+00 0.  1.
         12    1    6    6    0    0 -0.43976196017E+02 -0.40316535349E+02  0.14553185556E+02  0.61409478491E+02  0.00000000000E+00 0. -1.
         -5    1    3    3    0  503 -0.29671121453E+01  0.47380379568E+02 -0.17887838107E+03  0.18513041170E+03  0.47000000000E+01 0.  1.
         13    1    4    4    0    0 -0.76044990288E+01 -0.66974634962E+01 -0.19011006452E+03  0.19037993869E+03  0.00000000000E+00 0. -1.
        -14    1    4    4    0    0  0.96020568184E+02 -0.72126050537E+02 -0.49504807841E+03  0.50940623928E+03  0.00000000000E+00 0.  1.
</event>
<event>
12    1  0.8728348E-002  0.1819172E+03  0.7818608E-02  0.1166030E+00
         21   -1    0    0  503  502  0.00000000000E+00  0.00000000000E+00  0.40007707125E+02  0.40007707125E+02  0.00000000000E+00 0.  1.
         21   -1    0    0  501  503 -0.00000000000E+00 -0.00000000000E+00 -0.12708226905E+04  0.12708226905E+04  0.00000000000E+00 0. -1.
          6    2    1    2  501    0  0.53331359325E+02  0.21834921139E+02 -0.10035536269E+04  0.10199086938E+04  0.17254814952E+03 0.  0.
         24    2    3    3    0    0  0.33586563692E+02 -0.33205074101E+02 -0.31136398586E+03  0.32523765854E+03  0.81248806976E+02 0.  0.
         -6    2    1    2    0  502 -0.53331359325E+02 -0.21834921139E+02 -0.22726135648E+03  0.29092170386E+03  0.17224028552E+03 0.  0.
        -24    2    5    5    0    0  0.36264092177E+02  0.25301634236E+01 -0.10166713720E+03  0.13466230352E+03  0.80475108546E+02 0.  0.
          5    1    3    3  501    0  0.19744795633E+02  0.55039995240E+02 -0.69218964105E+03  0.69467103524E+03  0.47000000000E+01 0. -1.
        -13    1    4    4    0    0  0.59749534954E+02 -0.14077230658E+02 -0.19391910480E+03  0.20340303477E+03  0.00000000000E+00 0.  1.
         14    1    4    4    0    0 -0.26162971262E+02 -0.19127843444E+02 -0.11744488107E+03  0.12183462377E+03  0.00000000000E+00 0. -1.
         -5    1    5    5    0  502 -0.89595451502E+02 -0.24365084563E+02 -0.12559421929E+03  0.15625940034E+03  0.47000000000E+01 0.  1.
         13    1    6    6    0    0  0.15119550331E+02 -0.52219102837E+01 -0.10961819326E+03  0.11077913813E+03  0.00000000000E+00 0. -1.
        -14    1    6    6    0    0  0.21144541846E+02  0.77520737073E+01  0.79510560693E+01  0.23883165395E+02  0.00000000000E+00 0.  1.
</event>
<event>
12    1  0.8728348E-002  0.2061405E+03  0.7818608E-02  0.1147386E+00
         21   -1    0    0  501  502  0.00000000000E+00  0.00000000000E+00  0.36891653687E+03  0.36891653687E+03  0.00000000000E+00 0.  1.
         21   -1    0    0  502  503 -0.00000000000E+00 -0.00000000000E+00 -0.10892789744E+03  0.10892789744E+03  0.00000000000E+00 0.  1.
         -6    2    1    2    0  503  0.85113418559E+02  0.40008282935E+02  0.11267640527E+03  0.23492527227E+03  0.18343651360E+03 0.  0.
        -24    2    3    3    0    0  0.16429442745E+02 -0.33995215618E+02  0.99856047662E+02  0.13304074007E+03  0.79391479330E+02 0.  0.
          6    2    1    2  501    0 -0.85113418559E+02 -0.40008282935E+02  0.14731223417E+03  0.24291916204E+03  0.16871238315E+03 0.  0.
         24    2    5    5    0    0 -0.53159190422E+02 -0.61215176167E+02  0.29385216768E+02  0.11882372921E+03  0.81745888824E+02 0.  0.
          5    1    5    5  501    0 -0.31954228137E+02  0.21206893232E+02  0.11792701740E+03  0.12409543283E+03  0.47000000000E+01 0. -1.
        -13    1    6    6    0    0  0.91561845957E+00 -0.18263276733E+02  0.44518198408E+02  0.48127493428E+02  0.00000000000E+00 0.  1.
         14    1    6    6    0    0 -0.54074808882E+02 -0.42951899434E+02 -0.15132981640E+02  0.70696235783E+02  0.00000000000E+00 0. -1.
         -5    1    3    3    0  503  0.68683975814E+02  0.74003498553E+02  0.12820357607E+02  0.10188453220E+03  0.47000000000E+01 0.  1.
         11    1    4    4    0    0 -0.13420935127E+02  0.20677062029E+02  0.19876494286E+02  0.31666029416E+02  0.00000000000E+00 0. -1.
        -12    1    4    4    0    0  0.29850377872E+02 -0.54672277647E+02  0.79979553376E+02  0.10137471066E+03  0.00000000000E+00 0.  1.
</event>
<event>
12    1  0.8728348E-002  0.2202630E+03  0.7818608E-02  0.1133866E+00
         21   -1    0    0  501  502  0.00000000000E+00  0.00000000000E+00  0.82342888953E+03  0.82342888953E+03  0.00000000000E+00 0. -1.
         21   -1    0    0  502  503 -0.00000000000E+00 -0.00000000000E+00 -0.70517604041E+02  0.70517604041E+02  0.00000000000E+00 0.  1.
         -6    2    1    2    0  503  0.79085866390E+02 -0.11217244558E+03  0.19387451888E+03  0.29343329760E+03  0.17227460423E+03 0.  0.
        -24    2    3    3    0    0  0.53421990616E+02 -0.12139053903E+03  0.21380919770E+03  0.25932920420E+03  0.62830654009E+02 0.  0.
          6    2    1    2  501    0 -0.79085866390E+02  0.11217244558E+03  0.55903676661E+03  0.60051319597E+03  0.17104607655E+03 0.  0.
         24    2    5    5    0    0 -0.21358548951E+02 -0.51299407956E+01  0.14073577928E+03  0.16223235104E+03  0.77654827602E+02 0.  0.
          5    1    5    5  501    0 -0.57727317439E+02  0.11730238637E+03  0.41830098733E+03  0.43828084492E+03  0.47000000000E+01 0. -1.
        -11    1    6    6    0    0 -0.40515612848E+02  0.20493247102E+02  0.58924840536E+02  0.74388338424E+02  0.00000000000E+00 0.  1.
         12    1    6    6    0    0  0.19157063897E+02 -0.25623187897E+02  0.81810938742E+02  0.87844012619E+02  0.00000000000E+00 0. -1.
         -5    1    3    3    0  503  0.25663875774E+02  0.92180934595E+01 -0.19934678822E+02  0.34104093398E+02  0.47000000000E+01 0.  1.
         13    1    4    4    0    0  0.14517706218E+02 -0.94081572174E+02  0.16920787929E+03  0.19414791380E+03  0.00000000000E+00 0. -1.
        -14    1    4    4    0    0  0.38904284398E+02 -0.27308966861E+02  0.44601318407E+02  0.65181290407E+02  0.00000000000E+00 0.  1.
</event>
<event>
12    1  0.8728348E-002  0.1928954E+03  0.7818608E-02  0.1155950E+00
         21   -1    0    0  503  502  0.00000000000E+00  0.00000000000E+00  0.21545361749E+03  0.21545361749E+03  0.00000000000E+00 0.  1.
         21   -1    0    0  501  503 -0.00000000000E+00 -0.00000000000E+00 -0.21212367444E+03  0.21212367444E+03  0.00000000000E+00 0.  1.
          6    2    1    2  501    0 -0.59673108828E+02  0.67830176710E+02 -0.90852106510E+02  0.21321989509E+03  0.17043123428E+03 0.  0.
         24    2    3    3    0    0 -0.28319462691E+02  0.15827812709E+02 -0.11851526169E+03  0.14632716647E+03  0.79456030429E+02 0.  0.
         -6    2    1    2    0  502  0.59673108828E+02 -0.67830176710E+02  0.94182049566E+02  0.21435739684E+03  0.17005005830E+03 0.  0.
        -24    2    5    5    0    0 -0.26081335602E+02 -0.57599787725E+02  0.30480294208E+02  0.10694003682E+03  0.80679312879E+02 0.  0.
          5    1    3    3  501    0 -0.31353646137E+02  0.52002364002E+02  0.27663155182E+02  0.66892728622E+02  0.47000000000E+01 0. -1.
        -13    1    4    4    0    0 -0.92899101814E+00  0.42517968178E+02 -0.86742097343E+02  0.96606584112E+02  0.00000000000E+00 0.  1.
         14    1    4    4    0    0 -0.27390471673E+02 -0.26690155470E+02 -0.31773164349E+02  0.49720582360E+02  0.00000000000E+00 0. -1.
         -5    1    5    5    0  502  0.85754444430E+02 -0.10230388985E+02  0.63701755358E+02  0.10741736002E+03  0.47000000000E+01 0.  1.
         13    1    6    6    0    0 -0.26152615375E+02  0.60093838458E+01 -0.13072834542E+02  0.29849137142E+02  0.00000000000E+00 0. -1.
        -14    1    6    6    0    0  0.71279772784E-01 -0.63609171571E+02  0.43553128751E+02  0.77090899675E+02  0.00000000000E+00 0.  1.
</event>
<event>
12    1  0.8728348E-002  0.2268888E+03  0.7818608E-02  0.1128851E+00
         21   -1    0    0  503  502  0.00000000000E+00  0.00000000000E+00  0.41440971513E+03  0.41440971513E+03  0.00000000000E+00 0. -1.
         21   -1    0    0  501  503 -0.00000000000E+00 -0.00000000000E+00 -0.13714559932E+03  0.13714559932E+03  0.00000000000E+00 0. -1.
          6    2    1    2  501    0  0.10661184009E+03 -0.10562528394E+03  0.53950312439E+02  0.23320392998E+03  0.17014891034E+03 0.  0.
         24    2    3    3    0    0 -0.20001370398E+01 -0.39659610295E+02  0.56661874182E+02  0.10601322968E+03  0.80320306551E+02 0.  0.
         -6    2    1    2    0  502 -0.10661184009E+03  0.10562528394E+03  0.22331380336E+03  0.31835138447E+03  0.17016393322E+03 0.  0.
        -24    2    5    5    0    0 -0.23246362126E+02  0.11557690630E+03  0.14400847457E+03  0.20276478111E+03  0.80477954048E+02 0.  0.
          5    1    3    3  501    0  0.10861197713E+03 -0.65965673649E+02 -0.27115617435E+01  0.12719070030E+03  0.47000000000E+01 0. -1.
        -13    1    4    4    0    0  0.21382570571E+02 -0.54934311324E+02  0.50004694082E+02  0.77301114579E+02  0.00000000000E+00 0.  1.
         14    1    4    4    0    0 -0.23382707611E+02  0.15274701029E+02  0.66571801005E+01  0.28712115102E+02  0.00000000000E+00 0. -1.
         -5    1    5    5    0  502 -0.83365477960E+02 -0.99516223521E+01  0.79305328787E+02  0.11558660336E+03  0.47000000000E+01 0.  1.
         13    1    6    6    0    0 -0.45575347699E+02  0.33313555373E+02  0.45574093025E+02  0.72552761798E+02  0.00000000000E+00 0. -1.
        -14    1    6    6    0    0  0.22328985574E+02  0.82263350923E+02  0.98434381550E+02  0.13021201931E+03  0.00000000000E+00 0.  1.
</event>
<event>
12    1  0.8728348E-002  0.2386279E+03  0.7818608E-02  0.1121150E+00
         21   -1    0    0  503  502  0.00000000000E+00  0.00000000000E+00  0.45290269231E+03  0.45290269231E+03  0.00000000000E+00 0. -1.
         21   -1    0    0  501  503 -0.00000000000E+00 -0.00000000000E+00 -0.23271479540E+03  0.23271479540E+03  0.00000000000E+00 0.  1.
          6    2    1    2  501    0  0.15964175540E+02  0.16437243713E+03 -0.12414520263E+03  0.26668008052E+03  0.16862111676E+03 0.  0.
         24    2    3    3    0    0  0.23177703235E+01  0.62223431875E+02 -0.12850978471E+03  0.16342416917E+03  0.79470540256E+02 0.  0.
         -6    2    1    2    0  502 -0.15964175540E+02 -0.16437243713E+03  0.34433309954E+03  0.41893740720E+03  0.17225015158E+03 0.  0.
        -24    2    5    5    0    0 -0.42283525786E+01 -0.19150198331E+03  0.31332239312E+03  0.37583873287E+03  0.79955878585E+02 0.  0.
          5    1    3    3  501    0  0.13646405217E+02  0.10214900526E+03  0.43645820814E+01  0.10325591134E+03  0.47000000000E+01 0. -1.
        -11    1    4    4    0    0 -0.28152757927E+02  0.55353391982E+02 -0.11207161995E+03  0.12812737327E+03  0.00000000000E+00 0.  1.
         12    1    4    4    0    0  0.30470528251E+02  0.68700398934E+01 -0.16438164760E+02  0.35296795898E+02  0.00000000000E+00 0. -1.
         -5    1    5    5    0  502 -0.11735822961E+02  0.27129546171E+02  0.31010706421E+02  0.43098674328E+02  0.47000000000E+01 0.  1.
         11    1    6    6    0    0  0.93180102853E+01 -0.45360942598E+01 -0.40768606007E+00  0.10371483729E+02  0.00000000000E+00 0. -1.
        -12    1    6    6    0    0 -0.13546362864E+02 -0.18696588905E+03  0.31373007918E+03  0.36546724914E+03  0.00000000000E+00 0.  1.
</event>
<event>
12    1  0.8728348E-002  0.2315015E+03  0.7818608E-02  0.1125723E+00
         21   -1    0    0  501  502  0.00000000000E+00  0.00000000000E+00  0.17689488187E+03  0.17689488187E+03  0.00000000000E+00 0.  1.
         21   -1    0    0  502  503 -0.00000000000E+00 -0.00000000000E+00 -0.16019971798E+04  0.16019971798E+04  0.00000000000E+00 0. -1.
         -6    2    1    2    0  503 -0.13988733444E+03 -0.67913996275E+02 -0.15140274971E+04  0.15316240359E+04  0.17149970321E+03 0.  0.
        -24    2    3    3    0    0 -0.16901605520E+03 -0.39430288890E+02 -0.12855259513E+04  0.12994713913E+04  0.76991887916E+02 0.  0.
          6    2    1    2  501    0  0.13988733444E+03  0.67913996275E+02  0.88925199196E+02  0.24726802573E+03  0.17044943024E+03 0.  0.
         24    2    5    5    0    0  0.11518035565E+03  0.25758192994E+02  0.10238741715E+02  0.15452539722E+03  0.99213243675E+02 0.  0.
          5    1    5    5  501    0  0.24706978785E+02  0.42155803281E+02  0.78686457481E+02  0.92742628504E+02  0.47000000000E+01 0. -1.
        -11    1    6    6    0    0  0.12337831176E+03 -0.31162048402E+01  0.14271549940E+02  0.12424007278E+03  0.00000000000E+00 0.  1.
         12    1    6    6    0    0 -0.81979561089E+01  0.28874397835E+02 -0.40328082249E+01  0.30285324447E+02  0.00000000000E+00 0. -1.
         -5    1    3    3    0  503  0.29128720760E+02 -0.28483707385E+02 -0.22850154579E+03  0.23215264459E+03  0.47000000000E+01 0.  1.
         11    1    4    4    0    0 -0.85169694228E+02 -0.10728329829E+02 -0.89041635369E+03  0.89454472040E+03  0.00000000000E+00 0. -1.
        -12    1    4    4    0    0 -0.83846360970E+02 -0.28701959061E+02 -0.39510959761E+03  0.40492667093E+03  0.00000000000E+00 0.  1.
</event>
<event>
12    1  0.8728348E-002  0.2381030E+03  0.7818608E-02  0.1121317E+00
         21   -1    0    0  503  502  0.00000000000E+00  0.00000000000E+00  0.19109966714E+04  0.19109966714E+04  0.00000000000E+00 0.  1.
         21   -1    0    0  501  503 -0.00000000000E+00 -0.00000000000E+00 -0.39750732813E+02  0.39750732813E+02  0.00000000000E+00 0.  1.
          6    2    1    2  501    0 -0.97446052491E+02  0.13012741759E+03  0.43763622380E+03  0.49749936833E+03  0.17190485493E+03 0.  0.
         24    2    3    3    0    0 -0.64468076034E+02  0.19060124452E+02  0.13247593032E+03  0.17105123270E+03  0.84789332603E+02 0.  0.
         -6    2    1    2    0  502  0.97446052491E+02 -0.13012741759E+03  0.14336097148E+04  0.14532480359E+04  0.17396597805E+03 0.  0.
        -24    2    5    5    0    0  0.62072246349E+02 -0.65211320410E+02  0.41629890954E+03  0.43324373672E+03  0.79308721153E+02 0.  0.
          5    1    3    3  501    0 -0.32977976457E+02  0.11106729314E+03  0.30516029348E+03  0.32644813563E+03  0.47000000000E+01 0. -1.
        -13    1    4    4    0    0 -0.57730805300E+02 -0.23385355291E+02  0.58246783405E+02  0.85278417549E+02  0.00000000000E+00 0.  1.
         14    1    4    4    0    0 -0.67372707341E+01  0.42445479743E+02  0.74229146916E+02  0.85772815154E+02  0.00000000000E+00 0. -1.
         -5    1    5    5    0  502  0.35373806142E+02 -0.64916097179E+02  0.10173108052E+04  0.10200042992E+04  0.47000000000E+01 0.  1.
         13    1    6    6    0    0 -0.12836360590E+01 -0.54614418306E+02  0.16226737644E+03  0.17121648245E+03  0.00000000000E+00 0. -1.
        -14    1    6    6    0    0  0.63355882408E+02 -0.10596902105E+02  0.25403153310E+03  0.26202725427E+03  0.00000000000E+00 0.  1.
</event>
<event>
12    1  0.8728348E-002  0.1909690E+03  0.7818608E-02  0.1160522E+00
         21   -1    0    0  501  502  0.00000000000E+00  0.00000000000E+00  0.26078700125E+03  0.26078700125E+03  0.00000000000E+00 0.  1.
         21   -1    0    0  502  503 -0.00000000000E+00 -0.00000000000E+00 -0.13896911052E+03  0.13896911052E+03  0.00000000000E+00 0.  1.
         -6    2    1    2    0  503  0.77756473641E+02 -0.37874490686E+02  0.14298757852E+02  0.19150355613E+03  0.17026042199E+03 0.  0.
        -24    2    3    3    0    0  0.39790477582E+02 -0.51612770561E+02  0.68927747294E+02  0.12341116538E+03  0.78943785079E+02 0.  0.
          6    2    1    2  501    0 -0.77756473641E+02  0.37874490686E+02  0.10751913288E+03  0.20825255563E+03  0.15597505171E+03 0.  0.
         24    2    5    5    0    0 -0.24643037833E+02 -0.98245436612E+01  0.71647521019E+01  0.85007569196E+02  0.80443471929E+02 0.  0.
          5    1    5    5  501    0 -0.53113435808E+02  0.47699034347E+02  0.10035438078E+03  0.12324498644E+03  0.47000000000E+01 0. -1.
        -13    1    6    6    0    0 -0.29462496221E+02 -0.17049576119E+02  0.39141276829E+02  0.51872596631E+02  0.00000000000E+00 0.  1.
         14    1    6    6    0    0  0.48194583882E+01  0.72250324581E+01 -0.31976524728E+02  0.33134972564E+02  0.00000000000E+00 0. -1.
         -5    1    3    3    0  503  0.37965996059E+02  0.13738279875E+02 -0.54628989443E+02  0.68092390751E+02  0.47000000000E+01 0.  1.
         13    1    4    4    0    0  0.58614856488E+02 -0.24831267165E+02  0.64069573826E+02  0.90317238223E+02  0.00000000000E+00 0. -1.
        -14    1    4    4    0    0 -0.18824378905E+02 -0.26781503396E+02  0.48581734688E+01  0.33093927158E+02  0.00000000000E+00 0.  1.
</event>
<event>
12    1  0.8728348E-002  0.1852963E+03  0.7818608E-02  0.1163417E+00
         21   -1    0    0  503  502  0.00000000000E+00  0.00000000000E+00  0.17008559978E+03  0.17008559978E+03  0.00000000000E+00 0.  1.
         21   -1    0    0  501  503 -0.00000000000E+00 -0.00000000000E+00 -0.20031071256E+03  0.20031071256E+03  0.00000000000E+00 0.  1.
          6    2    1    2  501    0  0.53028181553E+02  0.40382619583E+02 -0.30574657969E+02  0.18509973015E+03  0.16995398315E+03 0.  0.
         24    2    3    3    0    0  0.67586672565E+01  0.12933359590E+02 -0.74426422596E+02  0.11553395488E+03  0.87154179345E+02 0.  0.
         -6    2    1    2    0  502 -0.53028181553E+02 -0.40382619583E+02  0.34954518923E+00  0.18529658220E+03  0.17289290670E+03 0.  0.
        -24    2    5    5    0    0 -0.60999609994E+01  0.37252004679E+02  0.23000439577E+02  0.91677429320E+02  0.80316931273E+02 0.  0.
          5    1    3    3  501    0  0.46269514296E+02  0.27449259993E+02  0.43851764627E+02  0.69565775265E+02  0.47000000000E+01 0. -1.
        -11    1    4    4    0    0  0.45856131185E+02 -0.29126957829E+01 -0.34611303868E+02  0.57525741363E+02  0.00000000000E+00 0.  1.
         12    1    4    4    0    0 -0.39097463928E+02  0.15846055373E+02 -0.39815118728E+02  0.58008213521E+02  0.00000000000E+00 0. -1.
         -5    1    5    5    0  502 -0.46928220553E+02 -0.77634624263E+02 -0.22650894388E+02  0.93619152876E+02  0.47000000000E+01 0.  1.
         11    1    6    6    0    0  0.75949028607E+00  0.37921093052E+02 -0.23533131484E+02  0.44636245375E+02  0.00000000000E+00 0. -1.
        -12    1    6    6    0    0 -0.68594512854E+01 -0.66908837291E+00  0.46533571061E+02  0.47041183945E+02  0.00000000000E+00 0.  1.
</event>
<event>
12    1  0.8728348E-002  0.2346564E+03  0.7818608E-02  0.1123486E+00
         21   -1    0    0  503  502  0.00000000000E+00  0.00000000000E+00  0.97304835308E+02  0.97304835308E+02  0.00000000000E+00 0.  1.
         21   -1    0    0  501  503 -0.00000000000E+00 -0.00000000000E+00 -0.57164851553E+03  0.57164851553E+03  0.00000000000E+00 0. -1.
          6    2    1    2  501    0 -0.15106120239E+03 -0.47467634004E+02 -0.20065802105E+03  0.30875111502E+03  0.17317894348E+03 0.  0.
         24    2    3    3    0    0 -0.12861315542E+03  0.67715203215E+01 -0.72947971031E+02  0.16811773508E+03  0.79718060298E+02 0.  0.
         -6    2    1    2    0  502  0.15106120239E+03  0.47467634004E+02 -0.27368565917E+03  0.36020223582E+03  0.17253738004E+03 0.  0.
        -24    2    5    5    0    0  0.10708159031E+03  0.72226587390E+02 -0.26914501437E+03  0.30931098405E+03  0.80938860783E+02 0.  0.
          5    1    3    3  501    0 -0.22448046968E+02 -0.54239154325E+02 -0.12771005002E+03  0.14063337993E+03  0.47000000000E+01 0. -1.
        -13    1    4    4    0    0 -0.73177045051E+02  0.96100381963E+01  0.32125540988E+01  0.73875254722E+02  0.00000000000E+00 0.  1.
         14    1    4    4    0    0 -0.55436110368E+02 -0.28385178749E+01 -0.76160525130E+02  0.94242480361E+02  0.00000000000E+00 0. -1.
         -5    1    5    5    0  502  0.43979612079E+02 -0.24758953386E+02 -0.45406447961E+01  0.50891251769E+02  0.47000000000E+01 0.  1.
         13    1    6    6    0    0  0.10203143443E+03  0.40963107815E+02 -0.14969131634E+03  0.18573066522E+03  0.00000000000E+00 0. -1.
        -14    1    6    6    0    0  0.50501558727E+01  0.31263479575E+02 -0.11945369803E+03  0.12358031884E+03  0.00000000000E+00 0.  1.
</event>
<event>
12    1  0.8728348E-002  0.2026681E+03  0.7818608E-02  0.1147616E+00
         21   -1    0    0  503  502  0.00000000000E+00  0.00000000000E+00  0.60256145145E+03  0.60256145145E+03  0.00000000000E+00 0. -1.
         21   -1    0    0  501  503 -0.00000000000E+00 -0.00000000000E+00 -0.15303471855E+03  0.15303471855E+03  0.00000000000E+00 0. -1.
          6    2    1    2  501    0 -0.20528160671E+02 -0.10565091252E+03 -0.56743853721E+02  0.21046195841E+03  0.17172900251E+03 0.  0.
         24    2    3    3    0    0  0.47893413097E+02 -0.91337975646E+02 -0.27027010564E+02  0.13435970689E+03  0.81765926412E+02 0.  0.
         -6    2    1    2    0  502  0.20528160671E+02  0.10565091252E+03  0.50627058662E+03  0.54513421159E+03  0.17110780542E+03 0.  0.
        -24    2    5    5    0    0 -0.11561764133E+02  0.56349959545E+02  0.45940511669E+03  0.46977633536E+03  0.79547166481E+02 0.  0.
          5    1    3    3  501    0 -0.68421573768E+02 -0.14312936876E+02 -0.29716843157E+02  0.76102251518E+02  0.47000000000E+01 0. -1.
        -11    1    4    4    0    0 -0.42361800261E+01 -0.38670224759E+02  0.22772810996E+02  0.45076961131E+02  0.00000000000E+00 0.  1.
         12    1    4    4    0    0  0.52129593123E+02 -0.52667750887E+02 -0.49799821560E+02  0.89282745758E+02  0.00000000000E+00 0. -1.
         -5    1    5    5    0  502  0.32089924804E+02  0.49300952977E+02  0.46865469933E+02  0.75357876233E+02  0.47000000000E+01 0.  1.
         13    1    6    6    0    0 -0.35463714806E+02  0.10924048925E+02  0.98849070383E+02  0.10558479355E+03  0.00000000000E+00 0. -1.
        -14    1    6    6    0    0  0.23901950673E+02  0.45425910620E+02  0.36055604630E+03  0.36419154181E+03  0.00000000000E+00 0.  1.
</event>
<event>
12    1  0.8728348E-002  0.2231914E+03  0.7818608E-02  0.1131652E+00
         21   -1    0    0  501  502  0.00000000000E+00  0.00000000000E+00  0.78549107718E+02  0.78549107718E+02  0.00000000000E+00 0.  1.
         21   -1    0    0  502  503 -0.00000000000E+00 -0.00000000000E+00 -0.69245392313E+03  0.69245392313E+03  0.00000000000E+00 0. -1.
         -6    2    1    2    0  503  0.73912519292E+02 -0.12082791365E+03 -0.42021041483E+03  0.47548329583E+03  0.17159582355E+03 0.  0.
        -24    2    3    3    0    0 -0.15302021072E+02 -0.66594579217E+02 -0.28995646725E+03  0.30848428495E+03  0.80117484547E+02 0.  0.
          6    2    1    2  501    0 -0.73912519292E+02  0.12082791365E+03 -0.19369440057E+03  0.29551973501E+03  0.17248752924E+03 0.  0.
         24    2    5    5    0    0 -0.98333258307E+02  0.11648732738E+03 -0.10205373200E+03  0.20046545935E+03  0.80825175843E+02 0.  0.
          5    1    5    5  501    0  0.24420739014E+02  0.43405862654E+01 -0.91640668578E+02  0.95054275656E+02  0.47000000000E+01 0. -1.
        -11    1    6    6    0    0 -0.54525235151E+01  0.59024167315E+02 -0.15940215367E+02  0.61381371815E+02  0.00000000000E+00 0.  1.
         12    1    6    6    0    0 -0.92880734791E+02  0.57463160065E+02 -0.86113516630E+02  0.13908408754E+03  0.00000000000E+00 0. -1.
         -5    1    3    3    0  503  0.89214540365E+02 -0.54233334428E+02 -0.13025394758E+03  0.16699901089E+03  0.47000000000E+01 0.  1.
         11    1    4    4    0    0  0.44171828032E+01 -0.74176936359E+02 -0.26759643513E+03  0.27772212999E+03  0.00000000000E+00 0. -1.
        -12    1    4    4    0    0 -0.19719203876E+02  0.75823571423E+01 -0.22360032120E+02  0.30762154959E+02  0.00000000000E+00 0.  1.
</event>
<event>
12    1  0.8728348E-002  0.1912127E+03  0.7818608E-02  0.1157536E+00
         21   -1    0    0  501  502  0.00000000000E+00  0.00000000000E+00  0.35029240479E+03  0.35029240479E+03  0.00000000000E+00 0. -1.
         21   -1    0    0  502  503 -0.00000000000E+00 -0.00000000000E+00 -0.10668854877E+03  0.10668854877E+03  0.00000000000E+00 0. -1.
         -6    2    1    2    0  503 -0.82488739223E+01  0.86348573296E+02  0.15845826692E+03  0.24833708655E+03  0.17040588655E+03 0.  0.
        -24    2    3    3    0    0 -0.42628757723E+02  0.33583621548E+02  0.16010516927E+03  0.18516336709E+03  0.75542945820E+02 0.  0.
          6    2    1    2  501    0  0.82488739223E+01 -0.86348573296E+02  0.85145589102E+02  0.20864386701E+03  0.16958293507E+03 0.  0.
         24    2    5    5    0    0 -0.47519226097E+02 -0.39197200241E+02  0.88819557935E+02  0.13537094563E+03  0.81497740419E+02 0.  0.
          5    1    5    5  501    0  0.55768100019E+02 -0.47151373054E+02 -0.36739688332E+01  0.73272921381E+02  0.47000000000E+01 0. -1.
        -11    1    6    6    0    0 -0.51321951055E+02  0.49829388651E+01  0.24099946423E+02  0.56917306308E+02  0.00000000000E+00 0.  1.
         12    1    6    6    0    0  0.38027249579E+01 -0.44180139106E+02  0.64719611512E+02  0.78453639322E+02  0.00000000000E+00 0. -1.
         -5    1    3    3    0  503  0.34379883801E+02  0.52764951748E+02 -0.16469023511E+01  0.63173719461E+02  0.47000000000E+01 0.  1.
         13    1    4    4    0    0 -0.47145940050E+02  0.30557115060E+02  0.50863187621E+02  0.75786151763E+02  0.00000000000E+00 0. -1.
        -14    1    4    4    0    0  0.45171823267E+01  0.30265064871E+01  0.10924198165E+03  0.10937721533E+03  0.00000000000E+00 0.  1.
</event>
<event>
12    1  0.8728348E-002  0.1939703E+03  0.7818608E-02  0.1154943E+00
         21   -1    0    0  503  502  0.00000000000E+00  0.00000000000E+00  0.85340590450E+03  0.85340590450E+03  0.00000000000E+00 0. -1.
         21   -1    0    0  501  503 -0.00000000000E+00 -0.00000000000E+00 -0.52763620282E+02  0.52763620282E+02  0.00000000000E+00 0.  1.
          6    2    1    2  501    0  0.50149868509E+02 -0.74837072209E+02  0.21637360543E+03  0.29054435044E+03  0.17170581167E+03 0.  0.
         24    2    3    3    0    0  0.76287744524E+02 -0.10414677822E+03  0.14784840520E+03  0.21142393275E+03  0.78578349701E+02 0.  0.
         -6    2    1    2    0  502 -0.50149868509E+02  0.74837072209E+02  0.58426867879E+03  0.61562517434E+03  0.17178145876E+03 0.  0.
        -24    2    5    5    0    0 -0.55692573915E+02  0.11638054992E+03  0.47317777028E+03  0.49679814847E+03  0.79152402660E+02 0.  0.
          5    1    3    3  501    0 -0.26137876015E+02  0.29309706014E+02  0.68525200227E+02  0.79120417690E+02  0.47000000000E+01 0. -1.
        -13    1    4    4    0    0  0.11548588192E+02 -0.26290167710E+02 -0.39168726355E+01  0.28980764288E+02  0.00000000000E+00 0.  1.
         14    1    4    4    0    0  0.64739156332E+02 -0.77856610512E+02  0.15176527784E+03  0.18244316847E+03  0.00000000000E+00 0. -1.
         -5    1    5    5    0  502  0.55427054064E+01 -0.41543477707E+02  0.11109090851E+03  0.11882702587E+03  0.47000000000E+01 0.  1.
         13    1    6    6    0    0 -0.57108145634E+02  0.57707118980E+02  0.17522236821E+03  0.19311740005E+03  0.00000000000E+00 0. -1.
        -14    1    6    6    0    0  0.14155717186E+01  0.58673430936E+02  0.29795540207E+03  0.30368074843E+03  0.00000000000E+00 0.  1.
</event>
<event>
12    1  0.8728348E-002  0.1908630E+03  0.7818608E-02  0.1158296E+00
         21   -1    0    0  501  502  0.00000000000E+00  0.00000000000E+00  0.79248213139E+03  0.79248213139E+03  0.00000000000E+00 0. -1.
         21   -1    0    0  502  503 -0.00000000000E+00 -0.00000000000E+00 -0.97302380275E+02  0.97302380275E+02  0.00000000000E+00 0. -1.
         -6    2    1    2    0  503 -0.29501854830E+02  0.76338340225E+02  0.23566697407E+02  0.19231242237E+03  0.17242614925E+03 0.  0.
        -24    2    3    3    0    0 -0.33740153415E+02  0.71351242553E+02 -0.46651203628E+02  0.12163372726E+03  0.79931414598E+02 0.  0.
          6    2    1    2  501    0  0.29501854830E+02 -0.76338340225E+02  0.67161305371E+03  0.69747208929E+03  0.16942644363E+03 0.  0.
         24    2    5    5    0    0 -0.33120550023E+02 -0.85442980335E+02  0.47899102053E+03  0.49466726261E+03  0.82860299430E+02 0.  0.
          5    1    5    5  501    0  0.62622404852E+02  0.91046401103E+01  0.19262203317E+03  0.20280482668E+03  0.47000000000E+01 0. -1.
        -13    1    6    6    0    0  0.10956208697E+02 -0.26264627779E+02  0.37623543041E+02  0.47174147288E+02  0.00000000000E+00 0.  1.
         14    1    6    6    0    0 -0.44076758720E+02 -0.59178352556E+02  0.44136747749E+03  0.44749311532E+03  0.00000000000E+00 0. -1.
         -5    1    3    3    0  503  0.42382985851E+01  0.49870976719E+01  0.70217901035E+02  0.70678695120E+02  0.47000000000E+01 0.  1.
         13    1    4    4    0    0 -0.49088730625E+02  0.69425709079E+02 -0.14911125404E+02  0.86324818078E+02  0.00000000000E+00 0. -1.
        -14    1    4    4    0    0  0.15348577210E+02  0.19255334743E+01 -0.31740078224E+02  0.35308909177E+02  0.00000000000E+00 0.  1.
</event>
<event>
12    1  0.8728348E-002  0.1964509E+03  0.7818608E-02  0.1153587E+00
         21   -1    0    0  503  502  0.00000000000E+00  0.00000000000E+00  0.98255363191E+02  0.98255363191E+02  0.00000000000E+00 0. -1.
         21   -1    0    0  501  503 -0.00000000000E+00 -0.00000000000E+00 -0.66236270595E+03  0.66236270595E+03  0.00000000000E+00 0. -1.
          6    2    1    2  501    0 -0.46735518378E+02  0.72313196317E+02 -0.52959100829E+03  0.56485359247E+03  0.17657728569E+03 0.  0.
         24    2    3    3    0    0  0.27536220496E+02  0.43997591236E+01 -0.33985370312E+03  0.35002607766E+03  0.78994393439E+02 0.  0.
         -6    2    1    2    0  502  0.46735518378E+02 -0.72313196317E+02 -0.34516334464E+02  0.19576447667E+03  0.17239183838E+03 0.  0.
        -24    2    5    5    0    0 -0.16028340899E+01 -0.74746967006E+02 -0.76618490554E+02  0.13144339843E+03  0.76271198635E+02 0.  0.
          5    1    3    3  501    0 -0.74271738873E+02  0.67913437193E+02 -0.18973730517E+03  0.21482751481E+03  0.47000000000E+01 0. -1.
        -13    1    4    4    0    0  0.29065445381E+02  0.18140210220E+02 -0.54745002627E+02  0.64582371083E+02  0.00000000000E+00 0.  1.
         14    1    4    4    0    0 -0.15292248853E+01 -0.13740451097E+02 -0.28510870049E+03  0.28544370657E+03  0.00000000000E+00 0. -1.
         -5    1    5    5    0  502  0.48338352467E+02  0.24337706896E+01  0.42102156090E+02  0.64321078244E+02  0.47000000000E+01 0.  1.
         13    1    6    6    0    0 -0.26409525061E+02 -0.43092889215E+02 -0.69729215923E+01  0.51020405235E+02  0.00000000000E+00 0. -1.
        -14    1    6    6    0    0  0.24806690971E+02 -0.31654077792E+02 -0.69645568962E+02  0.80422993191E+02  0.00000000000E+00 0.  1.
</event>
<event>
12    1  0.8728348E-002  0.1925588E+03  0.7818608E-02  0.1156570E+00
         21   -1    0    0  501  502  0.00000000000E+00  0.00000000000E+00  0.77940327190E+02  0.77940327190E+02  0.00000000000E+00 0.  1.
         21   -1    0    0  502  503 -0.00000000000E+00 -0.00000000000E+00 -0.47204062502E+03  0.47204062502E+03  0.00000000000E+00 0. -1.
         -6    2    1    2    0  503 -0.32595270961E+02  0.77800568077E+02 -0.20671107851E+03  0.28129228371E+03  0.17111545463E+03 0.  0.
        -24    2    3    3    0    0  0.74891769088E+01 -0.22261900503E+02 -0.10102414845E+03  0.13025891732E+03  0.78802455453E+02 0.  0.
          6    2    1    2  501    0  0.32595270961E+02 -0.77800568077E+02 -0.18738921933E+03  0.26868866850E+03  0.17309968510E+03 0.  0.
         24    2    5    5    0    0 -0.76002904005E+01 -0.84567033511E+02 -0.19660447208E+03  0.22663537980E+03  0.74168250374E+02 0.  0.
          5    1    5    5  501    0  0.40195561361E+02  0.67664654335E+01  0.92152527543E+01  0.42053288705E+02  0.47000000000E+01 0. -1.
        -11    1    6    6    0    0  0.24428329805E+02 -0.75512554980E+02 -0.13430851455E+03  0.15600534073E+03  0.00000000000E+00 0.  1.
         12    1    6    6    0    0 -0.32028620206E+02 -0.90544785304E+01 -0.62295957531E+02  0.70630039065E+02  0.00000000000E+00 0. -1.
         -5    1    3    3    0  503 -0.40084447869E+02  0.10006246858E+03 -0.10568693006E+03  0.15103336639E+03  0.47000000000E+01 0.  1.
         11    1    4    4    0    0 -0.39937685126E+01  0.27765140890E+02 -0.20407035731E+02  0.34688619790E+02  0.00000000000E+00 0. -1.
        -12    1    4    4    0    0  0.11482945421E+02 -0.50027041393E+02 -0.80617112720E+02  0.95570297527E+02  0.00000000000E+00 0.  1.
</event>
<event>
12    1  0.8728348E-002  0.2015654E+03  0.7818608E-02  0.1148698E+00
         21   -1    0    0  503  502  0.00000000000E+00  0.00000000000E+00  0.53320772895E+03  0.53320772895E+03  0.00000000000E+00 0.  1.
         21   -1    0    0  501  503 -0.00000000000E+00 -0.00000000000E+00 -0.78843196176E+02  0.78843196176E+02  0.00000000000E+00 0. -1.
          6    2    1    2  501    0  0.66532243428E+02  0.77693957803E+02  0.28753087286E+03  0.35039831707E+03  0.17216877553E+03 0.  0.
         24    2    3    3    0    0 -0.85956298828E+01  0.52341925460E+01  0.19127333963E+03  0.20833418496E+03  0.81953404734E+02 0.  0.
         -6    2    1    2    0  502 -0.66532243428E+02 -0.77693957803E+02  0.16683365991E+03  0.26165260805E+03  0.17368283370E+03 0.  0.
        -24    2    5    5    0    0 -0.80084225624E+02 -0.10793701363E+03  0.95735120694E+02  0.18306895246E+03  0.79278912168E+02 0.  0.
          5    1    3    3  501    0  0.75127873311E+02  0.72459765257E+02  0.96257533228E+02  0.14206413211E+03  0.47000000000E+01 0. -1.
        -11    1    4    4    0    0 -0.54526582898E+01  0.34854207787E+02  0.36658150208E+02  0.50875998855E+02  0.00000000000E+00 0.  1.
         12    1    4    4    0    0 -0.31429715930E+01 -0.29620015241E+02  0.15461518942E+03  0.15745818611E+03  0.00000000000E+00 0. -1.
         -5    1    5    5    0  502  0.13551982196E+02  0.30243055823E+02  0.71098539220E+02  0.78583655591E+02  0.47000000000E+01 0.  1.
         11    1    6    6    0    0 -0.48888328919E+02 -0.33680143541E+02  0.18866592193E+01  0.59396803419E+02  0.00000000000E+00 0. -1.
        -12    1    6    6    0    0 -0.31195896705E+02 -0.74256870085E+02  0.93848461475E+02  0.12367214904E+03  0.00000000000E+00 0.  1.
</event>
<event>
12    1  0.8728348E-002  0.1800480E+03  0.7818608E-02  0.1168017E+00
         21   -1    0    0  503  502  0.00000000000E+00  0.00000000000E+00  0.16043269756E+03  0.16043269756E+03  0.00000000000E+00 0.  1.
         21   -1    0    0  501  503 -0.00000000000E+00 -0.00000000000E+00 -0.20541841373E+03  0.20541841373E+03  0.00000000000E+00 0.  1.
          6    2    1    2  501    0  0.47748528885E+02 -0.13737590781E+02 -0.49674324614E+02  0.18574211081E+03  0.17194170463E+03 0.  0.
         24    2    3    3    0    0  0.70956222840E+02 -0.60716052647E+02 -0.53492030192E+02  0.13299518849E+03  0.78135128202E+02 0.  0.
         -6    2    1    2    0  502 -0.47748528885E+02  0.13737590781E+02  0.46886084456E+01  0.18010900048E+03  0.17305671208E+03 0.  0.
        -24    2    5    5    0    0 -0.37793614241E+02 -0.35940017754E+02  0.53955283831E+02  0.10928343717E+03  0.79445923952E+02 0.  0.
          5    1    3    3  501    0 -0.23207693955E+02  0.46978461866E+02  0.38177055777E+01  0.52746922317E+02  0.47000000000E+01 0. -1.
        -11    1    4    4    0    0  0.56109572252E+02 -0.29436251122E+02 -0.70186306208E+02  0.94556303637E+02  0.00000000000E+00 0.  1.
         12    1    4    4    0    0  0.14846650588E+02 -0.31279801525E+02  0.16694276016E+02  0.38438884854E+02  0.00000000000E+00 0. -1.
         -5    1    5    5    0  502 -0.99549146442E+01  0.49677608534E+02 -0.49266675385E+02  0.70825563314E+02  0.47000000000E+01 0.  1.
         11    1    6    6    0    0  0.15484210173E+02 -0.38506286481E+02  0.20173596679E+02  0.46146168489E+02  0.00000000000E+00 0. -1.
        -12    1    6    6    0    0 -0.53277824414E+02  0.25662687274E+01  0.33781687152E+02  0.63137268680E+02  0.00000000000E+00 0.  1.
</event>
<event>
12    1  0.8728348E-002  0.2285908E+03  0.7818608E-02  0.1127807E+00
         21   -1    0    0  503  502  0.00000000000E+00  0.00000000000E+00  0.10273960120E+03  0.10273960120E+03  0.00000000000E+00 0.  1.
         21   -1    0    0  501  503 -0.00000000000E+00 -0.00000000000E+00 -0.55256681794E+03  0.55256681794E+03  0.00000000000E+00 0. -1.
          6    2    1    2  501    0 -0.14921890550E+03 -0.81125535929E+01 -0.12983730028E+03  0.26205421969E+03  0.17170496274E+03 0.  0.
         24    2    3    3    0    0 -0.13292449881E+03 -0.31518689611E+02 -0.32882052391E+02  0.16088226219E+03  0.78355106654E+02 0.  0.
         -6    2    1    2    0  502  0.14921890550E+03  0.81125535929E+01 -0.31998991646E+03  0.39325219944E+03  0.17297875720E+03 0.  0.
        -24    2    5    5    0    0  0.60585633191E+02 -0.17218135425E+02 -0.26856908781E+03  0.28759382360E+03  0.81325084123E+02 0.  0.
          5    1    3    3  501    0 -0.16294406692E+02  0.23406136018E+02 -0.96955247885E+02  0.10117195750E+03  0.47000000000E+01 0. -1.
        -13    1    4    4    0    0 -0.36797095539E+02  0.22062935648E+02  0.76926588711E+01  0.43588718381E+02  0.00000000000E+00 0.  1.
         14    1    4    4    0    0 -0.96127403270E+02 -0.53581625260E+02 -0.40574711263E+02  0.11729354381E+03  0.00000000000E+00 0. -1.
         -5    1    5    5    0  502  0.88633272310E+02  0.25330689018E+02 -0.51420828647E+02  0.10565837584E+03  0.47000000000E+01 0.  1.
         11    1    6    6    0    0  0.14297518838E+02  0.30888682895E+02 -0.11961285945E+03  0.12436143261E+03  0.00000000000E+00 0. -1.
        -12    1    6    6    0    0  0.46288114353E+02 -0.48106818319E+02 -0.14895622837E+03  0.16323239099E+03  0.00000000000E+00 0.  1.
</event>
<event>
12    1  0.8728348E-002  0.2243687E+03  0.7818608E-02  0.1132935E+00
         21   -1    0    0  501  502  0.00000000000E+00  0.00000000000E+00  0.95687011004E+03  0.95687011004E+03  0.00000000000E+00 0.  1.
         21   -1    0    0  502  503 -0.00000000000E+00 -0.00000000000E+00 -0.14155300387E+03  0.14155300387E+03  0.00000000000E+00 0. -1.
         -6    2    1    2    0  503  0.82573124683E+02 -0.11862245307E+03 -0.30453844419E+02  0.22642605036E+03  0.17161501201E+03 0.  0.
        -24    2    3    3    0    0  0.74015635548E+02 -0.19199378207E+02 -0.58705414840E+02  0.12260688225E+03  0.75757451215E+02 0.  0.
          6    2    1    2  501    0 -0.82573124683E+02  0.11862245307E+03  0.84577095059E+03  0.87199706356E+03  0.15543735297E+03 0.  0.
         24    2    5    5    0    0 -0.10269129691E+03  0.13493383192E+03  0.73589338179E+03  0.75901046232E+03  0.76191673378E+02 0.  0.
          5    1    5    5  501    0  0.20118172227E+02 -0.16311378850E+02  0.10987756879E+03  0.11298660123E+03  0.47000000000E+01 0. -1.
        -11    1    6    6    0    0 -0.91172976677E+02  0.59958893763E+02  0.47058556537E+03  0.48307179069E+03  0.00000000000E+00 0.  1.
         12    1    6    6    0    0 -0.11518320232E+02  0.74974938154E+02  0.26530781642E+03  0.27593867164E+03  0.00000000000E+00 0. -1.
         -5    1    3    3    0  503  0.85574891354E+01 -0.99423074859E+02  0.28251570421E+02  0.10381916811E+03  0.47000000000E+01 0.  1.
         11    1    4    4    0    0 -0.62187443213E+01  0.82032977754E+01 -0.32154358801E+02  0.33761955886E+02  0.00000000000E+00 0. -1.
        -12    1    4    4    0    0  0.80234379869E+02 -0.27402675982E+02 -0.26551056039E+02  0.88844926365E+02  0.00000000000E+00 0.  1.
</event>
<event>
12    1  0.8728348E-002  0.2496219E+03  0.7818608E-02  0.1115977E+00
         21   -1    0    0  501  502  0.00000000000E+00  0.00000000000E+00  0.18641320918E+03  0.18641320918E+03  0.00000000000E+00 0.  1.
         21   -1    0    0  502  503 -0.00000000000E+00 -0.00000000000E+00 -0.80163376603E+03  0.80163376603E+03  0.00000000000E+00 0. -1.
         -6    2    1    2    0  503 -0.11010111026E+03 -0.14317809300E+03 -0.69629898143E+03  0.73969138587E+03  0.17230453855E+03 0.  0.
        -24    2    3    3    0    0 -0.10198722057E+03 -0.71368510955E+02 -0.60720881181E+03  0.62488023833E+03  0.79233285888E+02 0.  0.
          6    2    1    2  501    0  0.11010111026E+03  0.14317809300E+03  0.81078424575E+02  0.24835558934E+03  0.14994854794E+03 0.  0.
         24    2    5    5    0    0  0.11187059634E+03  0.15460778644E+03  0.47905605747E+02  0.21291133900E+03  0.81349205651E+02 0.  0.
          5    1    5    5  501    0 -0.17694860862E+01 -0.11429693439E+02  0.33172818828E+02  0.35444250339E+02  0.47000000000E+01 0. -1.
        -13    1    6    6    0    0  0.42203228464E+02  0.68537527487E+01  0.19951005002E+02  0.47181871732E+02  0.00000000000E+00 0.  1.
         14    1    6    6    0    0  0.69667367879E+02  0.14775403369E+03  0.27954600745E+02  0.16572946727E+03  0.00000000000E+00 0. -1.
         -5    1    3    3    0  503 -0.81138896894E+01 -0.71809582045E+02 -0.89090169613E+02  0.11481114755E+03  0.47000000000E+01 0.  1.
         13    1    4    4    0    0 -0.53599422211E+02 -0.81321119626E+02 -0.43177869660E+03  0.44262723074E+03  0.00000000000E+00 0. -1.
        -14    1    4    4    0    0 -0.48387798357E+02  0.99526086716E+01 -0.17543011521E+03  0.18225300758E+03  0.00000000000E+00 0.  1.
</event>
<event>
12    1  0.8728348E-002  0.1911190E+03  0.7818608E-02  0.1158397E+00
         21   -1    0    0  503  502  0.00000000000E+00  0.00000000000E+00  0.18945134436E+04  0.18945134436E+04  0.00000000000E+00 0.  1.
         21   -1    0    0  501  503 -0.00000000000E+00 -0.00000000000E+00 -0.37162081677E+02  0.37162081677E+02  0.00000000000E+00 0. -1.
          6    2    1    2  501    0  0.80472731597E+02  0.16937180417E+02  0.24576685412E+03  0.30879811561E+03  0.16790533347E+03 0.  0.
         24    2    3    3    0    0  0.10438654674E+03 -0.25844975113E+02  0.20628769942E+03  0.24568807645E+03  0.79015834471E+02 0.  0.
         -6    2    1    2    0  502 -0.80472731597E+02 -0.16937180417E+02  0.16115845078E+04  0.16228774096E+04  0.17252168681E+03 0.  0.
        -24    2    5    5    0    0 -0.58394419080E+02  0.53821135953E+02  0.95759359350E+03  0.96468260780E+03  0.85559456668E+02 0.  0.
          5    1    3    3  501    0 -0.23913815146E+02  0.42782155531E+02  0.39479154700E+02  0.63110039158E+02  0.47000000000E+01 0. -1.
        -13    1    4    4    0    0  0.82147486045E+02 -0.47953927289E+02  0.11543782468E+03  0.14957834059E+03  0.00000000000E+00 0.  1.
         14    1    4    4    0    0  0.22239060699E+02  0.22108952176E+02  0.90849874741E+02  0.96109735862E+02  0.00000000000E+00 0. -1.
         -5    1    5    5    0  502 -0.22078312517E+02 -0.70758316371E+02  0.65399091426E+03  0.65819480183E+03  0.47000000000E+01 0.  1.
         11    1    6    6    0    0  0.90127757049E+01  0.14473899348E+02  0.51345418544E+03  0.51373721340E+03  0.00000000000E+00 0. -1.
        -12    1    6    6    0    0 -0.67407194785E+02  0.39347236605E+02  0.44413940806E+03  0.45094539440E+03  0.00000000000E+00 0.  1.
</event>
<event>
12    1  0.8728348E-002  0.1957417E+03  0.7818608E-02  0.1153811E+00
         21   -1    0    0  503  502  0.00000000000E+00  0.00000000000E+00  0.11711953425E+04  0.11711953425E+04  0.00000000000E+00 0. -1.
         21   -1    0    0  501  503 -0.00000000000E+00 -0.00000000000E+00 -0.99187771478E+02  0.99187771478E+02  0.00000000000E+00 0.  1.
          6    2    1    2  501    0  0.82898662469E+02  0.38682793668E+02  0.13844711856E+02  0.19426814046E+03  0.17082121527E+03 0.  0.
         24    2    3    3    0    0  0.38369978989E+02  0.48416830030E+02  0.70488266304E+02  0.12141117527E+03  0.77172748272E+02 0.  0.
         -6    2    1    2    0  502 -0.82898662469E+02 -0.38682793668E+02  0.10581628592E+04  0.10761149735E+04  0.17304985683E+03 0.  0.
        -24    2    5    5    0    0 -0.57862653007E+02 -0.29507564799E+02  0.10359205723E+04  0.10410750546E+04  0.80542250744E+02 0.  0.
          5    1    3    3  501    0  0.44528683480E+02 -0.97340363616E+01 -0.56643554447E+02  0.72856965191E+02  0.47000000000E+01 0. -1.
        -13    1    4    4    0    0  0.30072003410E+01  0.48215147124E+02  0.71027650102E+01  0.48828198174E+02  0.00000000000E+00 0.  1.
         14    1    4    4    0    0  0.35362778648E+02  0.20168290570E+00  0.63385501293E+02  0.72582977094E+02  0.00000000000E+00 0. -1.
         -5    1    5    5    0  502 -0.25036009461E+02 -0.91752288693E+01  0.22242286871E+02  0.35039918947E+02  0.47000000000E+01 0.  1.
         11    1    6    6    0    0 -0.57852242296E+02 -0.33335980407E+02  0.43090305463E+03  0.43604542426E+03  0.00000000000E+00 0. -1.
        -12    1    6    6    0    0 -0.10410711561E-01  0.38284156075E+01  0.60501751767E+03  0.60502963032E+03  0.00000000000E+00 0.  1.
</event>
<event>
12    1  0.8728348E-002  0.1789707E+03  0.7818608E-02  0.1169027E+00
         21   -1    0    0  501  502  0.00000000000E+00  0.00000000000E+00  0.28044779595E+03  0.28044779595E+03  0.00000000000E+00 0.  1.
         21   -1    0    0  502  503 -0.00000000000E+00 -0.00000000000E+00 -0.37797441599E+03  0.37797441599E+03  0.00000000000E+00 0.  1.
         -6    2    1    2    0  503 -0.21039523917E+02 -0.40484949472E+02 -0.32404085139E+03  0.36973689160E+03  0.17210811409E+03 0.  0.
        -24    2    3    3    0    0  0.37592864136E+00 -0.63479894953E+02 -0.10550245592E+03  0.14890095833E+03  0.83731050401E+02 0.  0.
          6    2    1    2  501    0  0.21039523917E+02  0.40484949472E+02  0.22651423136E+03  0.28868532034E+03  0.17305728668E+03 0.  0.
         24    2    5    5    0    0 -0.43530942644E+02  0.41139254918E+02  0.79446150842E+02  0.12799654172E+03  0.80523552743E+02 0.  0.
          5    1    5    5  501    0  0.64570466560E+02 -0.65430544580E+00  0.14706808052E+03  0.16068877862E+03  0.47000000000E+01 0. -1.
        -11    1    6    6    0    0 -0.27362248354E+02  0.11360508595E+02  0.88163257833E+02  0.93008138473E+02  0.00000000000E+00 0.  1.
         12    1    6    6    0    0 -0.16168694290E+02  0.29778746323E+02 -0.87171069909E+01  0.34988403249E+02  0.00000000000E+00 0. -1.
         -5    1    3    3    0  503 -0.21415452558E+02  0.22994945481E+02 -0.21853839547E+03  0.22083593327E+03  0.47000000000E+01 0.  1.
         13    1    4    4    0    0 -0.27957407938E+02 -0.70479267656E+02 -0.78548948865E+02  0.10917362866E+03  0.00000000000E+00 0. -1.
        -14    1    4    4    0    0  0.28333336579E+02  0.69993727023E+01 -0.26953507055E+02  0.39727329667E+02  0.00000000000E+00 0.  1.
</event>
<event>
12    1  0.8728348E-002  0.2405679E+03  0.7818608E-02  0.1119496E+00
         21   -1    0    0  501  502  0.00000000000E+00  0.00000000000E+00  0.53933658170E+02  0.53933658170E+02  0.00000000000E+00 0. -1.
         21   -1    0    0  502  503 -0.00000000000E+00 -0.00000000000E+00 -0.11485362621E+04  0.11485362621E+04  0.00000000000E+00 0.  1.
         -6    2    1    2    0  503 -0.55326630639E+02  0.15994909937E+03 -0.70312693619E+03  0.74298531478E+03  0.17027900381E+03 0.  0.
        -24    2    3    3    0    0 -0.23045889118E+02  0.13435346314E+03 -0.67396782517E+03  0.69229481643E+03  0.80358679916E+02 0.  0.
          6    2    1    2  501    0  0.55326630639E+02 -0.15994909937E+03 -0.39147566778E+03  0.45948460553E+03  0.17096243390E+03 0.  0.
         24    2    5    5    0    0  0.24297776880E+01 -0.91191377421E+02 -0.33427488892E+03  0.35546672013E+03  0.79341770979E+02 0.  0.
          5    1    5    5  501    0  0.52896852951E+02 -0.68757721954E+02 -0.57200778863E+02  0.10401788540E+03  0.47000000000E+01 0. -1.
        -11    1    6    6    0    0  0.17911277544E+02 -0.11067873673E+02 -0.17731187851E+03  0.17855759282E+03  0.00000000000E+00 0.  1.
         12    1    6    6    0    0 -0.15481499856E+02 -0.80123503748E+02 -0.15696301041E+03  0.17690912731E+03  0.00000000000E+00 0. -1.
         -5    1    3    3    0  503 -0.32280741521E+02  0.25595636231E+02 -0.29159111025E+02  0.50690498350E+02  0.47000000000E+01 0.  1.
         11    1    4    4    0    0  0.19647295686E+02  0.10156587743E+03 -0.47814839321E+03  0.48921112990E+03  0.00000000000E+00 0. -1.
        -12    1    4    4    0    0 -0.42693184803E+02  0.32787585709E+02 -0.19581943196E+03  0.20308368654E+03  0.00000000000E+00 0.  1.
</event>
<event>
12    1  0.8728348E-002  0.2817622E+03  0.7818608E-02  0.1094802E+00
         21   -1    0    0  503  502  0.00000000000E+00  0.00000000000E+00  0.29515636912E+03  0.29515636912E+03  0.00000000000E+00 0.  1.
         21   -1    0    0  501  503 -0.00000000000E+00 -0.00000000000E+00 -0.28605174041E+03  0.28605174041E+03  0.00000000000E+00 0. -1.
          6    2    1    2  501    0 -0.10313000163E+03 -0.19737352391E+03 -0.67481124250E+02  0.28973025249E+03  0.17262042725E+03 0.  0.
         24    2    3    3    0    0 -0.10244642961E+03 -0.22113552970E+03 -0.67420540131E+02  0.26549816921E+03  0.80916964763E+02 0.  0.
         -6    2    1    2    0  502  0.10313000163E+03  0.19737352391E+03  0.76585752961E+02  0.29147785703E+03  0.17176105032E+03 0.  0.
        -24    2    5    5    0    0  0.11823194039E+03  0.87963881452E+02  0.66917590926E+02  0.18050893448E+03  0.79931691353E+02 0.  0.
          5    1    3    3  501    0 -0.68357202259E+00  0.23762005791E+02 -0.60584119421E-01  0.24232083285E+02  0.47000000000E+01 0. -1.
        -11    1    4    4    0    0 -0.11647074066E+03 -0.19803221609E+03 -0.61448320550E+02  0.23781944440E+03  0.00000000000E+00 0.  1.
         12    1    4    4    0    0  0.14024311046E+02 -0.23103313611E+02 -0.59722195805E+01  0.27678724805E+02  0.00000000000E+00 0. -1.
         -5    1    5    5    0  502 -0.15101938754E+02  0.10940964245E+03  0.96681620358E+01  0.11096892256E+03  0.47000000000E+01 0.  1.
         13    1    6    6    0    0  0.19344492104E+02  0.37549075557E+02 -0.12472639691E+02  0.44042129726E+02  0.00000000000E+00 0. -1.
        -14    1    6    6    0    0  0.98887448283E+02  0.50414805895E+02  0.79390230616E+02  0.13646680475E+03  0.00000000000E+00 0.  1.
</event>
<event>
12    1  0.8728348E-002  0.1902292E+03  0.7818608E-02  0.1161948E+00
         21   -1    0    0  503  502  0.00000000000E+00  0.00000000000E+00  0.33905400942E+02  0.33905400942E+02  0.00000000000E+00 0. -1.
         21   -1    0    0  501  503 -0.00000000000E+00 -0.00000000000E+00 -0.10049748265E+04  0.10049748265E+04  0.00000000000E+00 0. -1.
          6    2    1    2  501    0  0.21992155133E+02  0.14221619189E+02 -0.58572361814E+03  0.61584031194E+03  0.18841768394E+03 0.  0.
         24    2    3    3    0    0  0.84486888199E+02  0.36002908545E+02 -0.41630213488E+03  0.43389046935E+03  0.80741737581E+02 0.  0.
         -6    2    1    2    0  502 -0.21992155133E+02 -0.14221619189E+02 -0.38534580745E+03  0.42303991553E+03  0.17258467336E+03 0.  0.
        -24    2    5    5    0    0 -0.36879386041E+02 -0.70232609388E+02 -0.28414832725E+03  0.30632710276E+03  0.82482200928E+02 0.  0.
          5    1    3    3  501    0 -0.62494733066E+02 -0.21781289355E+02 -0.16942148326E+03  0.18194984259E+03  0.47000000000E+01 0. -1.
        -11    1    4    4    0    0  0.45490679900E+02 -0.21509522331E+02 -0.21910417368E+03  0.22480814138E+03  0.00000000000E+00 0.  1.
         12    1    4    4    0    0  0.38996208299E+02  0.57512430876E+02 -0.19719796120E+03  0.20908232797E+03  0.00000000000E+00 0. -1.
         -5    1    5    5    0  502  0.14887230908E+02  0.56010990199E+02 -0.10119748020E+03  0.11671281277E+03  0.47000000000E+01 0.  1.
         11    1    6    6    0    0 -0.28461441186E+01 -0.17745600300E+02 -0.28986011300E+01  0.18204635532E+02  0.00000000000E+00 0. -1.
        -12    1    6    6    0    0 -0.34033241923E+02 -0.52487009088E+02 -0.28124972612E+03  0.28812246723E+03  0.00000000000E+00 0.  1.
</event>
<event>
12    1  0.8728348E-002  0.1845851E+03  0.7818608E-02  0.1165280E+00
         21   -1    0    0  501  502  0.00000000000E+00  0.00000000000E+00  0.38727426472E+03  0.38727426472E+03  0.00000000000E+00 0.  1.
         21   -1    0    0  502  503 -0.00000000000E+00 -0.00000000000E+00 -0.88143316133E+02  0.88143316133E+02  0.00000000000E+00 0.  1.
         -6    2    1    2    0  503  0.48452981956E+01  0.64817712404E+02  0.10331198264E+03  0.21153022975E+03  0.17276243684E+03 0.  0.
        -24    2    3    3    0    0  0.23689204799E+02 -0.30379750174E+02  0.35426961957E+02  0.93005482413E+02  0.76882003621E+02 0.  0.
          6    2    1    2  501    0 -0.48452981956E+01 -0.64817712404E+02  0.19581896595E+03  0.26388735111E+03  0.16451946357E+03 0.  0.
         24    2    5    5    0    0  0.28090480966E+02 -0.47122722991E+01  0.38732211173E+02  0.92435410305E+02  0.78948339215E+02 0.  0.
          5    1    5    5  501    0 -0.32935779162E+02 -0.60105440105E+02  0.15708675478E+03  0.17145194080E+03  0.47000000000E+01 0. -1.
        -13    1    6    6    0    0 -0.67997398467E+01 -0.34122774061E+02  0.30072645743E+02  0.45988739857E+02  0.00000000000E+00 0.  1.
         14    1    6    6    0    0  0.34890220813E+02  0.29410501762E+02  0.86595654296E+01  0.46446670448E+02  0.00000000000E+00 0. -1.
         -5    1    3    3    0  503 -0.18843906603E+02  0.95197462578E+02  0.67885020683E+02  0.11852474733E+03  0.47000000000E+01 0.  1.
         11    1    4    4    0    0  0.31202225113E+02 -0.54627750118E+01 -0.15910636378E+02  0.35448118607E+02  0.00000000000E+00 0. -1.
        -12    1    4    4    0    0 -0.75130203144E+01 -0.24916975163E+02  0.51337598335E+02  0.57557363806E+02  0.00000000000E+00 0.  1.
</event>
<event>
12    1  0.8728348E-002  0.1966439E+03  0.7818608E-02  0.1152979E+00
         21   -1    0    0  501  502  0.00000000000E+00  0.00000000000E+00  0.82667587615E+03  0.82667587615E+03  0.00000000000E+00 0.  1.
         21   -1    0    0  502  503 -0.00000000000E+00 -0.00000000000E+00 -0.47108757586E+02  0.47108757586E+02  0.00000000000E+00 0.  1.
         -6    2    1    2    0  503  0.72235837676E+02  0.67628788110E+02  0.44646953118E+03  0.48785640835E+03  0.16993282105E+03 0.  0.
        -24    2    3    3    0    0  0.82683671645E+02 -0.86662315365E+01  0.25192720798E+03  0.27857455827E+03  0.84998666272E+02 0.  0.
          6    2    1    2  501    0 -0.72235837676E+02 -0.67628788110E+02  0.33309758738E+03  0.38592822538E+03  0.16791343961E+03 0.  0.
         24    2    5    5    0    0  0.26240167100E+02 -0.33372224063E+02  0.13515999067E+03  0.16215955491E+03  0.78900231053E+02 0.  0.
          5    1    5    5  501    0 -0.98476004775E+02 -0.34256564047E+02  0.19793759671E+03  0.22376867048E+03  0.47000000000E+01 0. -1.
        -13    1    6    6    0    0  0.95283000872E+01 -0.57069333910E+02  0.69847447357E+02  0.90699301418E+02  0.00000000000E+00 0.  1.
         14    1    6    6    0    0  0.16711867012E+02  0.23697109847E+02  0.65312543316E+02  0.71460253488E+02  0.00000000000E+00 0. -1.
         -5    1    3    3    0  503 -0.10447833969E+02  0.76295019646E+02  0.19454232320E+03  0.20928185008E+03  0.47000000000E+01 0.  1.
         13    1    4    4    0    0  0.69622556337E+02 -0.41290344579E+01  0.80170523951E+02  0.10626223312E+03  0.00000000000E+00 0. -1.
        -14    1    4    4    0    0  0.13061115308E+02 -0.45371970786E+01  0.17175668403E+03  0.17231232515E+03  0.00000000000E+00 0.  1.
</event>
<event>
12    1  0.8728348E-002  0.1819514E+03  0.7818608E-02  0.1166182E+00
         21   -1    0    0  501  502  0.00000000000E+00  0.00000000000E+00  0.21756160508E+03  0.21756160508E+03  0.00000000000E+00 0. -1.
         21   -1    0    0  502  503 -0.00000000000E+00 -0.00000000000E+00 -0.20003207740E+03  0.20003207740E+03  0.00000000000E+00 0. -1.
         -6    2    1    2    0  503 -0.51766285779E+02 -0.13744461147E+02 -0.94332459099E+02  0.20400668554E+03  0.17277574005E+03 0.  0.
        -24    2    3    3    0    0 -0.93513256244E+02  0.11986237211E+02 -0.92697671360E+02  0.15471529773E+03  0.80346537579E+02 0.  0.
          6    2    1    2  501    0  0.51766285779E+02  0.13744461147E+02  0.11186198678E+03  0.21358699694E+03  0.17388974271E+03 0.  0.
         24    2    5    5    0    0  0.16179470416E+02  0.68993278859E+02  0.10056496951E+03  0.14673966426E+03  0.79983549467E+02 0.  0.
          5    1    5    5  501    0  0.35586815363E+02 -0.55248817712E+02  0.11297017275E+02  0.66847332674E+02  0.47000000000E+01 0. -1.
        -11    1    6    6    0    0 -0.26019616849E+02  0.20146000521E+02  0.65447135511E+02  0.73254415188E+02  0.00000000000E+00 0.  1.
         12    1    6    6    0    0  0.42199087265E+02  0.48847278339E+02  0.35117833997E+02  0.73485249076E+02  0.00000000000E+00 0. -1.
         -5    1    3    3    0  503  0.41746970464E+02 -0.25730698359E+02 -0.16347877391E+01  0.49291387807E+02  0.47000000000E+01 0.  1.
         11    1    4    4    0    0 -0.52917381094E+02  0.44897810359E+02 -0.38232405071E+02  0.79232439028E+02  0.00000000000E+00 0. -1.
        -12    1    4    4    0    0 -0.40595875149E+02 -0.32911573147E+02 -0.54465266289E+02  0.75482858704E+02  0.00000000000E+00 0.  1.
</event>
<event>
12    1  0.8728348E-002  0.2331539E+03  0.7818608E-02  0.1124603E+00
         21   -1    0    0  503  502  0.00000000000E+00  0.00000000000E+00  0.43013059020E+03  0.43013059020E+03  0.00000000000E+00 0. -1.
         21   -1    0    0  501  503 -0.00000000000E+00 -0.00000000000E+00 -0.43246650541E+03  0.43246650541E+03  0.00000000000E+00 0.  1.
          6    2    1    2  501    0  0.93840533770E+02 -0.12379815456E+03 -0.36431525895E+03  0.43202793293E+03  0.17259924123E+03 0.  0.
         24    2    3    3    0    0  0.66035974931E+02 -0.72127038923E-02 -0.13263552236E+03  0.16784072444E+03  0.78851613515E+02 0.  0.
         -6    2    1    2    0  502 -0.93840533770E+02  0.12379815456E+03  0.36197934374E+03  0.43056916268E+03  0.17386411276E+03 0.  0.
        -24    2    5    5    0    0  0.11737000753E+02  0.92808815653E+02  0.20583815399E+03  0.23949557461E+03  0.78978168946E+02 0.  0.
          5    1    3    3  501    0  0.27804558839E+02 -0.12379094186E+03 -0.23167973660E+03  0.26418720849E+03  0.47000000000E+01 0. -1.
        -11    1    4    4    0    0  0.19631053189E+02 -0.23334863917E+02 -0.10431939517E+03  0.10868500509E+03  0.00000000000E+00 0.  1.
         12    1    4    4    0    0  0.46404921742E+02  0.23327651213E+02 -0.28316127186E+02  0.59155719350E+02  0.00000000000E+00 0. -1.
         -5    1    5    5    0  502 -0.10557753452E+03  0.30989338911E+02  0.15614118975E+03  0.19107358808E+03  0.47000000000E+01 0.  1.
         13    1    6    6    0    0  0.36839495376E+01  0.34203721080E+02  0.16265951210E+03  0.16625757997E+03  0.00000000000E+00 0. -1.
        -14    1    6    6    0    0  0.80530512159E+01  0.58605094573E+02  0.43178641889E+02  0.73237994642E+02  0.00000000000E+00 0.  1.
</event>
<event>
12    1  0.8728348E-002  0.1926910E+03  0.7818608E-02  0.1157941E+00
         21   -1    0    0  503  502  0.00000000000E+00  0.00000000000E+00  0.61347265141E+02  0.61347265141E+02  0.00000000000E+00 0. -1.
         21   -1    0    0  501  503 -0.00000000000E+00 -0.00000000000E+00 -0.58491233528E+03  0.58491233528E+03  0.00000000000E+00 0. -1.
          6    2    1    2  501    0  0.18331028992E+02 -0.62851994950E+02 -0.23616678744E+03  0.30480249070E+03  0.18122750056E+03 0.  0.
         24    2    3    3    0    0  0.42668281003E+02 -0.10662552424E+03 -0.15182665394E+03  0.20659978290E+03  0.80265514536E+02 0.  0.
         -6    2    1    2    0  502 -0.18331028992E+02  0.62851994950E+02 -0.28739828270E+03  0.34145710971E+03  0.17236236533E+03 0.  0.
        -24    2    5    5    0    0 -0.39049662306E+02  0.72088068409E+01 -0.26336680895E+03  0.27723072977E+03  0.76928268238E+02 0.  0.
          5    1    3    3  501    0 -0.24337252012E+02  0.43773529291E+02 -0.84340133496E+02  0.98202707805E+02  0.47000000000E+01 0. -1.
        -11    1    4    4    0    0  0.27298163561E+02 -0.48485708504E+02 -0.13204986450E+03  0.14329417426E+03  0.00000000000E+00 0.  1.
         12    1    4    4    0    0  0.15370117443E+02 -0.58139815738E+02 -0.19776789438E+02  0.63305608635E+02  0.00000000000E+00 0. -1.
         -5    1    5    5    0  502  0.20718633314E+02  0.55643188110E+02 -0.24031473754E+02  0.64226379940E+02  0.47000000000E+01 0.  1.
         13    1    6    6    0    0  0.23519245211E+02  0.31031551409E+01 -0.79675748053E+02  0.83132480385E+02  0.00000000000E+00 0. -1.
        -14    1    6    6    0    0 -0.62568907517E+02  0.41056517000E+01 -0.18369106089E+03  0.19409824939E+03  0.00000000000E+00 0.  1.
</event>
<event>
12    1  0.8728348E-002  0.1858775E+03  0.7818608E-02  0.1164330E+00
         21   -1    0    0  503  502  0.00000000000E+00  0.00000000000E+00  0.52363045796E+03  0.52363045796E+03  0.00000000000E+00 0.  1.
         21   -1    0    0  501  503 -0.00000000000E+00 -0.00000000000E+00 -0.70703982985E+02  0.70703982985E+02  0.00000000000E+00 0. -1.
          6    2    1    2  501    0  0.42695542293E+02 -0.18627204846E+02  0.13260860934E+03  0.22833194563E+03  0.17994596976E+03 0.  0.
         24    2    3    3    0    0 -0.35063946620E+02 -0.17699329574E+02  0.14228679444E+02  0.86616396481E+02  0.75876203125E+02 0.  0.
         -6    2    1    2    0  502 -0.42695542293E+02  0.18627204846E+02  0.32031786563E+03  0.36600249531E+03  0.17083445039E+03 0.  0.
        -24    2    5    5    0    0 -0.39064189451E+02  0.71971494856E+02  0.16039750383E+03  0.19731517474E+03  0.80622651786E+02 0.  0.
          5    1    3    3  501    0  0.77759488913E+02 -0.92787527161E+00  0.11837992989E+03  0.14171554915E+03  0.47000000000E+01 0. -1.
        -13    1    4    4    0    0  0.94181193671E+01  0.20266283866E+02  0.16985852487E+02  0.28070312055E+02  0.00000000000E+00 0.  1.
         14    1    4    4    0    0 -0.44482065987E+02 -0.37965613441E+02 -0.27571730435E+01  0.58546084426E+02  0.00000000000E+00 0. -1.
         -5    1    5    5    0  502 -0.36313528419E+01 -0.53344290011E+02  0.15992036180E+03  0.16868732057E+03  0.47000000000E+01 0.  1.
         13    1    6    6    0    0 -0.46475014412E+02  0.50165837542E+02  0.16030759525E+03  0.17428443222E+03  0.00000000000E+00 0. -1.
        -14    1    6    6    0    0  0.74108249610E+01  0.21805657314E+02  0.89908578428E-01  0.23030742521E+02  0.00000000000E+00 0.  1.
</event>
<event>
12    1  0.8728348E-002  0.1743617E+03  0.7818608E-02  0.1179062E+00
         21   -1    0    0  503  502  0.00000000000E+00  0.00000000000E+00  0.48387051131E+02  0.48387051131E+02  0.00000000000E+00 0. -1.
         21   -1    0    0  501  503 -0.00000000000E+00 -0.00000000000E+00 -0.64981952287E+03  0.64981952287E+03  0.00000000000E+00 0. -1.
          6    2    1    2  501    0 -0.28178139344E+02  0.10457247914E+01 -0.45052218537E+03  0.48308617348E+03  0.17206658717E+03 0.  0.
         24    2    3    3    0    0 -0.70142864973E+02 -0.54970103054E+01 -0.41084253544E+03  0.42477313721E+03  0.81794807571E+02 0.  0.
         -6    2    1    2    0  502  0.28178139344E+02 -0.10457247914E+01 -0.15091028637E+03  0.21512040052E+03  0.15069097887E+03 0.  0.
        -24    2    5    5    0    0  0.67016730434E+02  0.49721028962E+01 -0.74236188144E+02  0.12883217568E+03  0.81060186865E+02 0.  0.
          5    1    3    3  501    0  0.41964725629E+02  0.65427350968E+01 -0.39679649934E+02  0.58313036266E+02  0.47000000000E+01 0. -1.
        -11    1    4    4    0    0  0.59189836430E+01  0.13876307917E+02 -0.18625547576E+03  0.18686542896E+03  0.00000000000E+00 0.  1.
         12    1    4    4    0    0 -0.76061848616E+02 -0.19373318222E+02 -0.22458705968E+03  0.23790770826E+03  0.00000000000E+00 0. -1.
         -5    1    5    5    0  502 -0.38838591090E+02 -0.60178276876E+01 -0.76674098228E+02  0.86288224846E+02  0.47000000000E+01 0.  1.
         11    1    6    6    0    0 -0.60731386883E+01  0.33373966326E+01 -0.51939252053E+02  0.52399495548E+02  0.00000000000E+00 0. -1.
        -12    1    6    6    0    0  0.73089869122E+02  0.16347062636E+01 -0.22296936090E+02  0.76432680130E+02  0.00000000000E+00 0.  1.
</event>
<event>
12    1  0.8728348E-002  0.1823124E+03  0.7818608E-02  0.1165799E+00
         21   -1    0    0  503  502  0.00000000000E+00  0.00000000000E+00  0.17580840042E+03  0.17580840042E+03  0.00000000000E+00 0. -1.
         21   -1    0    0  501  503 -0.00000000000E+00 -0.00000000000E+00 -0.22766951430E+03  0.22766951430E+03  0.00000000000E+00 0. -1.
          6    2    1    2  501    0  0.38970736744E+02  0.40280737171E+02 -0.11006476883E+03  0.21296022733E+03  0.17348356976E+03 0.  0.
         24    2    3    3    0    0  0.83715751500E+02  0.33384847430E+01 -0.87301284578E+02  0.15045332711E+03  0.89415976307E+02 0.  0.
         -6    2    1    2    0  502 -0.38970736744E+02 -0.40280737171E+02  0.58203654953E+02  0.19051768739E+03  0.17253425065E+03 0.  0.
        -24    2    5    5    0    0 -0.41946908739E+02 -0.66232529363E+02  0.92696225610E+02  0.14699550283E+03  0.82878202878E+02 0.  0.
          5    1    3    3  501    0 -0.44745014756E+02  0.36942252428E+02 -0.22763484251E+02  0.62506900221E+02  0.47000000000E+01 0. -1.
        -13    1    4    4    0    0  0.96603423277E+01  0.31579583560E+02 -0.66240161058E+00  0.33030759719E+02  0.00000000000E+00 0.  1.
         14    1    4    4    0    0  0.74055409172E+02 -0.28241098817E+02 -0.86638882968E+02  0.11742256739E+03  0.00000000000E+00 0. -1.
         -5    1    5    5    0  502  0.29761719953E+01  0.25951792192E+02 -0.34492570657E+02  0.43522184553E+02  0.47000000000E+01 0.  1.
         13    1    6    6    0    0 -0.43778719993E+02 -0.27516262992E+02  0.60319493035E+01  0.52058673300E+02  0.00000000000E+00 0. -1.
        -14    1    6    6    0    0  0.18318112543E+01 -0.38716266371E+02  0.86664276306E+02  0.94936829533E+02  0.00000000000E+00 0.  1.
</event>
<event>
12    1  0.8728348E-002  0.2135540E+03  0.7818608E-02  0.1142585E+00
         21   -1    0    0  501  502  0.00000000000E+00  0.00000000000E+00  0.84198771811E+02  0.84198771811E+02  0.00000000000E+00 0. -1.
         21   -1    0    0  502  503 -0.00000000000E+00 -0.00000000000E+00 -0.66108947953E+03  0.66108947953E+03  0.00000000000E+00 0.  1.
         -6    2    1    2    0  503 -0.77613045298E+02  0.48918226804E+02 -0.48482513691E+03  0.52977421976E+03  0.19284328567E+03 0.  0.
        -24    2    3    3    0    0  0.27255084482E+02 -0.26893110508E+02 -0.19079544632E+03  0.20849516277E+03  0.74841509474E+02 0.  0.
          6    2    1    2  501    0  0.77613045298E+02 -0.48918226804E+02 -0.92065570806E+02  0.21551403158E+03  0.17191117115E+03 0.  0.
         24    2    5    5    0    0 -0.23668327463E+02 -0.41998984478E+02 -0.44679721528E+02  0.10338329942E+03  0.79798024170E+02 0.  0.
          5    1    5    5  501    0  0.10128137276E+03 -0.69192423259E+01 -0.47385849279E+02  0.11213073216E+03  0.47000000000E+01 0. -1.
        -11    1    6    6    0    0 -0.23589320065E+02  0.20055920246E+02 -0.11620329780E+02  0.33071559114E+02  0.00000000000E+00 0.  1.
         12    1    6    6    0    0 -0.79007398787E-01 -0.62054904724E+02 -0.33059391748E+02  0.70311740308E+02  0.00000000000E+00 0. -1.
         -5    1    3    3    0  503 -0.10486812978E+03  0.75811337312E+02 -0.29402969059E+03  0.32127905698E+03  0.47000000000E+01 0.  1.
         11    1    4    4    0    0  0.27655393140E+02 -0.20085190939E+02 -0.24484226148E+02  0.42044179084E+02  0.00000000000E+00 0. -1.
        -12    1    4    4    0    0 -0.40030865765E+00 -0.68079195694E+01 -0.16631122017E+03  0.16645098369E+03  0.00000000000E+00 0.  1.
</event>
<event>
12    1  0.8728348E-002  0.2194104E+03  0.7818608E-02  0.1134515E+00
         21   -1    0    0  501  502  0.00000000000E+00  0.00000000000E+00  0.96342118202E+03  0.96342118202E+03  0.00000000000E+00 0.  1.
         21   -1    0    0  502  503 -0.00000000000E+00 -0.00000000000E+00 -0.71222444270E+02  0.71222444270E+02  0.00000000000E+00 0.  1.
         -6    2    1    2    0  503  0.14380246579E+02 -0.13558946326E+03  0.16122693429E+03  0.27145248757E+03  0.17059025363E+03 0.  0.
        -24    2    3    3    0    0 -0.51914230050E+02 -0.23935184821E+02  0.31048144066E+02  0.87522492880E+02  0.58550996198E+02 0.  0.
          6    2    1    2  501    0 -0.14380246579E+02  0.13558946326E+03  0.73097180347E+03  0.76319113872E+03  0.17190009517E+03 0.  0.
         24    2    5    5    0    0 -0.27741791455E+02  0.21012663498E+02  0.47012053522E+03  0.47793362686E+03  0.78715278257E+02 0.  0.
          5    1    5    5  501    0  0.13361544877E+02  0.11457679976E+03  0.26085126825E+03  0.28525751186E+03  0.47000000000E+01 0. -1.
        -13    1    6    6    0    0  0.18942941929E+02  0.31090438237E+02  0.25421503049E+03  0.25680874620E+03  0.00000000000E+00 0.  1.
         14    1    6    6    0    0 -0.46684733385E+02 -0.10077774740E+02  0.21590550473E+03  0.22112488066E+03  0.00000000000E+00 0. -1.
         -5    1    3    3    0  503  0.66294476629E+02 -0.11165427844E+03  0.13017879022E+03  0.18392999470E+03  0.47000000000E+01 0.  1.
         13    1    4    4    0    0 -0.12436456796E+02 -0.17231534585E+02  0.41072097736E+02  0.46244009928E+02  0.00000000000E+00 0. -1.
        -14    1    4    4    0    0 -0.39477773255E+02 -0.67036502362E+01 -0.10023953670E+02  0.41278482952E+02  0.00000000000E+00 0.  1.
</event>
<event>
12    1  0.8728348E-002  0.2536860E+03  0.7818608E-02  0.1111074E+00
         21   -1    0    0  501  502  0.00000000000E+00  0.00000000000E+00  0.73960787370E+02  0.73960787370E+02  0.00000000000E+00 0. -1.
         21   -1    0    0  502  503 -0.00000000000E+00 -0.00000000000E+00 -0.98710748630E+03  0.98710748630E+03  0.00000000000E+00 0. -1.
         -6    2    1    2    0  503 -0.11249972745E+03 -0.14742680481E+03 -0.64011678695E+03  0.68837281022E+03  0.17238553726E+03 0.  0.
        -24    2    3    3    0    0 -0.11539705613E+03 -0.17548513795E+03 -0.57923110246E+03  0.62110601940E+03  0.78437893054E+02 0.  0.
          6    2    1    2  501    0  0.11249972745E+03  0.14742680481E+03 -0.27302991198E+03  0.37269546345E+03  0.17310610674E+03 0.  0.
         24    2    5    5    0    0  0.86514725803E+02  0.43743798503E+02 -0.58718844855E+02  0.13316110350E+03  0.69897489621E+02 0.  0.
          5    1    5    5  501    0  0.25985001643E+02  0.10368300631E+03 -0.21431106712E+03  0.23953435996E+03  0.47000000000E+01 0. -1.
        -13    1    6    6    0    0  0.83700885146E+02  0.10535514059E+02 -0.52191139813E+02  0.99200555974E+02  0.00000000000E+00 0.  1.
         14    1    6    6    0    0  0.28138406574E+01  0.33208284444E+02 -0.65277050426E+01  0.33960547523E+02  0.00000000000E+00 0. -1.
         -5    1    3    3    0  503  0.28973286861E+01  0.28058333133E+02 -0.60885684493E+02  0.67266790825E+02  0.47000000000E+01 0.  1.
         11    1    4    4    0    0 -0.97017600975E+01 -0.22803548103E+02 -0.19985326286E+02  0.31836130761E+02  0.00000000000E+00 0. -1.
        -12    1    4    4    0    0 -0.10569529603E+03 -0.15268158984E+03 -0.55924577618E+03  0.58926988863E+03  0.00000000000E+00 0.  1.
</event>
<event>
12    1  0.8728348E-002  0.1838568E+03  0.7818608E-02  0.1164238E+00
         21   -1    0    0  501  502  0.00000000000E+00  0.00000000000E+00  0.52416099326E+03  0.52416099326E+03  0.00000000000E+00 0.  1.
         21   -1    0    0  502  503 -0.00000000000E+00 -0.00000000000E+00 -0.68998116142E+02  0.68998116142E+02  0.00000000000E+00 0.  1.
         -6    2    1    2    0  503 -0.54079848143E+02 -0.37487748847E+02  0.15062082235E+03  0.23767616535E+03  0.17167808875E+03 0.  0.
        -24    2    3    3    0    0 -0.97137814331E+01 -0.71519232526E+02  0.43247661526E+02  0.11652512151E+03  0.80612564430E+02 0.  0.
          6    2    1    2  501    0  0.54079848143E+02  0.37487748847E+02  0.30454205477E+03  0.35548294406E+03  0.17114993166E+03 0.  0.
         24    2    5    5    0    0  0.94151488094E+02  0.58936736553E+02  0.24625253964E+03  0.28141842506E+03  0.78854137837E+02 0.  0.
          5    1    5    5  501    0 -0.40071639951E+02 -0.21448987707E+02  0.58289515123E+02  0.74064519004E+02  0.47000000000E+01 0. -1.
        -11    1    6    6    0    0  0.82063017891E+02  0.26454155552E+02  0.22452700412E+03  0.24051306997E+03  0.00000000000E+00 0.  1.
         12    1    6    6    0    0  0.12088470203E+02  0.32482581002E+02  0.21725535529E+02  0.40905355082E+02  0.00000000000E+00 0. -1.
         -5    1    3    3    0  503 -0.44366066710E+02  0.34031483679E+02  0.10737316083E+03  0.12115104384E+03  0.47000000000E+01 0.  1.
         11    1    4    4    0    0 -0.48724238851E+01 -0.61191967411E+01  0.49991995529E+02  0.50600244073E+02  0.00000000000E+00 0. -1.
        -12    1    4    4    0    0 -0.48413575480E+01 -0.65400035785E+02 -0.67443340029E+01  0.65924877434E+02  0.00000000000E+00 0.  1.
</event>
<event>
12    1  0.8728348E-002  0.2328027E+03  0.7818608E-02  0.1124765E+00
         21   -1    0    0  501  502  0.00000000000E+00  0.00000000000E+00  0.62105277120E+03  0.62105277120E+03  0.00000000000E+00 0.  1.
         21   -1    0    0  502  503 -0.00000000000E+00 -0.00000000000E+00 -0.17954896031E+03  0.17954896031E+03  0.00000000000E+00 0. -1.
         -6    2    1    2    0  503  0.11279669419E+03 -0.10723961441E+03  0.50790132591E+03  0.55851552783E+03  0.17248886585E+03 0.  0.
        -24    2    3    3    0    0  0.74979544802E+02 -0.19307148792E+02  0.39390052633E+03  0.40958424300E+03  0.81283019939E+02 0.  0.
          6    2    1    2  501    0 -0.11279669419E+03  0.10723961441E+03 -0.66397515022E+02  0.24208620368E+03  0.17312905848E+03 0.  0.
         24    2    5    5    0    0 -0.13992545428E+03  0.60267467560E+02 -0.23737710608E+02  0.17291756110E+03  0.78266874408E+02 0.  0.
          5    1    5    5  501    0  0.27128760089E+02  0.46972146847E+02 -0.42659804414E+02  0.69168642578E+02  0.47000000000E+01 0. -1.
        -13    1    6    6    0    0 -0.50465970863E+02  0.22885367141E+02  0.29004739818E+02  0.62544617484E+02  0.00000000000E+00 0.  1.
         14    1    6    6    0    0 -0.89459483419E+02  0.37382100420E+02 -0.52742450426E+02  0.11037294362E+03  0.00000000000E+00 0. -1.
         -5    1    3    3    0  503  0.37817149391E+02 -0.87932465615E+02  0.11400079958E+03  0.14893128483E+03  0.47000000000E+01 0.  1.
         13    1    4    4    0    0  0.11623560688E+02  0.12275372114E+02  0.23524502195E+03  0.23585167431E+03  0.00000000000E+00 0. -1.
        -14    1    4    4    0    0  0.63355984114E+02 -0.31582520907E+02  0.15865550438E+03  0.17373256868E+03  0.00000000000E+00 0.  1.
</event>
<event>
12    1  0.8728348E-002  0.3345735E+03  0.7818608E-02  0.1069252E+00
         21   -1    0    0  501  502  0.00000000000E+00  0.00000000000E+00  0.19661655523E+03  0.19661655523E+03  0.00000000000E+00 0.  1.
         21   -1    0    0  502  503 -0.00000000000E+00 -0.00000000000E+00 -0.57529419256E+03  0.57529419256E+03  0.00000000000E+00 0. -1.
         -6    2    1    2    0  503 -0.25149629401E+03  0.13800619397E+03 -0.23473232199E+03  0.40870364814E+03  0.17217233673E+03 0.  0.
        -24    2    3    3    0    0 -0.24444901337E+03  0.12045994604E+03 -0.25434520478E+03  0.38105785004E+03  0.79042287076E+02 0.  0.
          6    2    1    2  501    0  0.25149629401E+03 -0.13800619397E+03 -0.14394531533E+03  0.36320709966E+03  0.17000896434E+03 0.  0.
         24    2    5    5    0    0  0.22184151587E+03 -0.16814957755E+03 -0.13571604718E+03  0.31987304498E+03  0.80074845287E+02 0.  0.
          5    1    5    5  501    0  0.29654778146E+02  0.30143383578E+02 -0.82292681483E+01  0.43334054677E+02  0.47000000000E+01 0. -1.
        -13    1    6    6    0    0  0.12123012659E+03 -0.78547667772E+02 -0.27453377118E+02  0.14703798020E+03  0.00000000000E+00 0.  1.
         14    1    6    6    0    0  0.10061138928E+03 -0.89601909779E+02 -0.10826267007E+03  0.17283506478E+03  0.00000000000E+00 0. -1.
         -5    1    3    3    0  503 -0.70472806428E+01  0.17546247937E+02  0.19612882786E+02  0.27645798095E+02  0.47000000000E+01 0.  1.
         11    1    4    4    0    0 -0.21167382862E+03  0.89149318258E+02 -0.24292460336E+03  0.33431388483E+03  0.00000000000E+00 0. -1.
        -12    1    4    4    0    0 -0.32775184750E+02  0.31310627778E+02 -0.11420601417E+02  0.46743965215E+02  0.00000000000E+00 0.  1.
</event>
<event>
12    1  0.8728348E-002  0.2018914E+03  0.7818608E-02  0.1148835E+00
         21   -1    0    0  503  502  0.00000000000E+00  0.00000000000E+00  0.58398546667E+02  0.58398546667E+02  0.00000000000E+00 0. -1.
         21   -1    0    0  501  503 -0.00000000000E+00 -0.00000000000E+00 -0.73257663218E+03  0.73257663218E+03  0.00000000000E+00 0. -1.
          6    2    1    2  501    0 -0.65108649233E+02  0.76145631860E+02 -0.43339571347E+03  0.47675189163E+03  0.17153200361E+03 0.  0.
         24    2    3    3    0    0  0.17684001269E+02  0.53008006005E+02 -0.78872971588E+02  0.11192530650E+03  0.56424781671E+02 0.  0.
         -6    2    1    2    0  502  0.65108649233E+02 -0.76145631860E+02 -0.24078237205E+03  0.31422328722E+03  0.17527929166E+03 0.  0.
        -24    2    5    5    0    0  0.16641989732E+02 -0.10696179372E+03 -0.20685806965E+03  0.24735325501E+03  0.81704287793E+02 0.  0.
          5    1    3    3  501    0 -0.82792650502E+02  0.23137625855E+02 -0.35452274188E+03  0.36482658513E+03  0.47000000000E+01 0. -1.
        -13    1    4    4    0    0  0.25891241277E+01  0.61185088880E+02 -0.68429375033E+02  0.91830811999E+02  0.00000000000E+00 0.  1.
         14    1    4    4    0    0  0.15094877141E+02 -0.81770828753E+01 -0.10443596555E+02  0.20094494501E+02  0.00000000000E+00 0. -1.
         -5    1    5    5    0  502  0.48466659501E+02  0.30816161862E+02 -0.33924302395E+02  0.66870032212E+02  0.47000000000E+01 0.  1.
         13    1    6    6    0    0  0.47886261559E+02 -0.84388359447E+02 -0.15099015400E+03  0.17947845515E+03  0.00000000000E+00 0. -1.
        -14    1    6    6    0    0 -0.31244271827E+02 -0.22573434275E+02 -0.55867915652E+02  0.67874799862E+02  0.00000000000E+00 0.  1.
</event>
<event>
12    1  0.8728348E-002  0.2140908E+03  0.7818608E-02  0.1138562E+00
         21   -1    0    0  501  502  0.00000000000E+00  0.00000000000E+00  0.73758345746E+02  0.73758345746E+02  0.00000000000E+00 0. -1.
         21   -1    0    0  502  503 -0.00000000000E+00 -0.00000000000E+00 -0.61907476255E+03  0.61907476255E+03  0.00000000000E+00 0. -1.
         -6    2    1    2    0  503 -0.84762616965E+02  0.95145804569E+02 -0.26269498038E+03  0.33888573938E+03  0.17203914169E+03 0.  0.
        -24    2    3    3    0    0 -0.85719006402E+02  0.25837653277E+02 -0.23573177784E+03  0.26436299918E+03  0.79391384054E+02 0.  0.
          6    2    1    2  501    0  0.84762616965E+02 -0.95145804569E+02 -0.28262143642E+03  0.35394736892E+03  0.17078184411E+03 0.  0.
         24    2    5    5    0    0  0.56608739821E+01 -0.79589709507E+01 -0.18569104850E+03  0.20138190821E+03  0.77318282103E+02 0.  0.
          5    1    5    5  501    0  0.79101742982E+02 -0.87186833618E+02 -0.96930387925E+02  0.15256546071E+03  0.47000000000E+01 0. -1.
        -11    1    6    6    0    0 -0.28731392308E+02 -0.22386103782E+02 -0.12452202152E+03  0.12973960224E+03  0.00000000000E+00 0.  1.
         12    1    6    6    0    0  0.34392266290E+02  0.14427132832E+02 -0.61169026977E+02  0.71642305962E+02  0.00000000000E+00 0. -1.
         -5    1    3    3    0  503  0.95638943765E+00  0.69308151293E+02 -0.26963202538E+02  0.74522740204E+02  0.47000000000E+01 0.  1.
         11    1    4    4    0    0  0.99895538792E+01  0.20848610330E+02 -0.58013048299E+02  0.62449735886E+02  0.00000000000E+00 0. -1.
        -12    1    4    4    0    0 -0.95708560281E+02  0.49890429466E+01 -0.17771872955E+03  0.20191326329E+03  0.00000000000E+00 0.  1.
</event>
<event>
12    1  0.8728348E-002  0.1731984E+03  0.7818608E-02  0.1174886E+00
         21   -1    0    0  503  502  0.00000000000E+00  0.00000000000E+00  0.92053064115E+02  0.92053064115E+02  0.00000000000E+00 0. -1.
         21   -1    0    0  501  503 -0.00000000000E+00 -0.00000000000E+00 -0.39729035876E+03  0.39729035876E+03  0.00000000000E+00 0. -1.
          6    2    1    2  501    0  0.12655438982E+02  0.13566540080E+02 -0.25858890348E+03  0.31123288089E+03  0.17220184087E+03 0.  0.
         24    2    3    3    0    0  0.39361132238E+02  0.28124138564E+02 -0.75911888839E+02  0.12598143176E+03  0.88138756405E+02 0.  0.
         -6    2    1    2    0  502 -0.12655438982E+02 -0.13566540080E+02 -0.46648391167E+02  0.17811054199E+03  0.17088909158E+03 0.  0.
        -24    2    5    5    0    0 -0.39381263001E+02 -0.48715828751E+01 -0.83853304658E+02  0.13124725638E+03  0.92843144114E+02 0.  0.
          5    1    3    3  501    0 -0.26705693255E+02 -0.14557598485E+02 -0.18267701464E+03  0.18525144913E+03  0.47000000000E+01 0. -1.
        -13    1    4    4    0    0  0.43126893724E+02  0.39498019024E+01 -0.88454986083E+02  0.98487636079E+02  0.00000000000E+00 0.  1.
         14    1    4    4    0    0 -0.37657614864E+01  0.24174336662E+02  0.12543097244E+02  0.27493795683E+02  0.00000000000E+00 0. -1.
         -5    1    5    5    0  502  0.26725824018E+02 -0.86949572046E+01  0.37204913492E+02  0.46863285610E+02  0.47000000000E+01 0.  1.
         11    1    6    6    0    0  0.19849836548E+02  0.15611418299E+02 -0.58357125731E+02  0.63586842317E+02  0.00000000000E+00 0. -1.
        -12    1    6    6    0    0 -0.59231099548E+02 -0.20483001174E+02 -0.25496178928E+02  0.67660414059E+02  0.00000000000E+00 0.  1.
</event>
<event>
12    1  0.8728348E-002  0.2165185E+03  0.7818608E-02  0.1137033E+00
         21   -1    0    0  503  502  0.00000000000E+00  0.00000000000E+00  0.52940419562E+02  0.52940419562E+02  0.00000000000E+00 0.  1.
         21   -1    0    0  501  503 -0.00000000000E+00 -0.00000000000E+00 -0.13623234244E+04  0.13623234244E+04  0.00000000000E+00 0.  1.
          6    2    1    2  501    0 -0.24180164307E+02 -0.10935278232E+03 -0.10755278530E+04  0.10965657531E+04  0.18208123698E+03 0.  0.
         24    2    3    3    0    0  0.51505576175E+02 -0.83188388825E+02 -0.79716131992E+03  0.80687121818E+03  0.77471674457E+02 0.  0.
         -6    2    1    2    0  502  0.24180164307E+02  0.10935278232E+03 -0.23385515182E+03  0.31869809088E+03  0.18530388488E+03 0.  0.
        -24    2    5    5    0    0  0.65009995152E+02  0.13299729540E+03 -0.18102636884E+03  0.24771141329E+03  0.81705679141E+02 0.  0.
          5    1    3    3  501    0 -0.75685740482E+02 -0.26164393498E+02 -0.27836653311E+03  0.28969453491E+03  0.47000000000E+01 0. -1.
        -13    1    4    4    0    0  0.21881965948E+02  0.26910750967E+01 -0.56330945936E+02  0.60491634041E+02  0.00000000000E+00 0.  1.
         14    1    4    4    0    0  0.29623610227E+02 -0.85879463922E+02 -0.74083037398E+03  0.74637958414E+03  0.00000000000E+00 0. -1.
         -5    1    5    5    0  502 -0.40829830845E+02 -0.23644513074E+02 -0.52828782976E+02  0.70986677596E+02  0.47000000000E+01 0.  1.
         13    1    6    6    0    0  0.56440510906E+02  0.95674118239E+02 -0.72551406285E+02  0.13267544884E+03  0.00000000000E+00 0. -1.
        -14    1    6    6    0    0  0.85694842457E+01  0.37323177159E+02 -0.10847496256E+03  0.11503596444E+03  0.00000000000E+00 0.  1.
</event>
<event>
12    1  0.8728348E-002  0.1780543E+03  0.7818608E-02  0.1170804E+00
         21   -1    0    0  503  502  0.00000000000E+00  0.00000000000E+00  0.11193056676E+03  0.11193056676E+03  0.00000000000E+00 0. -1.
         21   -1    0    0  501  503 -0.00000000000E+00 -0.00000000000E+00 -0.65638295684E+03  0.65638295684E+03  0.00000000000E+00 0. -1.
          6    2    1    2  501    0  0.23596442580E+02 -0.77259518506E+01 -0.56312680903E+03  0.58928261333E+03  0.17183047717E+03 0.  0.
         24    2    3    3    0    0  0.60236730832E+02 -0.54272531834E+02 -0.37509581273E+03  0.39208514782E+03  0.80373645947E+02 0.  0.
         -6    2    1    2    0  502 -0.23596442580E+02  0.77259518506E+01  0.18674418953E+02  0.17903091027E+03  0.17631463488E+03 0.  0.
        -24    2    5    5    0    0  0.40712654149E+02 -0.16188628441E+02  0.49762001485E+02  0.10355843277E+03  0.79551871796E+02 0.  0.
          5    1    3    3  501    0 -0.36640288252E+02  0.46546579983E+02 -0.18803099631E+03  0.19719746551E+03  0.47000000000E+01 0. -1.
        -11    1    4    4    0    0  0.45080614934E+02 -0.22947184474E+02 -0.78055868108E+02  0.93013728364E+02  0.00000000000E+00 0.  1.
         12    1    4    4    0    0  0.15156115898E+02 -0.31325347361E+02 -0.29703994462E+03  0.29907141945E+03  0.00000000000E+00 0. -1.
         -5    1    5    5    0  502 -0.64309096729E+02  0.23914580292E+02 -0.31087582533E+02  0.75472477502E+02  0.47000000000E+01 0.  1.
         11    1    6    6    0    0  0.29271702551E+02  0.30277550903E+02  0.16264009817E+02  0.45145106870E+02  0.00000000000E+00 0. -1.
        -12    1    6    6    0    0  0.11440951598E+02 -0.46466179344E+02  0.33497991669E+02  0.58413325895E+02  0.00000000000E+00 0.  1.
</event>
<event>
12    1  0.8728348E-002  0.2473495E+03  0.7818608E-02  0.1115437E+00
         21   -1    0    0  501  502  0.00000000000E+00  0.00000000000E+00  0.21712503769E+03  0.21712503769E+03  0.00000000000E+00 0. -1.
         21   -1    0    0  502  503 -0.00000000000E+00 -0.00000000000E+00 -0.35074472413E+03  0.35074472413E+03  0.00000000000E+00 0.  1.
         -6    2    1    2    0  503 -0.64458525267E+02 -0.16171133799E+03 -0.19584231773E+03  0.31549321610E+03  0.17571652647E+03 0.  0.
        -24    2    3    3    0    0 -0.76941715169E+02 -0.16716314364E+03 -0.11110363431E+03  0.22953807267E+03  0.80499472793E+02 0.  0.
          6    2    1    2  501    0  0.64458525267E+02  0.16171133799E+03  0.62222631287E+02  0.25237654573E+03  0.17180455953E+03 0.  0.
         24    2    5    5    0    0 -0.29118517117E+02  0.61877438844E+02  0.13556194410E+02  0.10707003397E+03  0.81262022441E+02 0.  0.
          5    1    5    5  501    0  0.93577042384E+02  0.99833899145E+02  0.48666436877E+02  0.14530651175E+03  0.47000000000E+01 0. -1.
        -11    1    6    6    0    0 -0.26284610283E+02  0.51324578206E+02 -0.27999360809E+02  0.64101928766E+02  0.00000000000E+00 0.  1.
         12    1    6    6    0    0 -0.28339068340E+01  0.10552860637E+02  0.41555555219E+02  0.42968105207E+02  0.00000000000E+00 0. -1.
         -5    1    3    3    0  503  0.12483189903E+02  0.54518056542E+01 -0.84738683418E+02  0.85955143432E+02  0.47000000000E+01 0.  1.
         11    1    4    4    0    0 -0.12790450648E+02 -0.11476514750E+03 -0.46474944626E+02  0.12447712716E+03  0.00000000000E+00 0. -1.
        -12    1    4    4    0    0 -0.64151264522E+02 -0.52397996142E+02 -0.64628689687E+02  0.10506094550E+03  0.00000000000E+00 0.  1.
</event>
<event>
12    1  0.8728348E-002  0.2062729E+03  0.7818608E-02  0.1144777E+00
         21   -1    0    0  501  502  0.00000000000E+00  0.00000000000E+00  0.22819747663E+02  0.22819747663E+02  0.00000000000E+00 0.  1.
         21   -1    0    0  502  503 -0.00000000000E+00 -0.00000000000E+00 -0.18774873342E+04  0.18774873342E+04  0.00000000000E+00 0.  1.
         -6    2    1    2    0  503  0.88655458964E+02  0.65855710517E+02 -0.81982892933E+03  0.84511062003E+03  0.17290379323E+03 0.  0.
        -24    2    3    3    0    0  0.54208572985E+01 -0.98002245925E+01 -0.49208354547E+03  0.49856921403E+03  0.79370116302E+02 0.  0.
          6    2    1    2  501    0 -0.88655458964E+02 -0.65855710517E+02 -0.10348386572E+04  0.10551964618E+04  0.17421756971E+03 0.  0.
         24    2    5    5    0    0  0.17891890757E+02 -0.36348707053E+02 -0.58852313186E+03  0.59536753804E+03  0.80384577878E+02 0.  0.
          5    1    5    5  501    0 -0.10654734972E+03 -0.29507003464E+02 -0.44631552532E+03  0.45982892376E+03  0.47000000000E+01 0. -1.
        -11    1    6    6    0    0  0.22622678518E+01 -0.60854006377E+02 -0.38848067801E+03  0.39322457341E+03  0.00000000000E+00 0.  1.
         12    1    6    6    0    0  0.15629622905E+02  0.24505299324E+02 -0.20004245385E+03  0.20214296463E+03  0.00000000000E+00 0. -1.
         -5    1    3    3    0  503  0.83234601666E+02  0.75655935110E+02 -0.32774538387E+03  0.34654140601E+03  0.47000000000E+01 0.  1.
         13    1    4    4    0    0  0.71115804003E+01  0.30017334595E+02 -0.33837030383E+03  0.33977356793E+03  0.00000000000E+00 0. -1.
        -14    1    4    4    0    0 -0.16907231018E+01 -0.39817559188E+02 -0.15371324163E+03  0.15879564609E+03  0.00000000000E+00 0.  1.
</event>
<event>
12    1  0.8728348E-002  0.1910007E+03  0.7818608E-02  0.1158023E+00
         21   -1    0    0  503  502  0.00000000000E+00  0.00000000000E+00  0.10825440833E+04  0.10825440833E+04  0.00000000000E+00 0.  1.
         21   -1    0    0  501  503 -0.00000000000E+00 -0.00000000000E+00 -0.40063742208E+02  0.40063742208E+02  0.00000000000E+00 0.  1.
          6    2    1    2  501    0  0.11798380250E+02 -0.81908800600E+02  0.75352577941E+03  0.77735600835E+03  0.17214241223E+03 0.  0.
         24    2    3    3    0    0  0.66663528207E+02 -0.78238768477E+02  0.44969498155E+03  0.46855364870E+03  0.82168207919E+02 0.  0.
         -6    2    1    2    0  502 -0.11798380250E+02  0.81908800600E+02  0.28895456168E+03  0.34525181716E+03  0.16987002426E+03 0.  0.
        -24    2    5    5    0    0  0.35828560037E+00  0.27239387626E+02  0.27358243353E+03  0.28698586172E+03  0.82288664373E+02 0.  0.
          5    1    3    3  501    0 -0.54865147957E+02 -0.36700321236E+01  0.30383079786E+03  0.30880235965E+03  0.47000000000E+01 0. -1.
        -11    1    4    4    0    0  0.19064169835E+02 -0.51094575887E+02  0.94093137641E+02  0.10875484728E+03  0.00000000000E+00 0.  1.
         12    1    4    4    0    0  0.47599358372E+02 -0.27144192590E+02  0.35560184391E+03  0.35979880141E+03  0.00000000000E+00 0. -1.
         -5    1    5    5    0  502 -0.12156665851E+02  0.54669412975E+02  0.15372128154E+02  0.58265955442E+02  0.47000000000E+01 0.  1.
         13    1    6    6    0    0  0.97947569601E+01 -0.25597638975E+02  0.14637362268E+03  0.14891747313E+03  0.00000000000E+00 0. -1.
        -14    1    6    6    0    0 -0.94364713597E+01  0.52837026601E+02  0.12720881084E+03  0.13806838859E+03  0.00000000000E+00 0.  1.
</event>
<event>
12    1  0.8728348E-002  0.2316370E+03  0.7818608E-02  0.1125639E+00
         21   -1    0    0  501  502  0.00000000000E+00  0.00000000000E+00  0.64805993977E+03  0.64805993977E+03  0.00000000000E+00 0.  1.
         21   -1    0    0  502  503 -0.00000000000E+00 -0.00000000000E+00 -0.64453528909E+03  0.64453528909E+03  0.00000000000E+00 0.  1.
         -6    2    1    2    0  503 -0.13739592313E+03  0.67490814474E+02 -0.60175941270E+03  0.64450226915E+03  0.17273139389E+03 0.  0.
        -24    2    3    3    0    0 -0.59596459452E+02 -0.28562613662E+02 -0.33706224761E+03  0.35232818267E+03  0.78464187114E+02 0.  0.
          6    2    1    2  501    0  0.13739592313E+03 -0.67490814474E+02  0.60528406337E+03  0.64809295971E+03  0.17384774179E+03 0.  0.
         24    2    5    5    0    0  0.33429818880E+02 -0.41223833570E+02  0.44507004751E+03  0.45524709899E+03  0.79659379267E+02 0.  0.
          5    1    5    5  501    0  0.10396610425E+03 -0.26266980903E+02  0.16021401586E+03  0.19284586072E+03  0.47000000000E+01 0. -1.
        -13    1    6    6    0    0 -0.96387016244E-01  0.16589697618E+02  0.21575567503E+03  0.21639255686E+03  0.00000000000E+00 0.  1.
         14    1    6    6    0    0  0.33526205896E+02 -0.57813531188E+02  0.22931437248E+03  0.23885454213E+03  0.00000000000E+00 0. -1.
         -5    1    3    3    0  503 -0.77799463674E+02  0.96053428136E+02 -0.26469716509E+03  0.29217408648E+03  0.47000000000E+01 0.  1.
         13    1    4    4    0    0 -0.23896868241E+02 -0.50222215839E+02 -0.24508076062E+03  0.25131237634E+03  0.00000000000E+00 0. -1.
        -14    1    4    4    0    0 -0.35699591211E+02  0.21659602177E+02 -0.91981486988E+02  0.10101580633E+03  0.00000000000E+00 0.  1.
</event>
<event>
12    1  0.8728348E-002  0.1865391E+03  0.7818608E-02  0.1161646E+00
         21   -1    0    0  503  502  0.00000000000E+00  0.00000000000E+00  0.50713557827E+02  0.50713557827E+02  0.00000000000E+00 0. -1.
         21   -1    0    0  501  503 -0.00000000000E+00 -0.00000000000E+00 -0.93781313468E+03  0.93781313468E+03  0.00000000000E+00 0. -1.
          6    2    1    2  501    0  0.16376899841E+02 -0.67879728954E+02 -0.69989957008E+03  0.72433158726E+03  0.17297681828E+03 0.  0.
         24    2    3    3    0    0 -0.57702356800E+02 -0.30470970325E+02 -0.36575424041E+03  0.38000275777E+03  0.79799057116E+02 0.  0.
         -6    2    1    2    0  502 -0.16376899841E+02  0.67879728954E+02 -0.18720000677E+03  0.26419510524E+03  0.17285644520E+03 0.  0.
        -24    2    5    5    0    0 -0.32397524362E+02  0.10930423595E+03 -0.16104224515E+03  0.21243635059E+03  0.78724727671E+02 0.  0.
          5    1    3    3  501    0  0.74079256640E+02 -0.37408758630E+02 -0.33414532966E+03  0.34432882950E+03  0.47000000000E+01 0. -1.
        -11    1    4    4    0    0 -0.23946474447E+02 -0.14858921871E+01 -0.19543967918E+02  0.30945245128E+02  0.00000000000E+00 0.  1.
         12    1    4    4    0    0 -0.33755882353E+02 -0.28985078138E+02 -0.34621027250E+03  0.34905751264E+03  0.00000000000E+00 0. -1.
         -5    1    5    5    0  502  0.16020624521E+02 -0.41424506996E+02 -0.26157761621E+02  0.51758754650E+02  0.47000000000E+01 0.  1.
         13    1    6    6    0    0  0.20626813252E+02  0.61114478551E+02 -0.56810315578E+02  0.85952643180E+02  0.00000000000E+00 0. -1.
        -14    1    6    6    0    0 -0.53024337614E+02  0.48189757400E+02 -0.10423192957E+03  0.12648370741E+03  0.00000000000E+00 0.  1.
</event>
<event>
12    1  0.8728348E-002  0.3344712E+03  0.7818608E-02  0.1069292E+00
         21   -1    0    0  503  502  0.00000000000E+00  0.00000000000E+00  0.17347031750E+04  0.17347031750E+04  0.00000000000E+00 0.  1.
         21   -1    0    0  501  503 -0.00000000000E+00 -0.00000000000E+00 -0.65459382758E+02  0.65459382758E+02  0.00000000000E+00 0. -1.
          6    2    1    2  501    0  0.22102329589E+02 -0.28552782007E+03  0.95395536258E+03  0.10105370196E+04  0.17070320775E+03 0.  0.
         24    2    3    3    0    0 -0.24605027995E+02 -0.72952094771E+02  0.40128548077E+03  0.41653693161E+03  0.80904652460E+02 0.  0.
         -6    2    1    2    0  502 -0.22102329589E+02  0.28552782007E+03  0.71528842968E+03  0.78962553819E+03  0.17278976800E+03 0.  0.
        -24    2    5    5    0    0 -0.25285336974E+02  0.30094505597E+03  0.68375920787E+03  0.75407269686E+03  0.99457040150E+02 0.  0.
          5    1    3    3  501    0  0.46707357584E+02 -0.21257572530E+03  0.55266988181E+03  0.59400008796E+03  0.47000000000E+01 0. -1.
        -13    1    4    4    0    0 -0.22396739724E+02 -0.90563122651E+02  0.35200343399E+03  0.36415616248E+03  0.00000000000E+00 0.  1.
         14    1    4    4    0    0 -0.22082882710E+01  0.17611027880E+02  0.49282046782E+02  0.52380769134E+02  0.00000000000E+00 0. -1.
         -5    1    5    5    0  502  0.31830073846E+01 -0.15417235894E+02  0.31529221813E+02  0.35552841331E+02  0.47000000000E+01 0.  1.
         11    1    6    6    0    0 -0.21448569166E+02  0.13433708639E+03  0.19564126615E+03  0.23828973734E+03  0.00000000000E+00 0. -1.
        -12    1    6    6    0    0 -0.38367678079E+01  0.16660796958E+03  0.48811794171E+03  0.51578295952E+03  0.00000000000E+00 0.  1.
</event>
<event>
12    1  0.8728348E-002  0.2428680E+03  0.7818608E-02  0.1118397E+00
         21   -1    0    0  501  502  0.00000000000E+00  0.00000000000E+00  0.57689672235E+03  0.57689672235E+03  0.00000000000E+00 0. -1.
         21   -1    0    0  502  503 -0.00000000000E+00 -0.00000000000E+00 -0.15649235339E+03  0.15649235339E+03  0.00000000000E+00 0.  1.
         -6    2    1    2    0  503  0.46586267334E+02  0.16052361454E+03  0.42946397196E+03  0.49338033968E+03  0.17620086618E+03 0.  0.
        -24    2    3    3    0    0  0.59040348513E+02  0.41354024752E+02  0.29033904951E+03  0.30971126412E+03  0.80177212098E+02 0.  0.
          6    2    1    2  501    0 -0.46586267334E+02 -0.16052361454E+03 -0.90596030062E+01  0.24000873606E+03  0.17200001700E+03 0.  0.
         24    2    5    5    0    0 -0.69099669490E+02 -0.58007378395E+02  0.33785053982E+02  0.12654426328E+03  0.82051206114E+02 0.  0.
          5    1    5    5  501    0  0.22513402156E+02 -0.10251623615E+03 -0.42844656988E+02  0.11346447278E+03  0.47000000000E+01 0. -1.
        -11    1    6    6    0    0 -0.15796763373E+02 -0.31632064025E+02 -0.24702566236E+02  0.43131681931E+02  0.00000000000E+00 0.  1.
         12    1    6    6    0    0 -0.53302906117E+02 -0.26375314370E+02  0.58487620218E+02  0.83412581350E+02  0.00000000000E+00 0. -1.
         -5    1    3    3    0  503 -0.12454081179E+02  0.11916958979E+03  0.13912492246E+03  0.18366907556E+03  0.47000000000E+01 0.  1.
         11    1    4    4    0    0  0.58506889068E+02  0.59538039128E+02  0.26908478336E+03  0.28173472418E+03  0.00000000000E+00 0. -1.
        -12    1    4    4    0    0  0.53345944484E+00 -0.18184014376E+02  0.21254266144E+02  0.27976539942E+02  0.00000000000E+00 0.  1.
</event>
<event>
12    1  0.8728348E-002  0.1766015E+03  0.7818608E-02  0.1174711E+00
         21   -1    0    0  501  502  0.00000000000E+00  0.00000000000E+00  0.20030251724E+03  0.20030251724E+03  0.00000000000E+00 0. -1.
         21   -1    0    0  502  503 -0.00000000000E+00 -0.00000000000E+00 -0.14484193920E+03  0.14484193920E+03  0.00000000000E+00 0. -1.
         -6    2    1    2    0  503 -0.10972321949E+02 -0.32713759650E+02  0.41467004049E+02  0.16798939748E+03  0.15909224783E+03 0.  0.
        -24    2    3    3    0    0  0.38601784971E+02  0.36200399263E+01  0.56433686159E+02  0.10455574204E+03  0.79018603937E+02 0.  0.
          6    2    1    2  501    0  0.10972321949E+02  0.32713759650E+02  0.13993573986E+02  0.17715505897E+03  0.17319790093E+03 0.  0.
         24    2    5    5    0    0  0.23520506381E+02  0.73720582428E+02 -0.30894768998E+02  0.11489696887E+03  0.79113135508E+02 0.  0.
          5    1    5    5  501    0 -0.12548184432E+02 -0.41006822778E+02  0.44888342985E+02  0.62258090099E+02  0.47000000000E+01 0. -1.
        -11    1    6    6    0    0  0.36918245022E+02  0.80143775880E+02 -0.93590245060E+01  0.88733155965E+02  0.00000000000E+00 0.  1.
         12    1    6    6    0    0 -0.13397738641E+02 -0.64231934525E+01 -0.21535744493E+02  0.26163812904E+02  0.00000000000E+00 0. -1.
         -5    1    3    3    0  503 -0.49574106920E+02 -0.36333799576E+02 -0.14966682110E+02  0.63433655436E+02  0.47000000000E+01 0.  1.
         13    1    4    4    0    0  0.22335338505E+02  0.40016504264E+02  0.41984083022E+02  0.62151839770E+02  0.00000000000E+00 0. -1.
        -14    1    4    4    0    0  0.16266446466E+02 -0.36396464338E+02  0.14449603138E+02  0.42403902270E+02  0.00000000000E+00 0.  1.
</event>
<event>
12    1  0.8728348E-002  0.2323037E+03  0.7818608E-02  0.1125048E+00
         21   -1    0    0  503  502  0.00000000000E+00  0.00000000000E+00  0.16410512143E+03  0.16410512143E+03  0.00000000000E+00 0.  1.
         21   -1    0    0  501  503 -0.00000000000E+00 -0.00000000000E+00 -0.32894576303E+03  0.32894576303E+03  0.00000000000E+00 0.  1.
          6    2    1    2  501    0  0.13212072499E+03 -0.82320775971E+02 -0.75483043347E+02  0.24415374349E+03  0.17228106251E+03 0.  0.
         24    2    3    3    0    0  0.53142005784E+02  0.20652014754E+02 -0.45003154693E+02  0.11076653522E+03  0.83626328995E+02 0.  0.
         -6    2    1    2    0  502 -0.13212072499E+03  0.82320775971E+02 -0.89357598251E+02  0.24889714097E+03  0.17243088555E+03 0.  0.
        -24    2    5    5    0    0 -0.95592036242E+02 -0.99528179488E+01 -0.81121129692E+02  0.14920415902E+03  0.80276692806E+02 0.  0.
          5    1    3    3  501    0  0.78978719206E+02 -0.10297279073E+03 -0.30479888653E+02  0.13338720827E+03  0.47000000000E+01 0. -1.
        -11    1    4    4    0    0  0.23953523632E+02 -0.29297688663E+02 -0.35973782637E+02  0.52213397635E+02  0.00000000000E+00 0.  1.
         12    1    4    4    0    0  0.29188482153E+02  0.49949703418E+02 -0.90293720565E+01  0.58553137590E+02  0.00000000000E+00 0. -1.
         -5    1    5    5    0  502 -0.36528688748E+02  0.92273593920E+02 -0.82364685587E+01  0.99692981954E+02  0.47000000000E+01 0.  1.
         13    1    6    6    0    0  0.13924647763E+02  0.86439086905E-01 -0.16720413738E+02  0.21759492701E+02  0.00000000000E+00 0. -1.
        -14    1    6    6    0    0 -0.10951668401E+03 -0.10039257036E+02 -0.64400715954E+02  0.12744466632E+03  0.00000000000E+00 0.  1.
</event>
<event>
12    1  0.8728348E-002  0.2061056E+03  0.7818608E-02  0.1146251E+00
         21   -1    0    0  503  502  0.00000000000E+00  0.00000000000E+00  0.76174255276E+03  0.76174255276E+03  0.00000000000E+00 0. -1.
         21   -1    0    0  501  503 -0.00000000000E+00 -0.00000000000E+00 -0.56762457278E+02  0.56762457278E+02  0.00000000000E+00 0.  1.
          6    2    1    2  501    0  0.90393681807E+02  0.39553943094E+02  0.26431927074E+03  0.33517784279E+03  0.18095296981E+03 0.  0.
         24    2    3    3    0    0  0.12833023165E+02  0.92095438518E+01  0.30519555767E+02  0.86942399996E+02  0.79862603584E+02 0.  0.
         -6    2    1    2    0  502 -0.90393681807E+02 -0.39553943094E+02  0.44066082474E+03  0.48332716725E+03  0.17230106216E+03 0.  0.
        -24    2    5    5    0    0 -0.56295243072E+02  0.44602426212E+02  0.23417696456E+03  0.25771096098E+03  0.80109661477E+02 0.  0.
          5    1    3    3  501    0  0.77560658642E+02  0.30344399242E+02  0.23379971498E+03  0.24823544279E+03  0.47000000000E+01 0. -1.
        -13    1    4    4    0    0  0.39570290064E+02 -0.15821788261E+02  0.64148893043E+01  0.43096260213E+02  0.00000000000E+00 0.  1.
         14    1    4    4    0    0 -0.26737266900E+02  0.25031332112E+02  0.24104666463E+02  0.43846139783E+02  0.00000000000E+00 0. -1.
         -5    1    5    5    0  502 -0.34098438735E+02 -0.84156369305E+02  0.20648386018E+03  0.22561620627E+03  0.47000000000E+01 0.  1.
         13    1    6    6    0    0 -0.75528791184E+02  0.42742028653E+02  0.20610939592E+03  0.22363488636E+03  0.00000000000E+00 0. -1.
        -14    1    6    6    0    0  0.19233548112E+02  0.18603975584E+01  0.28067568638E+02  0.34076074617E+02  0.00000000000E+00 0.  1.
</event>
<event>
12    1  0.8728348E-002  0.2461558E+03  0.7818608E-02  0.1115824E+00
         21   -1    0    0  501  502  0.00000000000E+00  0.00000000000E+00  0.62544501049E+02  0.62544501049E+02  0.00000000000E+00 0.  1.
         21   -1    0    0  502  503 -0.00000000000E+00 -0.00000000000E+00 -0.10456704988E+04  0.10456704988E+04  0.00000000000E+00 0.  1.
         -6    2    1    2    0  503  0.10432751551E+03  0.14094937808E+03 -0.64298128283E+03  0.68834465906E+03  0.17216992161E+03 0.  0.
        -24    2    3    3    0    0 -0.14099480120E+01  0.46681548261E+02 -0.34296170546E+03  0.35653044637E+03  0.85498964206E+02 0.  0.
          6    2    1    2  501    0 -0.10432751551E+03 -0.14094937808E+03 -0.34014471495E+03  0.41987034082E+03  0.17274755662E+03 0.  0.
         24    2    5    5    0    0 -0.14124069571E+03 -0.12266108876E+03 -0.28185382731E+03  0.34833739750E+03  0.83082403098E+02 0.  0.
          5    1    5    5  501    0  0.36913180199E+02 -0.18288289328E+02 -0.58290887639E+02  0.71532943324E+02  0.47000000000E+01 0. -1.
        -11    1    6    6    0    0 -0.66466832919E+02 -0.41904689187E+02 -0.18776672575E+03  0.20354406440E+03  0.00000000000E+00 0.  1.
         12    1    6    6    0    0 -0.74773862792E+02 -0.80756399570E+02 -0.94087101559E+02  0.14479333309E+03  0.00000000000E+00 0. -1.
         -5    1    3    3    0  503  0.10573746352E+03  0.94267829823E+02 -0.30001957737E+03  0.33181421269E+03  0.47000000000E+01 0.  1.
         13    1    4    4    0    0 -0.38148649961E+00 -0.23707066259E+02 -0.51625054783E+02  0.56809478117E+02  0.00000000000E+00 0. -1.
        -14    1    4    4    0    0 -0.10284615124E+01  0.70388614520E+02 -0.29133665067E+03  0.29972096826E+03  0.00000000000E+00 0.  1.
</event>
<event>
12    1  0.8728348E-002  0.2107402E+03  0.7818608E-02  0.1141031E+00
         21   -1    0    0  503  502  0.00000000000E+00  0.00000000000E+00  0.72219983379E+02  0.72219983379E+02  0.00000000000E+00 0.  1.
         21   -1    0    0  501  503 -0.00000000000E+00 -0.00000000000E+00 -0.63067884705E+03  0.63067884705E+03  0.00000000000E+00 0. -1.
          6    2    1    2  501    0  0.85675073715E+02  0.88414659799E+02 -0.22260524658E+03  0.30653636253E+03  0.17103822796E+03 0.  0.
         24    2    3    3    0    0  0.12455495137E+02  0.69428521409E+02 -0.19953407090E+03  0.22731547333E+03  0.82963968202E+02 0.  0.
         -6    2    1    2    0  502 -0.85675073715E+02 -0.88414659799E+02 -0.33585361709E+03  0.39636246791E+03  0.17072839110E+03 0.  0.
        -24    2    5    5    0    0 -0.67544416610E+02 -0.64476283034E+02 -0.98951382634E+02  0.15751832353E+03  0.79380141311E+02 0.  0.
          5    1    3    3  501    0  0.73219578579E+02  0.18986138390E+02 -0.23071175681E+02  0.79220889199E+02  0.47000000000E+01 0. -1.
        -11    1    4    4    0    0  0.42239200329E+01  0.60312426218E+02 -0.53399352685E+02  0.80665489051E+02  0.00000000000E+00 0.  1.
         12    1    4    4    0    0  0.82315751036E+01  0.91160951911E+01 -0.14613471822E+03  0.14664998428E+03  0.00000000000E+00 0. -1.
         -5    1    5    5    0  502 -0.18130657105E+02 -0.23938376765E+02 -0.23690223446E+03  0.23884414437E+03  0.47000000000E+01 0.  1.
         13    1    6    6    0    0  0.12555083968E+02 -0.26185193162E+02 -0.45226572073E+02  0.53746974760E+02  0.00000000000E+00 0. -1.
        -14    1    6    6    0    0 -0.80099500578E+02 -0.38291089871E+02 -0.53724810561E+02  0.10377134877E+03  0.00000000000E+00 0.  1.
</event>
<event>
12    1  0.8728348E-002  0.2302312E+03  0.7818608E-02  0.1126561E+00
         21   -1    0    0  503  502  0.00000000000E+00  0.00000000000E+00  0.31395096657E+03  0.31395096657E+03  0.00000000000E+00 0.  1.
         21   -1    0    0  501  503 -0.00000000000E+00 -0.00000000000E+00 -0.39784242257E+03  0.39784242257E+03  0.00000000000E+00 0.  1.
          6    2    1    2  501    0  0.25063978248E+02  0.15008329248E+03 -0.31214945994E+03  0.38758958472E+03  0.17214878204E+03 0.  0.
         24    2    3    3    0    0  0.50340206786E+02  0.18727827541E+02 -0.13964507975E+03  0.16924811573E+03  0.79115791311E+02 0.  0.
         -6    2    1    2    0  502 -0.25063978248E+02 -0.15008329248E+03  0.22825800393E+03  0.32420380442E+03  0.17278076500E+03 0.  0.
        -24    2    5    5    0    0 -0.48090374202E+02 -0.12535729530E+03  0.99061205921E+02  0.19057935881E+03  0.92088185515E+02 0.  0.
          5    1    3    3  501    0 -0.25276228538E+02  0.13135546494E+03 -0.17250438019E+03  0.21834146899E+03  0.47000000000E+01 0. -1.
        -13    1    4    4    0    0  0.46812031344E+02  0.41823720282E+02 -0.12922655226E+03  0.14366659899E+03  0.00000000000E+00 0.  1.
         14    1    4    4    0    0  0.35281754422E+01 -0.23095892741E+02 -0.10418527492E+02  0.25581516736E+02  0.00000000000E+00 0. -1.
         -5    1    5    5    0  502  0.23026395954E+02 -0.24725997184E+02  0.12919679801E+03  0.13362444561E+03  0.47000000000E+01 0.  1.
         11    1    6    6    0    0  0.14739716728E+02 -0.78414789143E+02  0.27458742750E+02  0.84380809187E+02  0.00000000000E+00 0. -1.
        -12    1    6    6    0    0 -0.62830090930E+02 -0.46942506155E+02  0.71602463171E+02  0.10619854963E+03  0.00000000000E+00 0.  1.
</event>
<event>
12    1  0.8728348E-002  0.1956705E+03  0.7818608E-02  0.1153629E+00
         21   -1    0    0  503  502  0.00000000000E+00  0.00000000000E+00  0.71772149161E+02  0.71772149161E+02  0.00000000000E+00 0. -1.
         21   -1    0    0  501  503 -0.00000000000E+00 -0.00000000000E+00 -0.53371367553E+03  0.53371367553E+03  0.00000000000E+00 0.  1.
          6    2    1    2  501    0 -0.79204705860E+02  0.48458410334E+02 -0.25149546983E+03  0.31812808774E+03  0.17127143925E+03 0.  0.
         24    2    3    3    0    0 -0.22051432287E+02 -0.35116255570E+02 -0.14523139983E+03  0.17127658440E+03  0.80771850262E+02 0.  0.
         -6    2    1    2    0  502  0.79204705860E+02 -0.48458410334E+02 -0.21044605654E+03  0.28735773695E+03  0.17223624273E+03 0.  0.
        -24    2    5    5    0    0  0.51381440959E+02  0.37580096799E+02 -0.10222074625E+03  0.14624938650E+03  0.82990878643E+02 0.  0.
          5    1    3    3  501    0 -0.57153273573E+02  0.83574665905E+02 -0.10626407000E+03  0.14685150334E+03  0.47000000000E+01 0. -1.
        -13    1    4    4    0    0 -0.54792756522E+01 -0.17956067619E+02 -0.14620050252E+03  0.14740091507E+03  0.00000000000E+00 0.  1.
         14    1    4    4    0    0 -0.16572156635E+02 -0.17160187952E+02  0.96910268413E+00  0.23875669333E+02  0.00000000000E+00 0. -1.
         -5    1    5    5    0  502  0.27823264901E+02 -0.86038507133E+02 -0.10822531028E+03  0.14110835044E+03  0.47000000000E+01 0.  1.
         11    1    6    6    0    0  0.43340937910E+02 -0.72548788504E+01 -0.88281779684E+02  0.98614110503E+02  0.00000000000E+00 0. -1.
        -12    1    6    6    0    0  0.80405030482E+01  0.44834975649E+02 -0.13938966570E+02  0.47635276002E+02  0.00000000000E+00 0.  1.
</event>
<event>
12    1  0.8728348E-002  0.1914953E+03  0.7818608E-02  0.1157209E+00
         21   -1    0    0  503  502  0.00000000000E+00  0.00000000000E+00  0.83876315807E+02  0.83876315807E+02  0.00000000000E+00 0. -1.
         21   -1    0    0  501  503 -0.00000000000E+00 -0.00000000000E+00 -0.56153188215E+03  0.56153188215E+03  0.00000000000E+00 0. -1.
          6    2    1    2  501    0  0.83519153247E+02 -0.97041840021E+01 -0.39142935008E+03  0.43576071583E+03  0.17204896167E+03 0.  0.
         24    2    3    3    0    0  0.31854674164E+02 -0.41783938635E+02 -0.10230900229E+03  0.14027637689E+03  0.80310100044E+02 0.  0.
         -6    2    1    2    0  502 -0.83519153247E+02  0.97041840021E+01 -0.86226216268E+02  0.20964748213E+03  0.17160269883E+03 0.  0.
        -24    2    5    5    0    0 -0.69424937654E+02 -0.13177822454E+02  0.15155984213E+02  0.10465856030E+03  0.75698305223E+02 0.  0.
          5    1    3    3  501    0  0.51664479082E+02  0.32079754633E+02 -0.28912034779E+03  0.29548433894E+03  0.47000000000E+01 0. -1.
        -11    1    4    4    0    0 -0.63861300056E+01 -0.48919632840E+02 -0.83690693258E+02  0.97149602530E+02  0.00000000000E+00 0.  1.
         12    1    4    4    0    0  0.38240804170E+02  0.71356942053E+01 -0.18618309035E+02  0.43126774360E+02  0.00000000000E+00 0. -1.
         -5    1    5    5    0  502 -0.14094215592E+02  0.22882006456E+02 -0.10138220048E+03  0.10498892183E+03  0.47000000000E+01 0.  1.
         13    1    6    6    0    0 -0.49531523770E+02 -0.36009295465E+02 -0.13785661891E+02  0.62770101805E+02  0.00000000000E+00 0. -1.
        -14    1    6    6    0    0 -0.19893413885E+02  0.22831473011E+02  0.28941646104E+02  0.41888458495E+02  0.00000000000E+00 0.  1.
</event>
<event>
12    1  0.8728348E-002  0.4909452E+03  0.7818608E-02  0.1016211E+00
         21   -1    0    0  501  502  0.00000000000E+00  0.00000000000E+00  0.98583745315E+03  0.98583745315E+03  0.00000000000E+00 0.  1.
         21   -1    0    0  502  503 -0.00000000000E+00 -0.00000000000E+00 -0.26163694497E+03  0.26163694497E+03  0.00000000000E+00 0. -1.
         -6    2    1    2    0  503 -0.31028438338E+03  0.33916872241E+03  0.20079159093E+03  0.52985048982E+03  0.17062373147E+03 0.  0.
        -24    2    3    3    0    0 -0.28009400575E+03  0.23459338778E+03  0.11455624014E+03  0.39090415039E+03  0.78716027539E+02 0.  0.
          6    2    1    2  501    0  0.31028438338E+03 -0.33916872241E+03  0.52340891725E+03  0.71762390831E+03  0.17238143255E+03 0.  0.
         24    2    5    5    0    0  0.20229784182E+03 -0.24697507969E+03  0.44993365720E+03  0.55768184143E+03  0.81533021476E+02 0.  0.
          5    1    5    5  501    0  0.10798654156E+03 -0.92193642724E+02  0.73475260050E+02  0.15994206688E+03  0.47000000000E+01 0. -1.
        -11    1    6    6    0    0  0.58895959885E+02 -0.48471531734E+02  0.16631374722E+03  0.18297127096E+03  0.00000000000E+00 0.  1.
         12    1    6    6    0    0  0.14340188193E+03 -0.19850354795E+03  0.28361990998E+03  0.37471057048E+03  0.00000000000E+00 0. -1.
         -5    1    3    3    0  503 -0.30190377634E+02  0.10457533463E+03  0.86235350789E+02  0.13894633943E+03  0.47000000000E+01 0.  1.
         11    1    4    4    0    0 -0.14372247436E+03  0.89725657294E+02  0.19956559895E+02  0.17060219077E+03  0.00000000000E+00 0. -1.
        -12    1    4    4    0    0 -0.13637153138E+03  0.14486773049E+03  0.94599680247E+02  0.22030195962E+03  0.00000000000E+00 0.  1.
</event>
<event>
12    1  0.8728348E-002  0.2463993E+03  0.7818608E-02  0.1115770E+00
         21   -1    0    0  503  502  0.00000000000E+00  0.00000000000E+00  0.50120504242E+03  0.50120504242E+03  0.00000000000E+00 0. -1.
         21   -1    0    0  501  503 -0.00000000000E+00 -0.00000000000E+00 -0.15604835466E+03  0.15604835466E+03  0.00000000000E+00 0.  1.
          6    2    1    2  501    0 -0.68231551759E+02  0.16115330847E+03  0.15713747449E+02  0.24585907624E+03  0.17197043357E+03 0.  0.
         24    2    3    3    0    0  0.30855923458E+01  0.16740396327E+02  0.74595967565E+01  0.84516443182E+02  0.82447691508E+02 0.  0.
         -6    2    1    2    0  502  0.68231551759E+02 -0.16115330847E+03  0.32944294031E+03  0.41139432084E+03  0.17345518963E+03 0.  0.
        -24    2    5    5    0    0  0.74013259694E+02 -0.16295680147E+03  0.34289866908E+03  0.39590796005E+03  0.84443672453E+02 0.  0.
          5    1    3    3  501    0 -0.71317144105E+02  0.14441291215E+03  0.82541506929E+01  0.16134263306E+03  0.47000000000E+01 0. -1.
        -11    1    4    4    0    0  0.11860062495E+01 -0.10951014703E+02 -0.33372611011E+02  0.35143455999E+02  0.00000000000E+00 0.  1.
         12    1    4    4    0    0  0.18995860963E+01  0.27691411030E+02  0.40832207767E+02  0.49372987183E+02  0.00000000000E+00 0. -1.
         -5    1    5    5    0  502 -0.57817079350E+01  0.18034929960E+01 -0.13455728771E+02  0.15486360786E+02  0.47000000000E+01 0.  1.
         11    1    6    6    0    0  0.47040817307E+02 -0.14784636473E+03  0.32512456607E+03  0.36024626233E+03  0.00000000000E+00 0. -1.
        -12    1    6    6    0    0  0.26972442388E+02 -0.15110436737E+02  0.17774103012E+02  0.35661697725E+02  0.00000000000E+00 0.  1.
</event>
<event>
12    1  0.8728348E-002  0.2498608E+03  0.7818608E-02  0.1113486E+00
         21   -1    0    0  503  502  0.00000000000E+00  0.00000000000E+00  0.49181241055E+03  0.49181241055E+03  0.00000000000E+00 0. -1.
         21   -1    0    0  501  503 -0.00000000000E+00 -0.00000000000E+00 -0.12915805807E+03  0.12915805807E+03  0.00000000000E+00 0.  1.
          6    2    1    2  501    0  0.14810847404E+03  0.10476107979E+03  0.22489448494E+03  0.33616657661E+03  0.17181220547E+03 0.  0.
         24    2    3    3    0    0  0.10866599908E+03  0.26157744262E+02  0.20460379193E+03  0.24578961378E+03  0.77828629893E+02 0.  0.
         -6    2    1    2    0  502 -0.14810847404E+03 -0.10476107979E+03  0.13775986754E+03  0.28480389201E+03  0.17095166532E+03 0.  0.
        -24    2    5    5    0    0 -0.71071718512E+01 -0.63335257260E+02  0.61953119618E+02  0.11937650908E+03  0.79691249114E+02 0.  0.
          5    1    3    3  501    0  0.39442474961E+02  0.78603335526E+02  0.20290693017E+02  0.90376962827E+02  0.47000000000E+01 0. -1.
        -11    1    4    4    0    0  0.10655775914E+03  0.18088953568E+02  0.12291446392E+03  0.16367569066E+03  0.00000000000E+00 0.  1.
         12    1    4    4    0    0  0.21082399393E+01  0.80687906939E+01  0.81689328012E+02  0.82113923118E+02  0.00000000000E+00 0. -1.
         -5    1    5    5    0  502 -0.14100130219E+03 -0.41425822528E+02  0.75806747921E+02  0.16542738293E+03  0.47000000000E+01 0.  1.
         11    1    6    6    0    0 -0.22496885280E+02 -0.69674414913E+02  0.22562767484E+02  0.76614048433E+02  0.00000000000E+00 0. -1.
        -12    1    6    6    0    0  0.15389713429E+02  0.63391576533E+01  0.39390352134E+02  0.42762460645E+02  0.00000000000E+00 0.  1.
</event>
<event>
12    1  0.8728348E-002  0.1958202E+03  0.7818608E-02  0.1154558E+00
         21   -1    0    0  503  502  0.00000000000E+00  0.00000000000E+00  0.20145709833E+03  0.20145709833E+03  0.00000000000E+00 0.  1.
         21   -1    0    0  501  503 -0.00000000000E+00 -0.00000000000E+00 -0.26697559470E+03  0.26697559470E+03  0.00000000000E+00 0.  1.
          6    2    1    2  501    0  0.79281924270E+02 -0.46169422585E+02 -0.16228948502E+03  0.25000607860E+03  0.16657707914E+03 0.  0.
         24    2    3    3    0    0  0.10891178651E+03 -0.82344888135E+01 -0.14139117140E+03  0.19732005153E+03  0.83750554268E+02 0.  0.
         -6    2    1    2    0  502 -0.79281924270E+02  0.46169422585E+02  0.96770988655E+02  0.21842661443E+03  0.17299804203E+03 0.  0.
        -24    2    5    5    0    0 -0.10049709272E+03 -0.61912136699E+01  0.30496501226E+02  0.13121355758E+03  0.78415332257E+02 0.  0.
          5    1    3    3  501    0 -0.29629862237E+02 -0.37934933771E+02 -0.20898313614E+02  0.52686027069E+02  0.47000000000E+01 0. -1.
        -11    1    4    4    0    0  0.73132003501E+02 -0.24534763714E+02 -0.13769416297E+03  0.15782879041E+03  0.00000000000E+00 0.  1.
         12    1    4    4    0    0  0.35779783007E+02  0.16300274900E+02 -0.36970084350E+01  0.39491261124E+02  0.00000000000E+00 0. -1.
         -5    1    5    5    0  502  0.21215168450E+02  0.52360636255E+02  0.66274487428E+02  0.87213056851E+02  0.47000000000E+01 0.  1.
         11    1    6    6    0    0 -0.46704042820E+01  0.25269471483E+02 -0.48956516838E+00  0.25702111572E+02  0.00000000000E+00 0. -1.
        -12    1    6    6    0    0 -0.95826688439E+02 -0.31460685153E+02  0.30986066395E+02  0.10551144600E+03  0.00000000000E+00 0.  1.
</event>
<event>
12    1  0.8728348E-002  0.1739233E+03  0.7818608E-02  0.1174216E+00
         21   -1    0    0  501  502  0.00000000000E+00  0.00000000000E+00  0.29486732404E+03  0.29486732404E+03  0.00000000000E+00 0.  1.
         21   -1    0    0  502  503 -0.00000000000E+00 -0.00000000000E+00 -0.13884710096E+03  0.13884710096E+03  0.00000000000E+00 0.  1.
         -6    2    1    2    0  503 -0.31779456062E+02 -0.31996550731E+02 -0.33953981682E+02  0.17720662522E+03  0.16797500429E+03 0.  0.
        -24    2    3    3    0    0 -0.80731696916E+02 -0.32209568315E+02 -0.46262578503E+02  0.12651186399E+03  0.79435271649E+02 0.  0.
          6    2    1    2  501    0  0.31779456062E+02  0.31996550731E+02  0.18997420476E+03  0.25650779977E+03  0.16635005195E+03 0.  0.
         24    2    5    5    0    0  0.51016951287E+02  0.74485743397E+02  0.96458246160E+02  0.15190026071E+03  0.74957592429E+02 0.  0.
          5    1    5    5  501    0 -0.19237495225E+02 -0.42489192666E+02  0.93515958601E+02  0.10460753906E+03  0.47000000000E+01 0. -1.
        -13    1    6    6    0    0  0.46698439768E+02  0.27238885595E+02  0.12537268932E+02  0.55496705105E+02  0.00000000000E+00 0.  1.
         14    1    6    6    0    0  0.43185115187E+01  0.47246857802E+02  0.83920977228E+02  0.96403555602E+02  0.00000000000E+00 0. -1.
         -5    1    3    3    0  503  0.48952240854E+02  0.21301758406E+00  0.12308596821E+02  0.50694761237E+02  0.47000000000E+01 0.  1.
         13    1    4    4    0    0  0.16215664195E+02 -0.37239079609E+01 -0.80404260291E+01  0.18478736605E+02  0.00000000000E+00 0. -1.
        -14    1    4    4    0    0 -0.96947361111E+02 -0.28485660354E+02 -0.38222152474E+02  0.10803312738E+03  0.00000000000E+00 0.  1.
</event>
<event>
12    1  0.8728348E-002  0.1922474E+03  0.7818608E-02  0.1157042E+00
         21   -1    0    0  501  502  0.00000000000E+00  0.00000000000E+00  0.34211796255E+03  0.34211796255E+03  0.00000000000E+00 0. -1.
         21   -1    0    0  502  503 -0.00000000000E+00 -0.00000000000E+00 -0.11595975531E+03  0.11595975531E+03  0.00000000000E+00 0.  1.
         -6    2    1    2    0  503 -0.69079847083E+02 -0.51774721841E+02  0.48547397709E+02  0.19828243237E+03  0.17177434636E+03 0.  0.
        -24    2    3    3    0    0  0.87883452179E+01  0.24289660666E+02  0.24524431526E+02  0.86709861539E+02  0.79056497010E+02 0.  0.
          6    2    1    2  501    0  0.69079847083E+02  0.51774721841E+02  0.17761080953E+03  0.25979528548E+03  0.16880563854E+03 0.  0.
         24    2    5    5    0    0  0.10957746069E+03  0.42962696576E+02  0.15652912623E+03  0.21305947621E+03  0.83904468650E+02 0.  0.
          5    1    5    5  501    0 -0.40497613605E+02  0.88120252651E+01  0.21081683304E+02  0.46735809268E+02  0.47000000000E+01 0. -1.
        -11    1    6    6    0    0  0.69671985262E+02 -0.11910376001E+02  0.49336230974E+02  0.86198064210E+02  0.00000000000E+00 0.  1.
         12    1    6    6    0    0  0.39905475425E+02  0.54873072576E+02  0.10719289525E+03  0.12686141200E+03  0.00000000000E+00 0. -1.
         -5    1    3    3    0  503 -0.77868192301E+02 -0.76064382507E+02  0.24022966183E+02  0.11157257083E+03  0.47000000000E+01 0.  1.
         13    1    4    4    0    0  0.21543834453E+02 -0.18946809243E+02  0.29748908338E+02  0.41329359186E+02  0.00000000000E+00 0. -1.
        -14    1    4    4    0    0 -0.12755489235E+02  0.43236469909E+02 -0.52244768121E+01  0.45380502353E+02  0.00000000000E+00 0.  1.
</event>
<event>
12    1  0.8728348E-002  0.2463650E+03  0.7818608E-02  0.1115760E+00
         21   -1    0    0  503  502  0.00000000000E+00  0.00000000000E+00  0.23800979430E+03  0.23800979430E+03  0.00000000000E+00 0.  1.
         21   -1    0    0  501  503 -0.00000000000E+00 -0.00000000000E+00 -0.48958497903E+03  0.48958497903E+03  0.00000000000E+00 0. -1.
          6    2    1    2  501    0 -0.16976597398E+03  0.47626117596E+02 -0.37818301736E+03  0.45135140517E+03  0.17206674092E+03 0.  0.
         24    2    3    3    0    0 -0.12608801710E+03  0.84308622393E+02 -0.19798472790E+03  0.26228294244E+03  0.81168082061E+02 0.  0.
         -6    2    1    2    0  502  0.16976597398E+03 -0.47626117596E+02  0.12660783264E+03  0.27624336816E+03  0.17085702258E+03 0.  0.
        -24    2    5    5    0    0  0.14024722792E+03  0.76665294366E+01  0.34217790437E+02  0.16449971920E+03  0.78493565475E+02 0.  0.
          5    1    3    3  501    0 -0.43677956879E+02 -0.36682504797E+02 -0.18019828947E+03  0.18906846274E+03  0.47000000000E+01 0. -1.
        -11    1    4    4    0    0 -0.69306410894E+02 -0.12159968400E+01 -0.83077442571E+02  0.10819759102E+03  0.00000000000E+00 0.  1.
         12    1    4    4    0    0 -0.56781606210E+02  0.85524619233E+02 -0.11490728533E+03  0.15408535141E+03  0.00000000000E+00 0. -1.
         -5    1    5    5    0  502  0.29518746061E+02 -0.55292647033E+02  0.92390042199E+02  0.11174364896E+03  0.47000000000E+01 0.  1.
         11    1    6    6    0    0  0.34977052217E+02 -0.31287083378E+02  0.21221651194E+02  0.51503730423E+02  0.00000000000E+00 0. -1.
        -12    1    6    6    0    0  0.10527017570E+03  0.38953612815E+02  0.12996139243E+02  0.11299598878E+03  0.00000000000E+00 0.  1.
</event>
<event>
12    1  0.8728348E-002  0.1959189E+03  0.7818608E-02  0.1153376E+00
         21   -1    0    0  501  502  0.00000000000E+00  0.00000000000E+00  0.13440071042E+03  0.13440071042E+03  0.00000000000E+00 0. -1.
         21   -1    0    0  502  503 -0.00000000000E+00 -0.00000000000E+00 -0.32554201130E+03  0.32554201130E+03  0.00000000000E+00 0. -1.
         -6    2    1    2    0  503  0.47078790065E+02 -0.79104954986E+02 -0.14168181433E+02  0.19643057197E+03  0.17294573097E+03 0.  0.
        -24    2    3    3    0    0 -0.23386731383E+02 -0.65782668549E+02  0.29736740678E+02  0.11221296565E+03  0.82663034222E+02 0.  0.
          6    2    1    2  501    0 -0.47078790065E+02  0.79104954986E+02 -0.17697311945E+03  0.26351214975E+03  0.17217770378E+03 0.  0.
         24    2    5    5    0    0 -0.12161211704E+02 -0.28404092273E+01 -0.14930218449E+03  0.17012023020E+03  0.80584039586E+02 0.  0.
          5    1    5    5  501    0 -0.34917578361E+02  0.81945364213E+02 -0.27670934954E+02  0.93391919543E+02  0.47000000000E+01 0. -1.
        -11    1    6    6    0    0 -0.78332200096E+01  0.10897842891E+02  0.56053379361E+01  0.14544487917E+02  0.00000000000E+00 0.  1.
         12    1    6    6    0    0 -0.43279916942E+01 -0.13738252119E+02 -0.15490752243E+03  0.15557574229E+03  0.00000000000E+00 0. -1.
         -5    1    3    3    0  503  0.70465521448E+02 -0.13322286437E+02 -0.43904922111E+02  0.84217606321E+02  0.47000000000E+01 0.  1.
         13    1    4    4    0    0 -0.56766172523E+00  0.19411817392E+02  0.97653293746E+00  0.19444652500E+02  0.00000000000E+00 0. -1.
        -14    1    4    4    0    0 -0.22819069658E+02 -0.85194485941E+02  0.28760207740E+02  0.92768313146E+02  0.00000000000E+00 0.  1.
</event>
<event>
12    1  0.8728348E-002  0.2180038E+03  0.7818608E-02  0.1135495E+00
         21   -1    0    0  501  502  0.00000000000E+00  0.00000000000E+00  0.47385150571E+02  0.47385150571E+02  0.00000000000E+00 0.  1.
         21   -1    0    0  502  503 -0.00000000000E+00 -0.00000000000E+00 -0.10234531388E+04  0.10234531388E+04  0.00000000000E+00 0. -1.
         -6    2    1    2    0  503 -0.12443428683E+03  0.47732906850E+02 -0.40793507617E+03  0.46253289507E+03  0.17252052201E+03 0.  0.
        -24    2    3    3    0    0 -0.88899807570E+02  0.48499093282E+02 -0.40650077978E+03  0.42665207200E+03  0.80831731061E+02 0.  0.
          6    2    1    2  501    0  0.12443428683E+03 -0.47732906850E+02 -0.56813291210E+03  0.60830539434E+03  0.17175018150E+03 0.  0.
         24    2    5    5    0    0  0.10813460605E+03  0.76898100020E+00 -0.23037191294E+03  0.26665836117E+03  0.79635287133E+02 0.  0.
          5    1    5    5  501    0  0.16299680774E+02 -0.48501887850E+02 -0.33776099916E+03  0.34164703317E+03  0.47000000000E+01 0. -1.
        -13    1    6    6    0    0 -0.12973628121E+02 -0.83849187429E+00 -0.26629137577E+02  0.29633242538E+02  0.00000000000E+00 0.  1.
         14    1    6    6    0    0  0.12110823417E+03  0.16074728745E+01 -0.20374277536E+03  0.23702511864E+03  0.00000000000E+00 0. -1.
         -5    1    3    3    0  503 -0.35534479256E+02 -0.76618643218E+00 -0.14342963900E+01  0.35880823064E+02  0.47000000000E+01 0.  1.
         11    1    4    4    0    0 -0.57199337889E+02 -0.14004483309E+02 -0.20621959268E+03  0.21446307424E+03  0.00000000000E+00 0. -1.
        -12    1    4    4    0    0 -0.31700469681E+02  0.62503576590E+02 -0.20028118711E+03  0.21218899777E+03  0.00000000000E+00 0.  1.
</event>
<event>
12    1  0.8728348E-002  0.1750469E+03  0.7818608E-02  0.1172895E+00
         21   -1    0    0  501  502  0.00000000000E+00  0.00000000000E+00  0.48894289124E+02  0.48894289124E+02  0.00000000000E+00 0. -1.
         21   -1    0    0  502  503 -0.00000000000E+00 -0.00000000000E+00 -0.22367726474E+04  0.22367726474E+04  0.00000000000E+00 0. -1.
         -6    2    1    2    0  503 -0.20064472594E+02  0.20108832723E+02 -0.20637168426E+04  0.20710567971E+04  0.17187816094E+03 0.  0.
        -24    2    3    3    0    0 -0.72392002968E+02 -0.18634849659E+01 -0.16139752965E+04  0.16177241361E+04  0.82891787214E+02 0.  0.
          6    2    1    2  501    0  0.20064472594E+02 -0.20108832723E+02 -0.12416151569E+03  0.21461013943E+03  0.17272660986E+03 0.  0.
         24    2    5    5    0    0  0.29107393634E+02  0.40798438388E+01 -0.15088091414E+03  0.17715506303E+03  0.88062367761E+02 0.  0.
          5    1    5    5  501    0 -0.90429210400E+01 -0.24188676562E+02  0.26719398447E+02  0.37455076400E+02  0.47000000000E+01 0. -1.
        -13    1    6    6    0    0  0.55913105413E+02 -0.16997821106E+02 -0.88311339604E+02  0.10589661931E+03  0.00000000000E+00 0.  1.
         14    1    6    6    0    0 -0.26805711779E+02  0.21077664945E+02 -0.62569574532E+02  0.71258443714E+02  0.00000000000E+00 0. -1.
         -5    1    3    3    0  503  0.52327530374E+02  0.21972317689E+02 -0.44974154615E+03  0.45333266098E+03  0.47000000000E+01 0.  1.
         11    1    4    4    0    0 -0.45095800517E+02  0.39185452073E+02 -0.77293358274E+03  0.77523896587E+03  0.00000000000E+00 0. -1.
        -12    1    4    4    0    0 -0.27296202451E+02 -0.41048937039E+02 -0.84104171373E+03  0.84248517027E+03  0.00000000000E+00 0.  1.
</event>
<event>
12    1  0.8728348E-002  0.3045055E+03  0.7818608E-02  0.1083211E+00
         21   -1    0    0  503  502  0.00000000000E+00  0.00000000000E+00  0.99948168691E+02  0.99948168691E+02  0.00000000000E+00 0.  1.
         21   -1    0    0  501  503 -0.00000000000E+00 -0.00000000000E+00 -0.10840533601E+04  0.10840533601E+04  0.00000000000E+00 0. -1.
          6    2    1    2  501    0 -0.12137392091E+03 -0.21885453542E+03 -0.71928936298E+03  0.78045345007E+03  0.17059151117E+03 0.  0.
         24    2    3    3    0    0 -0.12222827616E+03 -0.14641683267E+03 -0.64250545121E+03  0.67478505456E+03  0.78383510040E+02 0.  0.
         -6    2    1    2    0  502  0.12137392091E+03  0.21885453542E+03 -0.26481582839E+03  0.40354807868E+03  0.17347821906E+03 0.  0.
        -24    2    5    5    0    0  0.56487261381E+02  0.17794376017E+03 -0.25324148979E+03  0.32583047816E+03  0.84731669778E+02 0.  0.
          5    1    3    3  501    0  0.85435525106E+00 -0.72437702752E+02 -0.76783911773E+02  0.10566839551E+03  0.47000000000E+01 0. -1.
        -13    1    4    4    0    0 -0.84245179070E+02 -0.47460593914E+02 -0.24501596521E+03  0.26340573528E+03  0.00000000000E+00 0.  1.
         14    1    4    4    0    0 -0.37983097094E+02 -0.98956238753E+02 -0.39748948600E+03  0.41137931928E+03  0.00000000000E+00 0. -1.
         -5    1    5    5    0  502  0.64886659532E+02  0.40910775249E+02 -0.11574338600E+02  0.77717600521E+02  0.47000000000E+01 0.  1.
         11    1    6    6    0    0  0.17342107839E+02  0.19202810561E+02 -0.94391195455E+02  0.97873359078E+02  0.00000000000E+00 0. -1.
        -12    1    6    6    0    0  0.39145153542E+02  0.15874094961E+03 -0.15885029434E+03  0.22795711908E+03  0.00000000000E+00 0.  1.
</event>
<event>
12    1  0.8728348E-002  0.2606668E+03  0.7818608E-02  0.1106955E+00
         21   -1    0    0  503  502  0.00000000000E+00  0.00000000000E+00  0.20787464713E+03  0.20787464713E+03  0.00000000000E+00 0. -1.
         21   -1    0    0  501  503 -0.00000000000E+00 -0.00000000000E+00 -0.38552672147E+03  0.38552672147E+03  0.00000000000E+00 0. -1.
          6    2    1    2  501    0  0.11051111147E+03 -0.15982980156E+03 -0.20649147593E+03  0.33254456312E+03  0.17374949094E+03 0.  0.
         24    2    3    3    0    0  0.14614368853E+03 -0.12614649519E+03 -0.15379575735E+03  0.26041153024E+03  0.83006711514E+02 0.  0.
         -6    2    1    2    0  502 -0.11051111147E+03  0.15982980156E+03  0.28839401589E+02  0.26085680547E+03  0.17162835037E+03 0.  0.
        -24    2    5    5    0    0 -0.46982674121E+02  0.43804968102E+02  0.68712321433E+02  0.12261945861E+03  0.78663216402E+02 0.  0.
          5    1    3    3  501    0 -0.35632577058E+02 -0.33683306369E+02 -0.52695718586E+02  0.72133032884E+02  0.47000000000E+01 0. -1.
        -11    1    4    4    0    0  0.69636188186E+02 -0.29654530427E+02 -0.19407200870E+02  0.78135966914E+02  0.00000000000E+00 0.  1.
         12    1    4    4    0    0  0.76507500344E+02 -0.96491964767E+02 -0.13438855648E+03  0.18227556332E+03  0.00000000000E+00 0. -1.
         -5    1    5    5    0  502 -0.63528437351E+02  0.11602483346E+03 -0.39872919844E+02  0.13823734687E+03  0.47000000000E+01 0.  1.
         11    1    6    6    0    0 -0.66906408435E+02  0.32590289335E+02  0.66225694870E+02  0.99621469120E+02  0.00000000000E+00 0. -1.
        -12    1    6    6    0    0  0.19923734314E+02  0.11214678766E+02  0.24866265635E+01  0.22997989489E+02  0.00000000000E+00 0.  1.
</event>
<event>
12    1  0.8728348E-002  0.1912331E+03  0.7818608E-02  0.1157397E+00
         21   -1    0    0  503  502  0.00000000000E+00  0.00000000000E+00  0.51039075462E+03  0.51039075462E+03  0.00000000000E+00 0. -1.
         21   -1    0    0  501  503 -0.00000000000E+00 -0.00000000000E+00 -0.18564472360E+03  0.18564472360E+03  0.00000000000E+00 0. -1.
          6    2    1    2  501    0 -0.27667643364E+02  0.77873641873E+02 -0.11045320884E+03  0.22067406574E+03  0.17224206618E+03 0.  0.
         24    2    3    3    0    0 -0.16924617978E+02  0.98167942787E+02 -0.22441827757E+02  0.12959517442E+03  0.79799034555E+02 0.  0.
         -6    2    1    2    0  502  0.27667643364E+02 -0.77873641873E+02  0.43519923986E+03  0.47536141248E+03  0.17245373732E+03 0.  0.
        -24    2    5    5    0    0 -0.35547143901E+02 -0.53123181513E+02  0.12880303327E+03  0.16149930896E+03  0.73526414037E+02 0.  0.
          5    1    3    3  501    0 -0.10743025386E+02 -0.20294300915E+02 -0.88011381082E+02  0.91078891320E+02  0.47000000000E+01 0. -1.
        -13    1    4    4    0    0  0.16003183102E+02  0.17840824070E+02  0.21586332995E+02  0.32254715083E+02  0.00000000000E+00 0.  1.
         14    1    4    4    0    0 -0.32927801080E+02  0.80327118718E+02 -0.44028160752E+02  0.97340459341E+02  0.00000000000E+00 0. -1.
         -5    1    5    5    0  502  0.63214787266E+02 -0.24750460360E+02  0.30639620659E+03  0.31386210352E+03  0.47000000000E+01 0.  1.
         11    1    6    6    0    0 -0.39159840045E+02 -0.34457567080E+02  0.13226115621E+03  0.14217535104E+03  0.00000000000E+00 0. -1.
        -12    1    6    6    0    0  0.36126961437E+01 -0.18665614432E+02 -0.34581229352E+01  0.19323957923E+02  0.00000000000E+00 0.  1.
</event>
<event>
12    1  0.8728348E-002  0.1798879E+03  0.7818608E-02  0.1169326E+00
         21   -1    0    0  501  502  0.00000000000E+00  0.00000000000E+00  0.41585441338E+03  0.41585441338E+03  0.00000000000E+00 0.  1.
         21   -1    0    0  502  503 -0.00000000000E+00 -0.00000000000E+00 -0.84699512921E+02  0.84699512921E+02  0.00000000000E+00 0.  1.
         -6    2    1    2    0  503  0.30254731015E+02 -0.13664142887E+02  0.84829137977E+02  0.19888595539E+03  0.17679814210E+03 0.  0.
        -24    2    3    3    0    0  0.61657944181E+02  0.28942291407E+02  0.98530180125E+02  0.14401083720E+03  0.79947273390E+02 0.  0.
          6    2    1    2  501    0 -0.30254731015E+02  0.13664142887E+02  0.24632576248E+03  0.30166797091E+03  0.17095357809E+03 0.  0.
         24    2    5    5    0    0  0.47914063801E+02 -0.64999259298E+01  0.14854285303E+03  0.17478007734E+03  0.78390622535E+02 0.  0.
          5    1    5    5  501    0 -0.78168794817E+02  0.20164068816E+02  0.97782909447E+02  0.12688789357E+03  0.47000000000E+01 0. -1.
        -11    1    6    6    0    0  0.34946032877E+02 -0.41486052507E+02  0.78483013663E+02  0.95403884618E+02  0.00000000000E+00 0.  1.
         12    1    6    6    0    0  0.12968030924E+02  0.34986126577E+02  0.70059839368E+02  0.79376192723E+02  0.00000000000E+00 0. -1.
         -5    1    3    3    0  503 -0.31403213166E+02 -0.42606434293E+02 -0.13701042148E+02  0.54875118189E+02  0.47000000000E+01 0.  1.
         11    1    4    4    0    0  0.70302204589E+02 -0.37456928390E+01  0.74685336361E+02  0.10263688251E+03  0.00000000000E+00 0. -1.
        -12    1    4    4    0    0 -0.86442604078E+01  0.32687984246E+02  0.23844843764E+02  0.41373954683E+02  0.00000000000E+00 0.  1.
</event>
<event>
12    1  0.8728348E-002  0.2271324E+03  0.7818608E-02  0.1128732E+00
         21   -1    0    0  503  502  0.00000000000E+00  0.00000000000E+00  0.73697895751E+03  0.73697895751E+03  0.00000000000E+00 0. -1.
         21   -1    0    0  501  503 -0.00000000000E+00 -0.00000000000E+00 -0.72053722885E+02  0.72053722885E+02  0.00000000000E+00 0.  1.
          6    2    1    2  501    0 -0.68149770366E+02  0.13184312975E+03  0.26279186524E+03  0.34734523217E+03  0.17193645284E+03 0.  0.
         24    2    3    3    0    0 -0.43953226713E+02  0.13131085007E+03  0.11654397117E+03  0.19903376072E+03  0.82810115341E+02 0.  0.
         -6    2    1    2    0  502  0.68149770366E+02 -0.13184312975E+03  0.40213336939E+03  0.46168744822E+03  0.17151399655E+03 0.  0.
        -24    2    5    5    0    0  0.11928028019E+01  0.10679984888E+01  0.10398389373E+03  0.12842508409E+03  0.75351102639E+02 0.  0.
          5    1    3    3  501    0 -0.24196543654E+02  0.53227967371E+00  0.14624789407E+03  0.14831147146E+03  0.47000000000E+01 0. -1.
        -13    1    4    4    0    0 -0.52091427400E+02  0.45387173803E+02  0.25669439201E+02  0.73705036893E+02  0.00000000000E+00 0.  1.
         14    1    4    4    0    0  0.81382006879E+01  0.85923676270E+02  0.90874531971E+02  0.12532872382E+03  0.00000000000E+00 0. -1.
         -5    1    5    5    0  502  0.66956967564E+02 -0.13291112824E+03  0.29814947566E+03  0.33326236413E+03  0.47000000000E+01 0.  1.
         13    1    6    6    0    0  0.11995476981E+02 -0.19297215727E+02  0.10286541216E+03  0.10534499049E+03  0.00000000000E+00 0. -1.
        -14    1    6    6    0    0 -0.10802674179E+02  0.20365214216E+02  0.11184815706E+01  0.23080093598E+02  0.00000000000E+00 0.  1.
</event>
<event>
12    1  0.8728348E-002  0.3515436E+03  0.7818608E-02  0.1062021E+00
         21   -1    0    0  503  502  0.00000000000E+00  0.00000000000E+00  0.74225334202E+02  0.74225334202E+02  0.00000000000E+00 0. -1.
         21   -1    0    0  501  503 -0.00000000000E+00 -0.00000000000E+00 -0.16640974477E+04  0.16640974477E+04  0.00000000000E+00 0. -1.
          6    2    1    2  501    0  0.25488668645E+03  0.17082929777E+03 -0.77551614721E+03  0.85147411347E+03  0.17156048325E+03 0.  0.
         24    2    3    3    0    0  0.18325796871E+03  0.17042699114E+03 -0.69833475549E+03  0.74607063970E+03  0.79505511014E+02 0.  0.
         -6    2    1    2    0  502 -0.25488668645E+03 -0.17082929777E+03 -0.81435596631E+03  0.88684866846E+03  0.17080705188E+03 0.  0.
        -24    2    5    5    0    0 -0.21120117510E+03 -0.78609328161E+02 -0.46465499315E+03  0.52253313581E+03  0.79694745905E+02 0.  0.
          5    1    3    3  501    0  0.71628717739E+02  0.40230663450E+00 -0.77181391715E+02  0.10540347377E+03  0.47000000000E+01 0. -1.
        -13    1    4    4    0    0  0.38356395111E+02  0.44592440122E+02 -0.27568722419E+03  0.28189207925E+03  0.00000000000E+00 0.  1.
         14    1    4    4    0    0  0.14490157360E+03  0.12583455102E+03 -0.42264753130E+03  0.46417856045E+03  0.00000000000E+00 0. -1.
         -5    1    5    5    0  502 -0.43685511354E+02 -0.92219969613E+02 -0.34970097316E+03  0.36431553265E+03  0.47000000000E+01 0.  1.
         13    1    6    6    0    0 -0.17672236936E+03 -0.93260429126E+02 -0.41213295330E+03  0.45801951341E+03  0.00000000000E+00 0. -1.
        -14    1    6    6    0    0 -0.34478805742E+02  0.14651100966E+02 -0.52522039852E+02  0.64513622399E+02  0.00000000000E+00 0.  1.
</event>
<event>
12    1  0.8728348E-002  0.1745011E+03  0.7818608E-02  0.1173511E+00
         21   -1    0    0  503  502  0.00000000000E+00  0.00000000000E+00  0.15067518038E+03  0.15067518038E+03  0.00000000000E+00 0. -1.
         21   -1    0    0  501  503 -0.00000000000E+00 -0.00000000000E+00 -0.90665141716E+03  0.90665141716E+03  0.00000000000E+00 0. -1.
          6    2    1    2  501    0  0.23097845753E+01  0.20087946190E+02 -0.84417647378E+03  0.86180189643E+03  0.17222000209E+03 0.  0.
         24    2    3    3    0    0 -0.29190415716E+02 -0.39678548447E+02 -0.33397774933E+03  0.34712809204E+03  0.80810318998E+02 0.  0.
         -6    2    1    2    0  502 -0.23097845753E+01 -0.20087946190E+02  0.88200236996E+02  0.19552470111E+03  0.17332560761E+03 0.  0.
        -24    2    5    5    0    0  0.51938320362E+02  0.13392924961E+01  0.97326165272E+02  0.13630176625E+03  0.80040028795E+02 0.  0.
          5    1    3    3  501    0  0.31500200291E+02  0.59766494637E+02 -0.51019872445E+03  0.51467380439E+03  0.47000000000E+01 0. -1.
        -13    1    4    4    0    0 -0.51724200220E+02 -0.71492362181E+01 -0.23053877216E+03  0.23637815029E+03  0.00000000000E+00 0.  1.
         14    1    4    4    0    0  0.22533784504E+02 -0.32529312229E+02 -0.10343897717E+03  0.11074994174E+03  0.00000000000E+00 0. -1.
         -5    1    5    5    0  502 -0.54248104937E+02 -0.21427238686E+02 -0.91259282752E+01  0.59222934864E+02  0.47000000000E+01 0.  1.
         11    1    6    6    0    0 -0.77073544001E+01 -0.20037641664E+02  0.57713653246E+02  0.61577399801E+02  0.00000000000E+00 0. -1.
        -12    1    6    6    0    0  0.59645674762E+02  0.21376934160E+02  0.39612512026E+02  0.74724366447E+02  0.00000000000E+00 0.  1.
</event>
<event>
12    1  0.8728348E-002  0.1849534E+03  0.7818608E-02  0.1163432E+00
         21   -1    0    0  503  502  0.00000000000E+00  0.00000000000E+00  0.71590775779E+02  0.71590775779E+02  0.00000000000E+00 0.  1.
         21   -1    0    0  501  503 -0.00000000000E+00 -0.00000000000E+00 -0.47495928120E+03  0.47495928120E+03  0.00000000000E+00 0. -1.
          6    2    1    2  501    0 -0.13640579346E+02 -0.65006051416E+02 -0.21248584975E+03  0.28076079349E+03  0.17106880104E+03 0.  0.
         24    2    3    3    0    0 -0.31254533151E+02 -0.90426549188E+02 -0.89018101717E+02  0.15339192806E+03  0.80318456908E+02 0.  0.
         -6    2    1    2    0  502  0.13640579346E+02  0.65006051416E+02 -0.19088265567E+03  0.26578926349E+03  0.17261486676E+03 0.  0.
        -24    2    5    5    0    0 -0.61149404042E+02  0.40577584133E+02 -0.90495982095E+02  0.13815750467E+03  0.74244079711E+02 0.  0.
          5    1    3    3  501    0  0.17613953805E+02  0.25420497772E+02 -0.12346774804E+03  0.12736886543E+03  0.47000000000E+01 0. -1.
        -11    1    4    4    0    0  0.24674986499E+02 -0.17599310011E+02 -0.37097294895E+02  0.47904070391E+02  0.00000000000E+00 0.  1.
         12    1    4    4    0    0 -0.55929519649E+02 -0.72827239177E+02 -0.51920806823E+02  0.10548785767E+03  0.00000000000E+00 0. -1.
         -5    1    5    5    0  502  0.74789983387E+02  0.24428467283E+02 -0.10038667357E+03  0.12763175882E+03  0.47000000000E+01 0.  1.
         13    1    6    6    0    0 -0.24191930346E+02 -0.15044160740E+01 -0.76752959787E+02  0.80489313562E+02  0.00000000000E+00 0. -1.
        -14    1    6    6    0    0 -0.36957473695E+02  0.42082000207E+02 -0.13743022308E+02  0.57668191107E+02  0.00000000000E+00 0.  1.
</event>
<event>
12    1  0.8728348E-002  0.1902132E+03  0.7818608E-02  0.1158825E+00
         21   -1    0    0  501  502  0.00000000000E+00  0.00000000000E+00  0.20992547828E+03  0.20992547828E+03  0.00000000000E+00 0.  1.
         21   -1    0    0  502  503 -0.00000000000E+00 -0.00000000000E+00 -0.17423748614E+03  0.17423748614E+03  0.00000000000E+00 0.  1.
         -6    2    1    2    0  503  0.39426841893E+02 -0.69007686990E+02 -0.11729229770E+02  0.18812863514E+03  0.17011252689E+03 0.  0.
        -24    2    3    3    0    0  0.14649434954E+02  0.22487006854E+02  0.23828345498E+02  0.86779584552E+02  0.79010346310E+02 0.  0.
          6    2    1    2  501    0 -0.39426841893E+02  0.69007686990E+02  0.47417221908E+02  0.19603432928E+03  0.17281356601E+03 0.  0.
         24    2    5    5    0    0 -0.38187335950E+02  0.86787337328E+02 -0.20852415548E+02  0.12532021654E+03  0.79246570229E+02 0.  0.
          5    1    5    5  501    0 -0.12395059433E+01 -0.17779650339E+02  0.68269637456E+02  0.70714112732E+02  0.47000000000E+01 0. -1.
        -11    1    6    6    0    0 -0.46447931591E+02  0.33153776415E+02  0.16544435842E+02  0.59416341161E+02  0.00000000000E+00 0.  1.
         12    1    6    6    0    0  0.82605956409E+01  0.53633560914E+02 -0.37396851390E+02  0.65903875383E+02  0.00000000000E+00 0. -1.
         -5    1    3    3    0  503  0.24777406939E+02 -0.91494693844E+02 -0.35557575268E+02  0.10134905059E+03  0.47000000000E+01 0.  1.
         13    1    4    4    0    0 -0.30092629044E+01  0.33758803926E+02 -0.19177777008E+02  0.38942260293E+02  0.00000000000E+00 0. -1.
        -14    1    4    4    0    0  0.17658697859E+02 -0.11271797071E+02  0.43006122506E+02  0.47837324259E+02  0.00000000000E+00 0.  1.
</event>
<event>
12    1  0.8728348E-002  0.2602719E+03  0.7818608E-02  0.1107092E+00
         21   -1    0    0  503  502  0.00000000000E+00  0.00000000000E+00  0.86337923611E+03  0.86337923611E+03  0.00000000000E+00 0.  1.
         21   -1    0    0  501  503 -0.00000000000E+00 -0.00000000000E+00 -0.13912951307E+03  0.13912951307E+03  0.00000000000E+00 0. -1.
          6    2    1    2  501    0 -0.17817497256E+03  0.80660608381E+02  0.30218481372E+02  0.26127948032E+03  0.17059119447E+03 0.  0.
         24    2    3    3    0    0 -0.85733475535E+02  0.56007559506E+02  0.80843032797E+02  0.15293679068E+03  0.79793423563E+02 0.  0.
         -6    2    1    2    0  502  0.17817497256E+03 -0.80660608381E+02  0.69403124167E+03  0.74122926886E+03  0.17172364428E+03 0.  0.
        -24    2    5    5    0    0  0.13125697802E+03 -0.82284128651E+02  0.32254798986E+03  0.36676187321E+03  0.80485984922E+02 0.  0.
          5    1    3    3  501    0 -0.92441497026E+02  0.24653048875E+02 -0.50624551425E+02  0.10834268964E+03  0.47000000000E+01 0. -1.
        -11    1    4    4    0    0 -0.78950436170E+02  0.12284479425E+02  0.29532417209E+02  0.85183586872E+02  0.00000000000E+00 0.  1.
         12    1    4    4    0    0 -0.67830393653E+01  0.43723080081E+02  0.51310615589E+02  0.67753203812E+02  0.00000000000E+00 0. -1.
         -5    1    5    5    0  502  0.46917994541E+02  0.16235202702E+01  0.37148325180E+03  0.37446739565E+03  0.47000000000E+01 0.  1.
         13    1    6    6    0    0  0.11523390129E+03 -0.97067665785E+02  0.29804777952E+03  0.33396625971E+03  0.00000000000E+00 0. -1.
        -14    1    6    6    0    0  0.16023076729E+02  0.14783537134E+02  0.24500210349E+02  0.32795613505E+02  0.00000000000E+00 0.  1.
</event>
<event>
12    1  0.8728348E-002  0.1938618E+03  0.7818608E-02  0.1155720E+00
         21   -1    0    0  501  502  0.00000000000E+00  0.00000000000E+00  0.84000521555E+02  0.84000521555E+02  0.00000000000E+00 0.  1.
         21   -1    0    0  502  503 -0.00000000000E+00 -0.00000000000E+00 -0.46357497280E+03  0.46357497280E+03  0.00000000000E+00 0.  1.
         -6    2    1    2    0  503 -0.63577134809E+02 -0.61713489113E+02 -0.25276156868E+03  0.31854482049E+03  0.17242907311E+03 0.  0.
        -24    2    3    3    0    0  0.18309543218E+02  0.14279243065E+02 -0.10248433945E+03  0.13123315773E+03  0.78612757867E+02 0.  0.
          6    2    1    2  501    0  0.63577134809E+02  0.61713489113E+02 -0.12681288256E+03  0.22903067386E+03  0.16888734582E+03 0.  0.
         24    2    5    5    0    0  0.91085732429E+02 -0.17201890151E+01 -0.79854189485E+02  0.14531828936E+03  0.80256737667E+02 0.  0.
          5    1    5    5  501    0 -0.27508597620E+02  0.63433678128E+02 -0.46958693078E+02  0.83712384505E+02  0.47000000000E+01 0. -1.
        -11    1    6    6    0    0  0.25341259940E+02  0.29779370268E+02 -0.27377060656E+01  0.39198027800E+02  0.00000000000E+00 0.  1.
         12    1    6    6    0    0  0.65744472489E+02 -0.31499559283E+02 -0.77116483419E+02  0.10612026156E+03  0.00000000000E+00 0. -1.
         -5    1    3    3    0  503 -0.81886678028E+02 -0.75992732178E+02 -0.15027722923E+03  0.18731166277E+03  0.47000000000E+01 0.  1.
         11    1    4    4    0    0 -0.10048441869E+02  0.41277979264E+02 -0.59207360461E+02  0.72872177742E+02  0.00000000000E+00 0. -1.
        -12    1    4    4    0    0  0.28357985088E+02 -0.26998736199E+02 -0.43276978990E+02  0.58360979987E+02  0.00000000000E+00 0.  1.
</event>
<event>
12    1  0.8728348E-002  0.1770853E+03  0.7818608E-02  0.1170868E+00
         21   -1    0    0  503  502  0.00000000000E+00  0.00000000000E+00  0.32186887960E+02  0.32186887960E+02  0.00000000000E+00 0.  1.
         21   -1    0    0  501  503 -0.00000000000E+00 -0.00000000000E+00 -0.98732012607E+03  0.98732012607E+03  0.00000000000E+00 0.  1.
          6    2    1    2  501    0  0.23895794766E+02  0.30769612469E+02 -0.54482771150E+03  0.57261796644E+03  0.17186134589E+03 0.  0.
         24    2    3    3    0    0  0.45301222436E+02  0.70806823261E+02 -0.47762955476E+03  0.49138464292E+03  0.79139552279E+02 0.  0.
         -6    2    1    2    0  502 -0.23895794766E+02 -0.30769612469E+02 -0.41030552661E+03  0.44688904759E+03  0.17274668631E+03 0.  0.
        -24    2    5    5    0    0 -0.27110529676E+02  0.33993615168E+02 -0.33652000298E+03  0.34854778631E+03  0.79682496445E+02 0.  0.
          5    1    3    3  501    0 -0.21405427670E+02 -0.40037210792E+02 -0.67198156737E+02  0.81233323523E+02  0.47000000000E+01 0. -1.
        -13    1    4    4    0    0  0.31236093083E+01  0.13951702283E+02 -0.29750464291E+03  0.29784798050E+03  0.00000000000E+00 0.  1.
         14    1    4    4    0    0  0.42177613128E+02  0.56855120978E+02 -0.18012491185E+03  0.19353666242E+03  0.00000000000E+00 0. -1.
         -5    1    5    5    0  502  0.32147349104E+01 -0.64763227637E+02 -0.73785523627E+02  0.98341261286E+02  0.47000000000E+01 0.  1.
         11    1    6    6    0    0 -0.34528232222E+00 -0.22715197373E+02 -0.15140816024E+03  0.15310300584E+03  0.00000000000E+00 0. -1.
        -12    1    6    6    0    0 -0.26765247354E+02  0.56708812541E+02 -0.18511184274E+03  0.19544478046E+03  0.00000000000E+00 0.  1.
</event>
<event>
12    1  0.8728348E-002  0.1796361E+03  0.7818608E-02  0.1168398E+00
         21   -1    0    0  503  502  0.00000000000E+00  0.00000000000E+00  0.45644222661E+03  0.45644222661E+03  0.00000000000E+00 0. -1.
         21   -1    0    0  501  503 -0.00000000000E+00 -0.00000000000E+00 -0.72445488365E+02  0.72445488365E+02  0.00000000000E+00 0. -1.
          6    2    1    2  501    0 -0.54060970563E+01  0.50800074311E+02  0.14602701653E+03  0.23072882545E+03  0.17117835115E+03 0.  0.
         24    2    3    3    0    0  0.31288291191E+02 -0.26223157275E+02  0.97425504581E+02  0.13242697757E+03  0.79865914521E+02 0.  0.
         -6    2    1    2    0  502  0.54060970563E+01 -0.50800074311E+02  0.23796972171E+03  0.29815888952E+03  0.17221864450E+03 0.  0.
        -24    2    5    5    0    0 -0.58029067381E+02 -0.33285841801E+02  0.13446373509E+03  0.17541383791E+03  0.90632215864E+02 0.  0.
          5    1    3    3  501    0 -0.36694388247E+02  0.77023231586E+02  0.48601511950E+02  0.98301847880E+02  0.47000000000E+01 0. -1.
        -11    1    4    4    0    0 -0.22903029352E+01 -0.14630908154E+02  0.95724248891E+02  0.96863000092E+02  0.00000000000E+00 0.  1.
         12    1    4    4    0    0  0.33578594126E+02 -0.11592249120E+02  0.17012556901E+01  0.35563977478E+02  0.00000000000E+00 0. -1.
         -5    1    5    5    0  502  0.63435164437E+02 -0.17514232510E+02  0.10350598662E+03  0.12274505161E+03  0.47000000000E+01 0.  1.
         11    1    6    6    0    0 -0.68989738309E+01 -0.54680136950E+02  0.50159180015E+02  0.74521517407E+02  0.00000000000E+00 0. -1.
        -12    1    6    6    0    0 -0.51130093550E+02  0.21394295149E+02  0.84304555071E+02  0.10089232051E+03  0.00000000000E+00 0.  1.
</event>
<event>
12    1  0.8728348E-002  0.1768289E+03  0.7818608E-02  0.1171322E+00
         21   -1    0    0  501  502  0.00000000000E+00  0.00000000000E+00  0.38267093931E+02  0.38267093931E+02  0.00000000000E+00 0. -1.
         21   -1    0    0  502  503 -0.00000000000E+00 -0.00000000000E+00 -0.83851492906E+03  0.83851492906E+03  0.00000000000E+00 0. -1.
         -6    2    1    2    0  503 -0.15894198277E+02 -0.36750841612E+02 -0.48359036602E+03  0.51490592831E+03  0.17223595156E+03 0.  0.
        -24    2    3    3    0    0 -0.22219061955E+02 -0.77231816632E+02 -0.21081283827E+03  0.23902845029E+03  0.78956361702E+02 0.  0.
          6    2    1    2  501    0  0.15894198277E+02  0.36750841612E+02 -0.31665746911E+03  0.36187609468E+03  0.17052596651E+03 0.  0.
         24    2    5    5    0    0  0.24248688651E+02 -0.38298089194E+02 -0.10666166030E+03  0.13866662076E+03  0.76137897263E+02 0.  0.
          5    1    5    5  501    0 -0.83544903740E+01  0.75048930806E+02 -0.20999580881E+03  0.22320947391E+03  0.47000000000E+01 0. -1.
        -13    1    6    6    0    0  0.10417756091E+02  0.26899838210E+01  0.97234888704E+01  0.14502134007E+02  0.00000000000E+00 0.  1.
         14    1    6    6    0    0  0.13830932560E+02 -0.40988073015E+02 -0.11638514917E+03  0.12416448676E+03  0.00000000000E+00 0. -1.
         -5    1    3    3    0  503  0.63248636773E+01  0.40480975020E+02 -0.27277752774E+03  0.27587747802E+03  0.47000000000E+01 0.  1.
         11    1    4    4    0    0  0.10357904858E+02 -0.40016031132E+02 -0.16985300465E+03  0.17481021746E+03  0.00000000000E+00 0. -1.
        -12    1    4    4    0    0 -0.32576966813E+02 -0.37215785499E+02 -0.40959833622E+02  0.64218232827E+02  0.00000000000E+00 0.  1.
</event>
<event>
12    1  0.8728348E-002  0.1899874E+03  0.7818608E-02  0.1158934E+00
         21   -1    0    0  503  502  0.00000000000E+00  0.00000000000E+00  0.14892008340E+03  0.14892008340E+03  0.00000000000E+00 0.  1.
         21   -1    0    0  501  503 -0.00000000000E+00 -0.00000000000E+00 -0.27525270450E+03  0.27525270450E+03  0.00000000000E+00 0.  1.
          6    2    1    2  501    0  0.78989282171E+02 -0.13713420478E+02  0.13251082677E+02  0.18842116495E+03  0.16999876355E+03 0.  0.
         24    2    3    3    0    0  0.30521427406E+02  0.22755053451E+02 -0.47878567556E+02  0.10217728589E+03  0.81844306662E+02 0.  0.
         -6    2    1    2    0  502 -0.78989282171E+02  0.13713420478E+02 -0.13958370377E+03  0.23575162295E+03  0.17224358556E+03 0.  0.
        -24    2    5    5    0    0 -0.43943564971E+02 -0.17052882411E+02 -0.15960948171E+03  0.18478212747E+03  0.80295767525E+02 0.  0.
          5    1    3    3  501    0  0.48467854765E+02 -0.36468473929E+02  0.61129650233E+02  0.86243879051E+02  0.47000000000E+01 0. -1.
        -13    1    4    4    0    0  0.56515408386E+02  0.28928261172E+02 -0.31990273436E+02  0.71092990329E+02  0.00000000000E+00 0.  1.
         14    1    4    4    0    0 -0.25993980980E+02 -0.61732077212E+01 -0.15888294120E+02  0.31084295565E+02  0.00000000000E+00 0. -1.
         -5    1    5    5    0  502 -0.35045717200E+02  0.30766302890E+02  0.20025777932E+02  0.50969495478E+02  0.47000000000E+01 0.  1.
         11    1    6    6    0    0 -0.10993603465E+02  0.31537468090E+02 -0.45339759251E+02  0.56313097763E+02  0.00000000000E+00 0. -1.
        -12    1    6    6    0    0 -0.32949961505E+02 -0.48590350501E+02 -0.11426972245E+03  0.12846902971E+03  0.00000000000E+00 0.  1.
</event>
<event>
12    1  0.8728348E-002  0.2014321E+03  0.7818608E-02  0.1148653E+00
         21   -1    0    0  503  502  0.00000000000E+00  0.00000000000E+00  0.10226492978E+04  0.10226492978E+04  0.00000000000E+00 0. -1.
         21   -1    0    0  501  503 -0.00000000000E+00 -0.00000000000E+00 -0.41926009579E+02  0.41926009579E+02  0.00000000000E+00 0. -1.
          6    2    1    2  501    0 -0.73180245058E+02  0.74409911285E+02  0.36472594967E+03  0.41665323364E+03  0.17228672488E+03 0.  0.
         24    2    3    3    0    0 -0.54914206285E+01  0.97597192279E+02  0.19485134321E+03  0.23226533036E+03  0.80154663600E+02 0.  0.
         -6    2    1    2    0  502  0.73180245058E+02 -0.74409911285E+02  0.61599733851E+03  0.64792207370E+03  0.17163364873E+03 0.  0.
        -24    2    5    5    0    0  0.36343368725E+02 -0.99524753232E+02  0.56349585389E+03  0.57888435480E+03  0.79708857265E+02 0.  0.
          5    1    3    3  501    0 -0.67688824430E+02 -0.23187280995E+02  0.16987460646E+03  0.18438790327E+03  0.47000000000E+01 0. -1.
        -11    1    4    4    0    0  0.17409520854E+02  0.68026782802E+02  0.60123049737E+02  0.92441958571E+02  0.00000000000E+00 0.  1.
         12    1    4    4    0    0 -0.22900941482E+02  0.29570409477E+02  0.13472829347E+03  0.13982337179E+03  0.00000000000E+00 0. -1.
         -5    1    5    5    0  502  0.36836876333E+02  0.25114841947E+02  0.52501484623E+02  0.69037718905E+02  0.47000000000E+01 0.  1.
         13    1    6    6    0    0 -0.20264610273E+02 -0.26642256307E+02  0.81025421552E+02  0.87667457978E+02  0.00000000000E+00 0. -1.
        -14    1    6    6    0    0  0.56607978999E+02 -0.72882496925E+02  0.48247043234E+03  0.49121689682E+03  0.00000000000E+00 0.  1.
</event>
<event>
12    1  0.8728348E-002  0.2829400E+03  0.7818608E-02  0.1094560E+00
         21   -1    0    0  503  502  0.00000000000E+00  0.00000000000E+00  0.17799842264E+03  0.17799842264E+03  0.00000000000E+00 0. -1.
         21   -1    0    0  501  503 -0.00000000000E+00 -0.00000000000E+00 -0.44767291148E+03  0.44767291148E+03  0.00000000000E+00 0.  1.
          6    2    1    2  501    0 -0.18846512220E+03 -0.11150866484E+03 -0.16116948086E+03  0.32263932787E+03  0.17368721804E+03 0.  0.
         24    2    3    3    0    0 -0.16662485118E+03 -0.48427402147E+02 -0.16925565996E+03  0.25523221079E+03  0.79918387658E+02 0.  0.
         -6    2    1    2    0  502  0.18846512220E+03  0.11150866484E+03 -0.10850500798E+03  0.30303200625E+03  0.17916968337E+03 0.  0.
        -24    2    5    5    0    0  0.97876056532E+02  0.41547811158E+01 -0.27968232181E+01  0.12716971497E+03  0.81039061802E+02 0.  0.
          5    1    3    3  501    0 -0.21840271014E+02 -0.63081262690E+02  0.80861791000E+01  0.67407117079E+02  0.47000000000E+01 0. -1.
        -11    1    4    4    0    0 -0.19172916313E+02  0.19406523230E+02 -0.14157672037E+02  0.30735216630E+02  0.00000000000E+00 0.  1.
         12    1    4    4    0    0 -0.14745193487E+03 -0.67833925377E+02 -0.15509798793E+03  0.22449699416E+03  0.00000000000E+00 0. -1.
         -5    1    5    5    0  502  0.90589065663E+02  0.10735388372E+03 -0.10570818476E+03  0.17586229128E+03  0.47000000000E+01 0.  1.
         11    1    6    6    0    0  0.41915514385E+02  0.40471458023E+02  0.10342499004E+02  0.59176148458E+02  0.00000000000E+00 0. -1.
        -12    1    6    6    0    0  0.55960542148E+02 -0.36316676907E+02 -0.13139322222E+02  0.67993566515E+02  0.00000000000E+00 0.  1.
</event>
<event>
12    1  0.8728348E-002  0.1913358E+03  0.7818608E-02  0.1157302E+00
         21   -1    0    0  503  502  0.00000000000E+00  0.00000000000E+00  0.21511924555E+03  0.21511924555E+03  0.00000000000E+00 0. -1.
         21   -1    0    0  501  503 -0.00000000000E+00 -0.00000000000E+00 -0.22772284142E+03  0.22772284142E+03  0.00000000000E+00 0.  1.
          6    2    1    2  501    0  0.64039562418E+02  0.55397432999E+02 -0.11775714860E+03  0.22451513108E+03  0.17137781916E+03 0.  0.
         24    2    3    3    0    0  0.10172902875E+03  0.17992659440E+02 -0.10912436594E+03  0.17051302099E+03  0.80585557033E+02 0.  0.
         -6    2    1    2    0  502 -0.64039562418E+02 -0.55397432999E+02  0.10515355272E+03  0.21832695589E+03  0.17157927871E+03 0.  0.
        -24    2    5    5    0    0 -0.68565595306E+02 -0.11902219697E+02  0.13468039917E+03  0.16535296968E+03  0.66029470462E+02 0.  0.
          5    1    3    3  501    0 -0.37689466330E+02  0.37404773559E+02 -0.86327826583E+01  0.54002110085E+02  0.47000000000E+01 0. -1.
        -13    1    4    4    0    0  0.79149400760E+01  0.33599963878E+02 -0.18587910740E+02  0.39206048956E+02  0.00000000000E+00 0.  1.
         14    1    4    4    0    0  0.93814088673E+02 -0.15607304438E+02 -0.90536455200E+02  0.13130697204E+03  0.00000000000E+00 0. -1.
         -5    1    5    5    0  502  0.45260328875E+01 -0.43495213303E+02 -0.29526846444E+02  0.52973986209E+02  0.47000000000E+01 0.  1.
         13    1    6    6    0    0 -0.36421434818E+01 -0.42782513617E+00  0.78920106891E+02  0.79005262579E+02  0.00000000000E+00 0. -1.
        -14    1    6    6    0    0 -0.64923451824E+02 -0.11474394560E+02  0.55760292278E+02  0.86347707105E+02  0.00000000000E+00 0.  1.
</event>
<event>
12    1  0.8728348E-002  0.2058507E+03  0.7818608E-02  0.1145310E+00
         21   -1    0    0  503  502  0.00000000000E+00  0.00000000000E+00  0.46744811798E+02  0.46744811798E+02  0.00000000000E+00 0.  1.
         21   -1    0    0  501  503 -0.00000000000E+00 -0.00000000000E+00 -0.11718961327E+04  0.11718961327E+04  0.00000000000E+00 0.  1.
          6    2    1    2  501    0  0.12090584273E+02 -0.10627012662E+03 -0.85951224288E+03  0.88381886643E+03  0.17588340164E+03 0.  0.
         24    2    3    3    0    0  0.37447267502E+02 -0.17184756125E+02 -0.20988670878E+03  0.22760656148E+03  0.77811969650E+02 0.  0.
         -6    2    1    2    0  502 -0.12090584273E+02  0.10627012662E+03 -0.26563907799E+03  0.33482207802E+03  0.17349980444E+03 0.  0.
        -24    2    5    5    0    0 -0.21586764980E+02  0.29019947526E+02 -0.23119548184E+03  0.24957995855E+03  0.86779370278E+02 0.  0.
          5    1    3    3  501    0 -0.25356683229E+02 -0.89085370495E+02 -0.64962553410E+03  0.65621230495E+03  0.47000000000E+01 0. -1.
        -11    1    4    4    0    0 -0.90058617373E+01  0.13775253736E+02 -0.12454704807E+03  0.12562973511E+03  0.00000000000E+00 0.  1.
         12    1    4    4    0    0  0.46453129239E+02 -0.30960009861E+02 -0.85339660712E+02  0.10197682637E+03  0.00000000000E+00 0. -1.
         -5    1    5    5    0  502  0.94961807068E+01  0.77250179094E+02 -0.34443596142E+02  0.85242119479E+02  0.47000000000E+01 0.  1.
         13    1    6    6    0    0 -0.40602006057E+02  0.47076041168E+02 -0.19643992794E+03  0.20604203900E+03  0.00000000000E+00 0. -1.
        -14    1    6    6    0    0  0.19015241077E+02 -0.18056093642E+02 -0.34755553904E+02  0.43537919541E+02  0.00000000000E+00 0.  1.
</event>
<event>
12    1  0.8728348E-002  0.1789460E+03  0.7818608E-02  0.1169163E+00
         21   -1    0    0  501  502  0.00000000000E+00  0.00000000000E+00  0.60939212964E+02  0.60939212964E+02  0.00000000000E+00 0.  1.
         21   -1    0    0  502  503 -0.00000000000E+00 -0.00000000000E+00 -0.52452815230E+03  0.52452815230E+03  0.00000000000E+00 0.  1.
         -6    2    1    2    0  503 -0.47563536386E+02  0.18327271795E+02 -0.21026005547E+03  0.27609952672E+03  0.17153273403E+03 0.  0.
        -24    2    3    3    0    0 -0.35193460450E+02  0.32392330537E+02 -0.22998282520E+03  0.24849658662E+03  0.81059305059E+02 0.  0.
          6    2    1    2  501    0  0.47563536386E+02 -0.18327271795E+02 -0.25332888387E+03  0.30936783855E+03  0.17010219645E+03 0.  0.
         24    2    5    5    0    0  0.80082470171E+02  0.26245065279E+02 -0.13204037858E+03  0.17603680014E+03  0.80326134898E+02 0.  0.
          5    1    5    5  501    0 -0.32518933785E+02 -0.44572337074E+02 -0.12128850529E+03  0.13333103841E+03  0.47000000000E+01 0. -1.
        -13    1    6    6    0    0  0.86779766959E+02 -0.23424727857E+01 -0.10354245533E+03  0.13511941085E+03  0.00000000000E+00 0.  1.
         14    1    6    6    0    0 -0.66972967886E+01  0.28587538064E+02 -0.28497923252E+02  0.40917389293E+02  0.00000000000E+00 0. -1.
         -5    1    3    3    0  503 -0.12370075936E+02 -0.14065058741E+02  0.19722769738E+02  0.27602940100E+02  0.47000000000E+01 0.  1.
         13    1    4    4    0    0  0.18677242514E+02  0.25535681818E+02 -0.40539225983E+02  0.51423139510E+02  0.00000000000E+00 0. -1.
        -14    1    4    4    0    0 -0.53870702965E+02  0.68566487186E+01 -0.18944359922E+03  0.19707344711E+03  0.00000000000E+00 0.  1.
</event>
<event>
12    1  0.8728348E-002  0.1953240E+03  0.7818608E-02  0.1154079E+00
         21   -1    0    0  503  502  0.00000000000E+00  0.00000000000E+00  0.12200989514E+03  0.12200989514E+03  0.00000000000E+00 0.  1.
         21   -1    0    0  501  503 -0.00000000000E+00 -0.00000000000E+00 -0.44815487589E+03  0.44815487589E+03  0.00000000000E+00 0.  1.
          6    2    1    2  501    0 -0.39388864944E+02 -0.82143389684E+02 -0.32165676480E+03  0.37631707007E+03  0.17277859744E+03 0.  0.
         24    2    3    3    0    0 -0.74048244379E+02 -0.89585276907E+02 -0.30481353166E+03  0.33678937382E+03  0.83708595130E+02 0.  0.
         -6    2    1    2    0  502  0.39388864944E+02  0.82143389684E+02 -0.44882159547E+01  0.19384770096E+03  0.17104902202E+03 0.  0.
        -24    2    5    5    0    0 -0.15492567489E+02  0.10564053379E+03 -0.62704222241E+00  0.13383865106E+03  0.80699747886E+02 0.  0.
          5    1    3    3  501    0  0.34659379435E+02  0.74418872230E+01 -0.16843233139E+02  0.39527696250E+02  0.47000000000E+01 0. -1.
        -13    1    4    4    0    0 -0.83258379323E+02 -0.52237058184E+02 -0.25867328417E+03  0.27671742974E+03  0.00000000000E+00 0.  1.
         14    1    4    4    0    0  0.92101349436E+01 -0.37348218722E+02 -0.46140247490E+02  0.60071944082E+02  0.00000000000E+00 0. -1.
         -5    1    5    5    0  502  0.54881432433E+02 -0.23497144107E+02 -0.38611737323E+01  0.60009049898E+02  0.47000000000E+01 0.  1.
         13    1    6    6    0    0 -0.61852532980E+01 -0.11837504172E+02 -0.83303669817E+01  0.15740993534E+02  0.00000000000E+00 0. -1.
        -14    1    6    6    0    0 -0.93073141906E+01  0.11747803796E+03  0.77033247593E+01  0.11809765753E+03  0.00000000000E+00 0.  1.
</event>
<event>
12    1  0.8728348E-002  0.2339092E+03  0.7818608E-02  0.1124227E+00
         21   -1    0    0  503  502  0.00000000000E+00  0.00000000000E+00  0.42658749642E+03  0.42658749642E+03  0.00000000000E+00 0. -1.
         21   -1    0    0  501  503 -0.00000000000E+00 -0.00000000000E+00 -0.28956782221E+03  0.28956782221E+03  0.00000000000E+00 0. -1.
          6    2    1    2  501    0 -0.36218119180E+02  0.15359178344E+03 -0.19944204713E+03  0.30739328790E+03  0.17265953545E+03 0.  0.
         24    2    3    3    0    0 -0.13117991355E+02  0.58373136879E+02 -0.19504311661E+02  0.10245455265E+03  0.80851792674E+02 0.  0.
         -6    2    1    2    0  502  0.36218119180E+02 -0.15359178344E+03  0.33646172134E+03  0.40876203073E+03  0.17022843399E+03 0.  0.
        -24    2    5    5    0    0 -0.26627282027E+02 -0.14049204863E+03  0.20285682853E+03  0.26045995762E+03  0.79002966805E+02 0.  0.
          5    1    3    3  501    0 -0.23100127825E+02  0.95218646564E+02 -0.17993773547E+03  0.20493873525E+03  0.47000000000E+01 0. -1.
        -13    1    4    4    0    0 -0.28496326049E+02 -0.30564460770E+01 -0.26130173641E+02  0.38783610397E+02  0.00000000000E+00 0.  1.
         14    1    4    4    0    0  0.15378334694E+02  0.61429582956E+02  0.66258619798E+01  0.63670942251E+02  0.00000000000E+00 0. -1.
         -5    1    5    5    0  502  0.62845401206E+02 -0.13099734810E+02  0.13360489281E+03  0.14830207311E+03  0.47000000000E+01 0.  1.
         11    1    6    6    0    0 -0.50807456453E+01 -0.11155197700E+03  0.19313377343E+03  0.22309260854E+03  0.00000000000E+00 0. -1.
        -12    1    6    6    0    0 -0.21546536381E+02 -0.28940071636E+02  0.97230551012E+01  0.37367349074E+02  0.00000000000E+00 0.  1.
</event>
<event>
12    1  0.8728348E-002  0.1970617E+03  0.7818608E-02  0.1152484E+00
         21   -1    0    0  501  502  0.00000000000E+00  0.00000000000E+00  0.13523051179E+04  0.13523051179E+04  0.00000000000E+00 0. -1.
         21   -1    0    0  502  503 -0.00000000000E+00 -0.00000000000E+00 -0.41923043129E+02  0.41923043129E+02  0.00000000000E+00 0. -1.
         -6    2    1    2    0  503 -0.78923203031E+02 -0.52877081116E+02  0.26023403308E+03  0.32575063600E+03  0.17136763755E+03 0.  0.
        -24    2    3    3    0    0  0.22874262621E+02 -0.18401464814E+02  0.13879625810E+03  0.16351464947E+03  0.81306786514E+02 0.  0.
          6    2    1    2  501    0  0.78923203031E+02  0.52877081116E+02  0.10501480417E+04  0.10684775251E+04  0.17265125059E+03 0.  0.
         24    2    5    5    0    0  0.15907230943E+02  0.88948812927E+02  0.55176597136E+03  0.56481200050E+03  0.80012358002E+02 0.  0.
          5    1    5    5  501    0  0.63015972088E+02 -0.36071731810E+02  0.49838207035E+03  0.50366552455E+03  0.47000000000E+01 0. -1.
        -11    1    6    6    0    0  0.31682930365E+02  0.33919636195E+01  0.10818063269E+03  0.11277571894E+03  0.00000000000E+00 0.  1.
         12    1    6    6    0    0 -0.15775699422E+02  0.85556849307E+02  0.44358533868E+03  0.45203628156E+03  0.00000000000E+00 0. -1.
         -5    1    3    3    0  503 -0.10179746565E+03 -0.34475616303E+02  0.12143777498E+03  0.16223598653E+03  0.47000000000E+01 0.  1.
         13    1    4    4    0    0  0.26688961715E+02  0.23793928009E+02  0.99497958860E+02  0.10572745861E+03  0.00000000000E+00 0. -1.
        -14    1    4    4    0    0 -0.38146990935E+01 -0.42195392823E+02  0.39298299236E+02  0.57787190860E+02  0.00000000000E+00 0.  1.
</event>
<event>
12    1  0.8728348E-002  0.2037343E+03  0.7818608E-02  0.1148025E+00
         21   -1    0    0  503  502  0.00000000000E+00  0.00000000000E+00  0.11185533157E+03  0.11185533157E+03  0.00000000000E+00 0.  1.
         21   -1    0    0  501  503 -0.00000000000E+00 -0.00000000000E+00 -0.35915984615E+03  0.35915984615E+03  0.00000000000E+00 0.  1.
          6    2    1    2  501    0  0.18081029708E+02 -0.10412776452E+03 -0.12114131826E+03  0.23702926804E+03  0.17417847152E+03 0.  0.
         24    2    3    3    0    0 -0.23713530553E+02  0.84385324954E+01 -0.28950806069E+02  0.85572551357E+02  0.76491646680E+02 0.  0.
         -6    2    1    2    0  502 -0.18081029708E+02  0.10412776452E+03 -0.12616319632E+03  0.23398590968E+03  0.16632119180E+03 0.  0.
        -24    2    5    5    0    0 -0.15660875216E+02  0.58082268230E+02 -0.21471948214E+01  0.10159216547E+03  0.81838528485E+02 0.  0.
          5    1    3    3  501    0  0.41794560261E+02 -0.11256629702E+03 -0.92190512191E+02  0.15145671669E+03  0.47000000000E+01 0. -1.
        -13    1    4    4    0    0 -0.32312136026E+02 -0.22008286535E+02  0.47093181873E+01  0.39377868004E+02  0.00000000000E+00 0.  1.
         14    1    4    4    0    0  0.85986054725E+01  0.30446819031E+02 -0.33660124256E+02  0.46194683353E+02  0.00000000000E+00 0. -1.
         -5    1    5    5    0  502 -0.24201544918E+01  0.46045496292E+02 -0.12401600150E+03  0.13239374421E+03  0.47000000000E+01 0.  1.
         11    1    6    6    0    0 -0.12545986119E+02 -0.17874240286E+02 -0.12029972231E+02  0.24932117146E+02  0.00000000000E+00 0. -1.
        -12    1    6    6    0    0 -0.31148890970E+01  0.75956508516E+02  0.98827774098E+01  0.76660048326E+02  0.00000000000E+00 0.  1.
</event>
<event>
12    1  0.8728348E-002  0.2044054E+03  0.7818608E-02  0.1146190E+00
         21   -1    0    0  503  502  0.00000000000E+00  0.00000000000E+00  0.10977468127E+03  0.10977468127E+03  0.00000000000E+00 0. -1.
         21   -1    0    0  501  503 -0.00000000000E+00 -0.00000000000E+00 -0.40823197419E+03  0.40823197419E+03  0.00000000000E+00 0.  1.
          6    2    1    2  501    0 -0.68567288011E+02  0.86608798885E+02 -0.21805736288E+03  0.29888221408E+03  0.17198548589E+03 0.  0.
         24    2    3    3    0    0 -0.46738833522E+02  0.12589984838E+03 -0.16489771224E+03  0.22910896382E+03  0.85231281910E+02 0.  0.
         -6    2    1    2    0  502  0.68567288011E+02 -0.86608798885E+02 -0.80399930038E+02  0.21912444138E+03  0.17131495857E+03 0.  0.
        -24    2    5    5    0    0 -0.50128372452E+01 -0.21342357637E+02  0.11343985200E+02  0.84540715882E+02  0.80856798569E+02 0.  0.
          5    1    3    3  501    0 -0.21828454488E+02 -0.39291049500E+02 -0.53159650638E+02  0.69773250262E+02  0.47000000000E+01 0. -1.
        -11    1    4    4    0    0 -0.59237277834E+02  0.92826549479E+02 -0.15877979613E+03  0.19322744896E+03  0.00000000000E+00 0.  1.
         12    1    4    4    0    0  0.12498444312E+02  0.33073298905E+02 -0.61179161127E+01  0.35881514855E+02  0.00000000000E+00 0. -1.
         -5    1    5    5    0  502  0.73580125256E+02 -0.65266441247E+02 -0.91743915238E+02  0.13458372550E+03  0.47000000000E+01 0.  1.
         11    1    6    6    0    0 -0.34037068234E+02  0.72451384615E+00 -0.17287176284E+02  0.38182370253E+02  0.00000000000E+00 0. -1.
        -12    1    6    6    0    0  0.29024230989E+02 -0.22066871483E+02  0.28631161484E+02  0.46358345629E+02  0.00000000000E+00 0.  1.
</event>
<event>
12    1  0.8728348E-002  0.1889419E+03  0.7818608E-02  0.1160445E+00
         21   -1    0    0  503  502  0.00000000000E+00  0.00000000000E+00  0.43330538345E+03  0.43330538345E+03  0.00000000000E+00 0.  1.
         21   -1    0    0  501  503 -0.00000000000E+00 -0.00000000000E+00 -0.84757752107E+02  0.84757752107E+02  0.00000000000E+00 0.  1.
          6    2    1    2  501    0  0.63255676004E+02  0.17791084493E+02  0.11788731758E+03  0.22270260609E+03  0.17714747495E+03 0.  0.
         24    2    3    3    0    0 -0.12966934477E+02 -0.80633192135E+01  0.11584197315E+03  0.14205144384E+03  0.80784227707E+02 0.  0.
         -6    2    1    2    0  502 -0.63255676004E+02 -0.17791084493E+02  0.23066031376E+03  0.29536052946E+03  0.17238288426E+03 0.  0.
        -24    2    5    5    0    0 -0.40625211659E+02 -0.71929607077E+02  0.20008357990E+03  0.22902694673E+03  0.74803924951E+02 0.  0.
          5    1    3    3  501    0  0.76222610481E+02  0.25854403707E+02  0.20453444300E+01  0.80651162257E+02  0.47000000000E+01 0. -1.
        -13    1    4    4    0    0  0.47040345511E+01 -0.42810502069E+02  0.65272920197E+02  0.78201158172E+02  0.00000000000E+00 0.  1.
         14    1    4    4    0    0 -0.17670969028E+02  0.34747182856E+02  0.50569052954E+02  0.63850285665E+02  0.00000000000E+00 0. -1.
         -5    1    5    5    0  502 -0.22630464345E+02  0.54138522583E+02  0.30576733863E+02  0.66333582729E+02  0.47000000000E+01 0.  1.
         13    1    6    6    0    0 -0.54510092533E+02 -0.21475895419E+02  0.94526496105E+02  0.11121071323E+03  0.00000000000E+00 0. -1.
        -14    1    6    6    0    0  0.13884880874E+02 -0.50453711658E+02  0.10555708379E+03  0.11781623350E+03  0.00000000000E+00 0.  1.
</event>
<event>
12    1  0.8728348E-002  0.2333802E+03  0.7818608E-02  0.1124523E+00
         21   -1    0    0  501  502  0.00000000000E+00  0.00000000000E+00  0.24622888868E+03  0.24622888868E+03  0.00000000000E+00 0.  1.
         21   -1    0    0  502  503 -0.00000000000E+00 -0.00000000000E+00 -0.31457204310E+03  0.31457204310E+03  0.00000000000E+00 0.  1.
         -6    2    1    2    0  503  0.15303397625E+03 -0.38626553971E+02 -0.18807476408E+03  0.29973056775E+03  0.17191535068E+03 0.  0.
        -24    2    3    3    0    0  0.50374816240E+02  0.14093378723E+02 -0.33195430299E+02  0.10652603242E+03  0.86658026497E+02 0.  0.
          6    2    1    2  501    0 -0.15303397625E+03  0.38626553971E+02  0.11973160966E+03  0.26107036403E+03  0.17003137377E+03 0.  0.
         24    2    5    5    0    0 -0.45786557999E+02  0.71868105172E+02  0.80965754631E+02  0.14219273383E+03  0.80011790981E+02 0.  0.
          5    1    5    5  501    0 -0.10724741825E+03 -0.33241551201E+02  0.38765855030E+02  0.11887763021E+03  0.47000000000E+01 0. -1.
        -11    1    6    6    0    0 -0.52470954351E+02  0.65322663959E+02  0.27902116289E+02  0.88310699072E+02  0.00000000000E+00 0.  1.
         12    1    6    6    0    0  0.66843963527E+01  0.65454412128E+01  0.53063638342E+02  0.53882034755E+02  0.00000000000E+00 0. -1.
         -5    1    3    3    0  503  0.10265916001E+03 -0.52719932694E+02 -0.15487933378E+03  0.19320453532E+03  0.47000000000E+01 0.  1.
         11    1    4    4    0    0  0.48106493083E+02  0.28893307638E+01 -0.60251264884E+02  0.77154376604E+02  0.00000000000E+00 0. -1.
        -12    1    4    4    0    0  0.22683231569E+01  0.11204047959E+02  0.27055834585E+02  0.29371655821E+02  0.00000000000E+00 0.  1.
</event>
<event>
12    1  0.8728348E-002  0.1910816E+03  0.7818608E-02  0.1158839E+00
         21   -1    0    0  503  502  0.00000000000E+00  0.00000000000E+00  0.66215001912E+02  0.66215001912E+02  0.00000000000E+00 0. -1.
         21   -1    0    0  501  503 -0.00000000000E+00 -0.00000000000E+00 -0.19530833020E+04  0.19530833020E+04  0.00000000000E+00 0. -1.
          6    2    1    2  501    0  0.64130067180E+02 -0.19637709682E+02 -0.17998278181E+04  0.18093263860E+04  0.17257894163E+03 0.  0.
         24    2    3    3    0    0  0.75123812642E+02 -0.49558550477E+02 -0.79905844916E+03  0.80803844591E+03  0.79574416386E+02 0.  0.
         -6    2    1    2    0  502 -0.64130067180E+02  0.19637709682E+02 -0.87040482002E+02  0.20997191793E+03  0.17892416174E+03 0.  0.
        -24    2    5    5    0    0 -0.56357980530E+02 -0.44741849604E+02 -0.11017082729E+02  0.10993802256E+03  0.82382872117E+02 0.  0.
          5    1    3    3  501    0 -0.10993745461E+02  0.29920840795E+02 -0.10007693689E+04  0.10012879401E+04  0.47000000000E+01 0. -1.
        -13    1    4    4    0    0  0.70546144422E+01 -0.39492005784E+02 -0.14755270868E+03  0.15290908391E+03  0.00000000000E+00 0.  1.
         14    1    4    4    0    0  0.68069198200E+02 -0.10066544693E+02 -0.65150574048E+03  0.65512936199E+03  0.00000000000E+00 0. -1.
         -5    1    5    5    0  502 -0.77720866508E+01  0.64379559286E+02 -0.76023399273E+02  0.10003389536E+03  0.47000000000E+01 0.  1.
         11    1    6    6    0    0 -0.32373557065E+02  0.19761734541E+02  0.75199151862E+01  0.38666813594E+02  0.00000000000E+00 0. -1.
        -12    1    6    6    0    0 -0.23984423465E+02 -0.64503584145E+02 -0.18536997915E+02  0.71271208971E+02  0.00000000000E+00 0.  1.
</event>
<event>
12    1  0.8728348E-002  0.1729898E+03  0.7818608E-02  0.1174919E+00
         21   -1    0    0  501  502  0.00000000000E+00  0.00000000000E+00  0.17316305174E+03  0.17316305174E+03  0.00000000000E+00 0.  1.
         21   -1    0    0  502  503 -0.00000000000E+00 -0.00000000000E+00 -0.24240750032E+03  0.24240750032E+03  0.00000000000E+00 0.  1.
         -6    2    1    2    0  503  0.66478697861E+01  0.13981639069E+02 -0.14647527679E+03  0.22667259710E+03  0.17229561562E+03 0.  0.
        -24    2    3    3    0    0 -0.43610018032E+02  0.13960161084E+02 -0.24174494887E+02  0.94364520991E+02  0.78889396300E+02 0.  0.
          6    2    1    2  501    0 -0.66478697861E+01 -0.13981639069E+02  0.77230828214E+02  0.18889795496E+03  0.17169203871E+03 0.  0.
         24    2    5    5    0    0 -0.14280464277E+02 -0.48266825198E+02  0.10704555616E+03  0.14258663356E+03  0.79615192661E+02 0.  0.
          5    1    5    5  501    0  0.76325944908E+01  0.34285186128E+02 -0.29814727948E+02  0.46311321392E+02  0.47000000000E+01 0. -1.
        -13    1    6    6    0    0  0.32649974696E+02 -0.26985631144E+02  0.42635055261E+02  0.60099859176E+02  0.00000000000E+00 0.  1.
         14    1    6    6    0    0 -0.46930438973E+02 -0.21281194053E+02  0.64410500901E+02  0.82486774388E+02  0.00000000000E+00 0. -1.
         -5    1    3    3    0  503  0.50257887818E+02  0.21477984812E-01 -0.12230078190E+03  0.13230807611E+03  0.47000000000E+01 0.  1.
         11    1    4    4    0    0 -0.30163456322E+02 -0.30597488792E+02 -0.25426668093E+01  0.43040743165E+02  0.00000000000E+00 0. -1.
        -12    1    4    4    0    0 -0.13446561710E+02  0.44557649877E+02 -0.21631828078E+02  0.51323777826E+02  0.00000000000E+00 0.  1.
</event>
<event>
12    1  0.8728348E-002  0.2140377E+03  0.7818608E-02  0.1141182E+00
         21   -1    0    0  503  502  0.00000000000E+00  0.00000000000E+00  0.93155554702E+03  0.93155554702E+03  0.00000000000E+00 0.  1.
         21   -1    0    0  501  503 -0.00000000000E+00 -0.00000000000E+00 -0.14633862838E+03  0.14633862838E+03  0.00000000000E+00 0.  1.
          6    2    1    2  501    0 -0.65684384765E+02  0.78226315604E+02 -0.57618315958E+02  0.20830613924E+03  0.17215627336E+03 0.  0.
         24    2    3    3    0    0 -0.53654205663E+02  0.18182691041E+02 -0.95931857952E+02  0.13591843614E+03  0.77855737576E+02 0.  0.
         -6    2    1    2    0  502  0.65684384765E+02 -0.78226315604E+02  0.84283523460E+03  0.86958803616E+03  0.18809126799E+03 0.  0.
        -24    2    5    5    0    0  0.63556558851E+02 -0.55957692118E+02  0.24556922554E+03  0.27188476964E+03  0.80289376307E+02 0.  0.
          5    1    3    3  501    0 -0.12030179102E+02  0.60043624564E+02  0.38313541994E+02  0.72387703100E+02  0.47000000000E+01 0. -1.
        -13    1    4    4    0    0  0.35865063938E+01 -0.24132553334E+02 -0.32001480574E+02  0.40240997968E+02  0.00000000000E+00 0.  1.
         14    1    4    4    0    0 -0.57240712056E+02  0.42315244375E+02 -0.63930377378E+02  0.95677438171E+02  0.00000000000E+00 0. -1.
         -5    1    5    5    0  502  0.21278259135E+01 -0.22268623487E+02  0.59726600906E+03  0.59770326652E+03  0.47000000000E+01 0.  1.
         11    1    6    6    0    0 -0.18672293047E+02 -0.38065618911E+01  0.33793545411E+02  0.38796238896E+02  0.00000000000E+00 0. -1.
        -12    1    6    6    0    0  0.82228851898E+02 -0.52151130227E+02  0.21177568013E+03  0.23308853074E+03  0.00000000000E+00 0.  1.
</event>
<event>
12    1  0.8728348E-002  0.2218356E+03  0.7818608E-02  0.1132576E+00
         21   -1    0    0  503  502  0.00000000000E+00  0.00000000000E+00  0.64713136016E+03  0.64713136016E+03  0.00000000000E+00 0. -1.
         21   -1    0    0  501  503 -0.00000000000E+00 -0.00000000000E+00 -0.96428515126E+02  0.96428515126E+02  0.00000000000E+00 0. -1.
          6    2    1    2  501    0 -0.10785437590E+03  0.90339161943E+02  0.44656258413E+03  0.49849616624E+03  0.17113315176E+03 0.  0.
         24    2    3    3    0    0 -0.53854711877E+02  0.39295710895E+02  0.39334790072E+03  0.40697955496E+03  0.80407115791E+02 0.  0.
         -6    2    1    2    0  502  0.10785437590E+03 -0.90339161943E+02  0.10414026090E+03  0.24506370904E+03  0.17151471356E+03 0.  0.
        -24    2    5    5    0    0  0.13830938227E+03 -0.99561683743E+02  0.99470525951E+02  0.21256049773E+03  0.79028890716E+02 0.  0.
          5    1    3    3  501    0 -0.53999664025E+02  0.51043451048E+02  0.53214683413E+02  0.91516611282E+02  0.47000000000E+01 0. -1.
        -11    1    4    4    0    0  0.12966368791E+02  0.87115884207E+01  0.19209826749E+03  0.19273236071E+03  0.00000000000E+00 0.  1.
         12    1    4    4    0    0 -0.66821080668E+02  0.30584122475E+02  0.20124963323E+03  0.21424719425E+03  0.00000000000E+00 0. -1.
         -5    1    5    5    0  502 -0.30455006367E+02  0.92225217997E+01  0.46697349475E+01  0.32503211313E+02  0.47000000000E+01 0.  1.
         11    1    6    6    0    0  0.10253313849E+03 -0.63183821977E+02  0.10685441880E+03  0.16100654231E+03  0.00000000000E+00 0. -1.
        -12    1    6    6    0    0  0.35776243779E+02 -0.36377861766E+02 -0.73838928537E+01  0.51553955418E+02  0.00000000000E+00 0.  1.
</event>
<event>
12    1  0.8728348E-002  0.1754841E+03  0.7818608E-02  0.1172352E+00
         21   -1    0    0  503  502  0.00000000000E+00  0.00000000000E+00  0.14416442485E+04  0.14416442485E+04  0.00000000000E+00 0.  1.
         21   -1    0    0  501  503 -0.00000000000E+00 -0.00000000000E+00 -0.21370041384E+02  0.21370041384E+02  0.00000000000E+00 0.  1.
          6    2    1    2  501    0 -0.28735751608E+02  0.19849854118E+02  0.67209247509E+03  0.69462434486E+03  0.17197361793E+03 0.  0.
         24    2    3    3    0    0 -0.37374797517E+02  0.64878115333E+02  0.29398054219E+03  0.31371372381E+03  0.79910549883E+02 0.  0.
         -6    2    1    2    0  502  0.28735751608E+02 -0.19849854118E+02  0.74818173198E+03  0.76838994498E+03  0.17154428977E+03 0.  0.
        -24    2    5    5    0    0  0.27117240046E+02  0.59082162613E+01  0.16043556316E+03  0.18005862104E+03  0.76884883802E+02 0.  0.
          5    1    3    3  501    0  0.86390459090E+01 -0.45028261214E+02  0.37811193290E+03  0.38091062104E+03  0.47000000000E+01 0. -1.
        -13    1    4    4    0    0 -0.38835912501E+01  0.37327384076E+02  0.24677257137E+03  0.24960993142E+03  0.00000000000E+00 0.  1.
         14    1    4    4    0    0 -0.33491206267E+02  0.27550731257E+02  0.47207970822E+02  0.64103792393E+02  0.00000000000E+00 0. -1.
         -5    1    5    5    0  502  0.16185115619E+01 -0.25758070380E+02  0.58774616882E+03  0.58833132394E+03  0.47000000000E+01 0.  1.
         11    1    6    6    0    0  0.30811298279E+02  0.31541891266E+02  0.50170831243E+02  0.66793257997E+02  0.00000000000E+00 0. -1.
        -12    1    6    6    0    0 -0.36940582326E+01 -0.25633675005E+02  0.11026473191E+03  0.11326536304E+03  0.00000000000E+00 0.  1.
</event>
<event>
12    1  0.8728348E-002  0.1785685E+03  0.7818608E-02  0.1169448E+00
         21   -1    0    0  501  502  0.00000000000E+00  0.00000000000E+00  0.23167684425E+03  0.23167684425E+03  0.00000000000E+00 0.  1.
         21   -1    0    0  502  503 -0.00000000000E+00 -0.00000000000E+00 -0.13692446757E+03  0.13692446757E+03  0.00000000000E+00 0.  1.
         -6    2    1    2    0  503 -0.40909681424E+02  0.18497799146E+02  0.51746667396E+02  0.18492718548E+03  0.17176896034E+03 0.  0.
        -24    2    3    3    0    0 -0.75253661673E+02  0.31827016491E+02 -0.89880118727E+01  0.11373752134E+03  0.78608948785E+02 0.  0.
          6    2    1    2  501    0  0.40909681424E+02 -0.18497799146E+02  0.43005709287E+02  0.18367412635E+03  0.17283206604E+03 0.  0.
         24    2    5    5    0    0  0.59171322117E+02 -0.32475409660E+02 -0.27464472745E+02  0.10939763160E+03  0.81594405094E+02 0.  0.
          5    1    5    5  501    0 -0.18261640693E+02  0.13977610514E+02  0.70470182032E+02  0.74276494748E+02  0.47000000000E+01 0. -1.
        -13    1    6    6    0    0  0.42934664192E+02  0.20227678639E+01 -0.49342767028E+02  0.65438411022E+02  0.00000000000E+00 0.  1.
         14    1    6    6    0    0  0.16236657925E+02 -0.34498177524E+02  0.21878294282E+02  0.43959220578E+02  0.00000000000E+00 0. -1.
         -5    1    3    3    0  503  0.34343980249E+02 -0.13329217345E+02  0.60734679268E+02  0.71189664139E+02  0.47000000000E+01 0.  1.
         13    1    4    4    0    0 -0.28073363168E+02 -0.20731709912E+02 -0.22914291638E+02  0.41749039231E+02  0.00000000000E+00 0. -1.
        -14    1    4    4    0    0 -0.47180298505E+02  0.52558726403E+02  0.13926279765E+02  0.71988482109E+02  0.00000000000E+00 0.  1.
</event>
<event>
12    1  0.8728348E-002  0.1875701E+03  0.7818608E-02  0.1161008E+00
         21   -1    0    0  503  502  0.00000000000E+00  0.00000000000E+00  0.88256954551E+02  0.88256954551E+02  0.00000000000E+00 0. -1.
         21   -1    0    0  501  503 -0.00000000000E+00 -0.00000000000E+00 -0.40945517557E+03  0.40945517557E+03  0.00000000000E+00 0. -1.
          6    2    1    2  501    0 -0.39783955531E+02  0.58439856308E+02 -0.20587906853E+03  0.27752801443E+03  0.17215582480E+03 0.  0.
         24    2    3    3    0    0 -0.29581539442E+02  0.10359567496E+03 -0.12811561723E+03  0.18690582283E+03  0.83144716520E+02 0.  0.
         -6    2    1    2    0  502  0.39783955531E+02 -0.58439856308E+02 -0.11531915248E+03  0.22018411568E+03  0.17373703677E+03 0.  0.
        -24    2    5    5    0    0 -0.57810363521E+01 -0.94814657821E+02 -0.10106465718E+03  0.15997966978E+03  0.79725717884E+02 0.  0.
          5    1    3    3  501    0 -0.10202416089E+02 -0.45155818650E+02 -0.77763451307E+02  0.90622191605E+02  0.47000000000E+01 0. -1.
        -13    1    4    4    0    0 -0.16067146051E+02 -0.11014177404E+02 -0.10503269472E+02  0.22131063140E+02  0.00000000000E+00 0.  1.
         14    1    4    4    0    0 -0.13514393392E+02  0.11460985236E+03 -0.11761234775E+03  0.16477475969E+03  0.00000000000E+00 0. -1.
         -5    1    5    5    0  502  0.45564991883E+02  0.36374801513E+02 -0.14254495301E+02  0.60204445905E+02  0.47000000000E+01 0.  1.
         11    1    6    6    0    0  0.32533011541E+02 -0.64636448684E+02 -0.76746995376E+02  0.10548160331E+03  0.00000000000E+00 0. -1.
        -12    1    6    6    0    0 -0.38314047893E+02 -0.30178209137E+02 -0.24317661806E+02  0.54498066465E+02  0.00000000000E+00 0.  1.
</event>
<event>
12    1  0.8728348E-002  0.2288920E+03  0.7818608E-02  0.1127537E+00
         21   -1    0    0  501  502  0.00000000000E+00  0.00000000000E+00  0.11479915907E+04  0.11479915907E+04  0.00000000000E+00 0. -1.
         21   -1    0    0  502  503 -0.00000000000E+00 -0.00000000000E+00 -0.10551506513E+03  0.10551506513E+03  0.00000000000E+00 0. -1.
         -6    2    1    2    0  503 -0.80805892023E+02 -0.12627419703E+03  0.48270263036E+02  0.23329215963E+03  0.17210592212E+03 0.  0.
        -24    2    3    3    0    0 -0.60867207167E+02 -0.65479992882E+02 -0.36100044791E+02  0.12730194661E+03  0.83127167651E+02 0.  0.
          6    2    1    2  501    0  0.80805892023E+02  0.12627419703E+03  0.99420626251E+03  0.10202144962E+04  0.17296462294E+03 0.  0.
         24    2    5    5    0    0  0.10060252897E+03  0.10128219265E+03  0.95791843546E+03  0.97168199667E+03  0.78608029282E+02 0.  0.
          5    1    5    5  501    0 -0.19796636948E+02  0.24992004382E+02  0.36287827052E+02  0.48532499519E+02  0.47000000000E+01 0. -1.
        -13    1    6    6    0    0  0.27206136637E+02  0.19373026131E+02  0.77093345825E+02  0.84017093396E+02  0.00000000000E+00 0.  1.
         14    1    6    6    0    0  0.73396392334E+02  0.81909166521E+02  0.88082508963E+03  0.88766490327E+03  0.00000000000E+00 0. -1.
         -5    1    3    3    0  503 -0.19938684856E+02 -0.60794204153E+02  0.84370307827E+02  0.10599021302E+03  0.47000000000E+01 0.  1.
         11    1    4    4    0    0 -0.72788998209E+02 -0.70905881359E+02 -0.15358113992E+02  0.10277039426E+03  0.00000000000E+00 0. -1.
        -12    1    4    4    0    0  0.11921791042E+02  0.54258884775E+01 -0.20741930800E+02  0.24531552351E+02  0.00000000000E+00 0.  1.
</event>
<event>
12    1  0.8728348E-002  0.1802685E+03  0.7818608E-02  0.1168441E+00
         21   -1    0    0  503  502  0.00000000000E+00  0.00000000000E+00  0.22533171256E+03  0.22533171256E+03  0.00000000000E+00 0. -1.
         21   -1    0    0  501  503 -0.00000000000E+00 -0.00000000000E+00 -0.14395102738E+03  0.14395102738E+03  0.00000000000E+00 0. -1.
          6    2    1    2  501    0 -0.48364795879E+02  0.19433729441E+02  0.15189287427E+02  0.17724623125E+03  0.16872666867E+03 0.  0.
         24    2    3    3    0    0 -0.75186154764E+02 -0.17594656208E+02  0.47931754382E+02  0.12081356537E+03  0.79598584809E+02 0.  0.
         -6    2    1    2    0  502  0.48364795879E+02 -0.19433729441E+02  0.66191397757E+02  0.19203650869E+03  0.17256852614E+03 0.  0.
        -24    2    5    5    0    0  0.61353341333E+02  0.89407423485E+01  0.10231997669E+03  0.14406592210E+03  0.80258600254E+02 0.  0.
          5    1    3    3  501    0  0.26821358885E+02  0.37028385649E+02 -0.32742466955E+02  0.56432665882E+02  0.47000000000E+01 0. -1.
        -13    1    4    4    0    0 -0.56024437677E+02 -0.16862972767E+02  0.70227682682E+02  0.91405825211E+02  0.00000000000E+00 0.  1.
         14    1    4    4    0    0 -0.19161717087E+02 -0.73168344057E+00 -0.22295928301E+02  0.29407740157E+02  0.00000000000E+00 0. -1.
         -5    1    5    5    0  502 -0.12988545454E+02 -0.28374471789E+02 -0.36128578933E+02  0.47970586593E+02  0.47000000000E+01 0.  1.
         11    1    6    6    0    0 -0.19519831444E+02  0.55826705527E+01  0.17254310216E+02  0.26643972135E+02  0.00000000000E+00 0. -1.
        -12    1    6    6    0    0  0.80873172777E+02  0.33580717958E+01  0.85065666474E+02  0.11742194997E+03  0.00000000000E+00 0.  1.
</event>
<event>
12    1  0.8728348E-002  0.2078486E+03  0.7818608E-02  0.1143326E+00
         21   -1    0    0  503  502  0.00000000000E+00  0.00000000000E+00  0.18880792202E+03  0.18880792202E+03  0.00000000000E+00 0.  1.
         21   -1    0    0  501  503 -0.00000000000E+00 -0.00000000000E+00 -0.39454635432E+03  0.39454635432E+03  0.00000000000E+00 0.  1.
          6    2    1    2  501    0  0.10971712252E+03 -0.38802495362E+02 -0.29202259403E+03  0.35830766553E+03  0.17194099899E+03 0.  0.
         24    2    3    3    0    0  0.53160140923E+02 -0.42912256243E+02 -0.28175792114E+03  0.30048867374E+03  0.78983888230E+02 0.  0.
         -6    2    1    2    0  502 -0.10971712252E+03  0.38802495362E+02  0.86284161731E+02  0.22504661080E+03  0.17221364594E+03 0.  0.
        -24    2    5    5    0    0 -0.10261861485E+03  0.39194386287E+02 -0.23598701265E+01  0.13599383559E+03  0.80137221687E+02 0.  0.
          5    1    3    3  501    0  0.56556981601E+02  0.41097608807E+01 -0.10264672887E+02  0.57818991791E+02  0.47000000000E+01 0. -1.
        -11    1    4    4    0    0  0.19338602825E+02 -0.25161229579E+02 -0.23670262816E+02  0.39589776142E+02  0.00000000000E+00 0.  1.
         12    1    4    4    0    0  0.33821538097E+02 -0.17751026664E+02 -0.25808765833E+03  0.26089889760E+03  0.00000000000E+00 0. -1.
         -5    1    5    5    0  502 -0.70985076701E+01 -0.39189092511E+00  0.88644031858E+02  0.89052775216E+02  0.47000000000E+01 0.  1.
         11    1    6    6    0    0 -0.33174450437E+02 -0.13315164842E+01 -0.35877955658E+02  0.48882970451E+02  0.00000000000E+00 0. -1.
        -12    1    6    6    0    0 -0.69444164417E+02  0.40525902772E+02  0.33518085532E+02  0.87110865136E+02  0.00000000000E+00 0.  1.
</event>
<event>
12    1  0.8728348E-002  0.1821357E+03  0.7818608E-02  0.1165875E+00
         21   -1    0    0  501  502  0.00000000000E+00  0.00000000000E+00  0.13378169990E+04  0.13378169990E+04  0.00000000000E+00 0. -1.
         21   -1    0    0  502  503 -0.00000000000E+00 -0.00000000000E+00 -0.30130174472E+02  0.30130174472E+02  0.00000000000E+00 0.  1.
         -6    2    1    2    0  503  0.56162008531E+02 -0.20858617542E+02  0.36342579055E+03  0.40628074793E+03  0.17145403983E+03 0.  0.
        -24    2    3    3    0    0  0.72908769134E+02  0.49670692834E+01  0.36241485773E+03  0.37512738413E+03  0.63526882722E+02 0.  0.
          6    2    1    2  501    0 -0.56162008531E+02  0.20858617542E+02  0.94426103393E+03  0.96166642549E+03  0.17200046685E+03 0.  0.
         24    2    5    5    0    0  0.22154325855E+02  0.51424586602E+02  0.50861518676E+03  0.51795805184E+03  0.80348198484E+02 0.  0.
          5    1    5    5  501    0 -0.78316334386E+02 -0.30565969060E+02  0.43564584717E+03  0.44370837365E+03  0.47000000000E+01 0. -1.
        -13    1    6    6    0    0 -0.12467503438E+00  0.28409604851E+02  0.44869168983E+02  0.53107094789E+02  0.00000000000E+00 0.  1.
         14    1    6    6    0    0  0.22279000889E+02  0.23014981750E+02  0.46374601778E+03  0.46485095705E+03  0.00000000000E+00 0. -1.
         -5    1    3    3    0  503 -0.16746760602E+02 -0.25825686825E+02  0.10109328184E+01  0.31153363796E+02  0.47000000000E+01 0.  1.
         13    1    4    4    0    0  0.31274076524E+02 -0.84080134169E+01  0.27965920329E+03  0.28152803153E+03  0.00000000000E+00 0. -1.
        -14    1    4    4    0    0  0.41634692610E+02  0.13375082700E+02  0.82755654447E+02  0.93599352609E+02  0.00000000000E+00 0.  1.
</event>
<event>
12    1  0.8728348E-002  0.2501680E+03  0.7818608E-02  0.1113257E+00
         21   -1    0    0  501  502  0.00000000000E+00  0.00000000000E+00  0.83821852411E+02  0.83821852411E+02  0.00000000000E+00 0. -1.
         21   -1    0    0  502  503 -0.00000000000E+00 -0.00000000000E+00 -0.85838993777E+03  0.85838993777E+03  0.00000000000E+00 0. -1.
         -6    2    1    2    0  503  0.17446060703E+03  0.48153729789E+02 -0.55836340036E+03  0.61184452016E+03  0.17271000228E+03 0.  0.
        -24    2    3    3    0    0  0.13290819892E+03 -0.24927666063E+02 -0.43604015917E+03  0.46334348186E+03  0.79184492804E+02 0.  0.
          6    2    1    2  501    0 -0.17446060703E+03 -0.48153729789E+02 -0.21620468500E+03  0.33036727003E+03  0.17217079366E+03 0.  0.
         24    2    5    5    0    0 -0.14481899566E+03 -0.28811457066E+01 -0.22135278902E+03  0.27580698255E+03  0.78048650926E+02 0.  0.
          5    1    5    5  501    0 -0.29641611376E+02 -0.45272584082E+02  0.51481040200E+01  0.54560287476E+02  0.47000000000E+01 0. -1.
        -11    1    6    6    0    0  0.14266360493E+01 -0.15723782338E+02 -0.36357431501E+02  0.39637550969E+02  0.00000000000E+00 0.  1.
         12    1    6    6    0    0 -0.14624563171E+03  0.12842636631E+02 -0.18499535752E+03  0.23616943158E+03  0.00000000000E+00 0. -1.
         -5    1    3    3    0  503  0.41552408117E+02  0.73081395852E+02 -0.12232324119E+03  0.14850103830E+03  0.47000000000E+01 0.  1.
         11    1    4    4    0    0  0.11045523686E+03 -0.99792334514E+01 -0.41373564668E+03  0.42834230445E+03  0.00000000000E+00 0. -1.
        -12    1    4    4    0    0  0.22452962057E+02 -0.14948432612E+02 -0.22304512491E+02  0.35001177411E+02  0.00000000000E+00 0.  1.
</event>
<event>
12    1  0.8728348E-002  0.2374208E+03  0.7818608E-02  0.1121538E+00
         21   -1    0    0  501  502  0.00000000000E+00  0.00000000000E+00  0.10564525069E+03  0.10564525069E+03  0.00000000000E+00 0.  1.
         21   -1    0    0  502  503 -0.00000000000E+00 -0.00000000000E+00 -0.56590417764E+03  0.56590417764E+03  0.00000000000E+00 0.  1.
         -6    2    1    2    0  503  0.14460051131E+03  0.75694500331E+02 -0.14957758247E+03  0.28053597619E+03  0.17230210534E+03 0.  0.
        -24    2    3    3    0    0  0.54354963911E+02 -0.18757580479E+02 -0.29483973822E+02  0.10302535895E+03  0.80240955542E+02 0.  0.
          6    2    1    2  501    0 -0.14460051131E+03 -0.75694500331E+02 -0.31068134448E+03  0.39101345214E+03  0.17242290072E+03 0.  0.
         24    2    5    5    0    0 -0.13042477640E+03 -0.69750757069E+02 -0.32599963236E+03  0.36880940999E+03  0.88706426977E+02 0.  0.
          5    1    5    5  501    0 -0.14175734912E+02 -0.59437432620E+01  0.15318287878E+02  0.22204042149E+02  0.47000000000E+01 0. -1.
        -13    1    6    6    0    0 -0.12844849109E+03 -0.34113673508E+02 -0.22071039368E+03  0.25763508197E+03  0.00000000000E+00 0.  1.
         14    1    6    6    0    0 -0.19762853078E+01 -0.35637083560E+02 -0.10528923868E+03  0.11117432802E+03  0.00000000000E+00 0. -1.
         -5    1    3    3    0  503  0.90245547402E+02  0.94452080810E+02 -0.12009360865E+03  0.17751061724E+03  0.47000000000E+01 0.  1.
         11    1    4    4    0    0  0.64812833908E+02  0.11736089049E+02 -0.14346578072E+02  0.67411152844E+02  0.00000000000E+00 0. -1.
        -12    1    4    4    0    0 -0.10457869997E+02 -0.30493669528E+02 -0.15137395750E+02  0.35614206102E+02  0.00000000000E+00 0.  1.
</event>
<event>
12    1  0.8728348E-002  0.2727880E+03  0.7818608E-02  0.1100618E+00
         21   -1    0    0  503  502  0.00000000000E+00  0.00000000000E+00  0.94446499543E+03  0.94446499543E+03  0.00000000000E+00 0. -1.
         21   -1    0    0  501  503 -0.00000000000E+00 -0.00000000000E+00 -0.85719540608E+02  0.85719540608E+02  0.00000000000E+00 0.  1.
          6    2    1    2  501    0  0.11443806952E+03  0.17186031218E+03  0.25987382815E+03  0.37211117775E+03  0.16822688070E+03 0.  0.
         24    2    3    3    0    0  0.93803392703E+02  0.19534149949E+03  0.20470839703E+03  0.30853074967E+03  0.79550724508E+02 0.  0.
         -6    2    1    2    0  502 -0.11443806952E+03 -0.17186031218E+03  0.59887162667E+03  0.65807335829E+03  0.17827305181E+03 0.  0.
        -24    2    5    5    0    0 -0.83270354699E+01 -0.90215310901E+02  0.40374001474E+03  0.42137968758E+03  0.79666177009E+02 0.  0.
          5    1    3    3  501    0  0.20634676813E+02 -0.23481187309E+02  0.55165431116E+02  0.63580428080E+02  0.47000000000E+01 0. -1.
        -13    1    4    4    0    0  0.30051313289E+02  0.35808545230E+02  0.81122313716E+01  0.47446197316E+02  0.00000000000E+00 0.  1.
         14    1    4    4    0    0  0.63752079414E+02  0.15953295426E+03  0.19659616566E+03  0.26108455235E+03  0.00000000000E+00 0. -1.
         -5    1    5    5    0  502 -0.10611103405E+03 -0.81645001279E+02  0.19513161193E+03  0.23669367071E+03  0.47000000000E+01 0.  1.
         13    1    6    6    0    0  0.32826520338E+02 -0.51683240116E+02  0.16282174134E+03  0.17395303159E+03  0.00000000000E+00 0. -1.
        -14    1    6    6    0    0 -0.41153555808E+02 -0.38532070785E+02  0.24091827340E+03  0.24742665599E+03  0.00000000000E+00 0.  1.
</event>
<event>
12    1  0.8728348E-002  0.1998218E+03  0.7818608E-02  0.1149989E+00
         21   -1    0    0  503  502  0.00000000000E+00  0.00000000000E+00  0.48962882314E+03  0.48962882314E+03  0.00000000000E+00 0. -1.
         21   -1    0    0  501  503 -0.00000000000E+00 -0.00000000000E+00 -0.11299045607E+03  0.11299045607E+03  0.00000000000E+00 0. -1.
          6    2    1    2  501    0 -0.37065104849E+02  0.98300366169E+02  0.28732311269E+02  0.20141188664E+03  0.16942378340E+03 0.  0.
         24    2    3    3    0    0 -0.60797121933E+02  0.67007830591E+01  0.36017827639E+02  0.10639156771E+03  0.79250812256E+02 0.  0.
         -6    2    1    2    0  502  0.37065104849E+02 -0.98300366169E+02  0.34790605579E+03  0.40120739257E+03  0.16997636368E+03 0.  0.
        -24    2    5    5    0    0  0.89974497370E+02 -0.43100345928E+02  0.21600133755E+03  0.24867086991E+03  0.72301962082E+02 0.  0.
          5    1    3    3  501    0  0.23732017085E+02  0.91599583110E+02 -0.72855163699E+01  0.95020318930E+02  0.47000000000E+01 0. -1.
        -11    1    4    4    0    0 -0.17513845631E+02  0.39916174873E+02  0.56604190788E+01  0.43955388173E+02  0.00000000000E+00 0.  1.
         12    1    4    4    0    0 -0.43283276303E+02 -0.33215391814E+02  0.30357408560E+02  0.62436179538E+02  0.00000000000E+00 0. -1.
         -5    1    5    5    0  502 -0.52909392521E+02 -0.55200020241E+02  0.13190471824E+03  0.15253652266E+03  0.47000000000E+01 0.  1.
         13    1    6    6    0    0  0.60152790511E+02 -0.35756736518E+02  0.20404842850E+03  0.21571431011E+03  0.00000000000E+00 0. -1.
        -14    1    6    6    0    0  0.29821706859E+02 -0.73436094100E+01  0.11952909056E+02  0.32956559803E+02  0.00000000000E+00 0.  1.
</event>
<event>
12    1  0.8728348E-002  0.1837410E+03  0.7818608E-02  0.1164259E+00
         21   -1    0    0  501  502  0.00000000000E+00  0.00000000000E+00  0.24581721629E+02  0.24581721629E+02  0.00000000000E+00 0. -1.
         21   -1    0    0  502  503 -0.00000000000E+00 -0.00000000000E+00 -0.14193436617E+04  0.14193436617E+04  0.00000000000E+00 0. -1.
         -6    2    1    2    0  503  0.28746537861E+02  0.56960721554E+02 -0.82875227403E+03  0.84887636306E+03  0.17230746012E+03 0.  0.
        -24    2    3    3    0    0  0.67555760895E+02  0.82948362903E+02 -0.67915047473E+03  0.69208254414E+03  0.79301127662E+02 0.  0.
          6    2    1    2  501    0 -0.28746537861E+02 -0.56960721554E+02 -0.56600966606E+03  0.59504902029E+03  0.17217870726E+03 0.  0.
         24    2    5    5    0    0 -0.68938441379E+02  0.95505377823E+01 -0.32578522047E+03  0.34252375228E+03  0.79641631848E+02 0.  0.
          5    1    5    5  501    0  0.40191903518E+02 -0.66511259336E+02 -0.24022444559E+03  0.25252526801E+03  0.47000000000E+01 0. -1.
        -11    1    6    6    0    0 -0.29564895593E+02 -0.76917816967E+01 -0.27182490117E+03  0.27353614652E+03  0.00000000000E+00 0.  1.
         12    1    6    6    0    0 -0.39373545786E+02  0.17242319479E+02 -0.53960319305E+02  0.68987605759E+02  0.00000000000E+00 0. -1.
         -5    1    3    3    0  503 -0.38809223034E+02 -0.25987641349E+02 -0.14960179930E+03  0.15679381891E+03  0.47000000000E+01 0.  1.
         13    1    4    4    0    0  0.34761388189E+01  0.54623523000E+02 -0.42289448443E+03  0.42642180733E+03  0.00000000000E+00 0. -1.
        -14    1    4    4    0    0  0.64079622076E+02  0.28324839903E+02 -0.25625599029E+03  0.26566073681E+03  0.00000000000E+00 0.  1.
</event>
<event>
12    1  0.8728348E-002  0.1795914E+03  0.7818608E-02  0.1168756E+00
         21   -1    0    0  501  502  0.00000000000E+00  0.00000000000E+00  0.33533319163E+03  0.33533319163E+03  0.00000000000E+00 0. -1.
         21   -1    0    0  502  503 -0.00000000000E+00 -0.00000000000E+00 -0.13897297407E+03  0.13897297407E+03  0.00000000000E+00 0. -1.
         -6    2    1    2    0  503  0.55155293807E+01  0.46283091093E+02 -0.35699141806E+02  0.18087027192E+03  0.17107624309E+03 0.  0.
        -24    2    3    3    0    0 -0.22744527064E+02  0.73551703843E+02 -0.67369178288E+02  0.13020184740E+03  0.80540351594E+02 0.  0.
          6    2    1    2  501    0 -0.55155293807E+01 -0.46283091093E+02  0.23205935937E+03  0.29343589379E+03  0.17343740056E+03 0.  0.
         24    2    5    5    0    0 -0.19880228123E+02  0.45863230927E+02  0.13959111823E+03  0.16202145452E+03  0.65319308122E+02 0.  0.
          5    1    5    5  501    0  0.14364698743E+02 -0.92146322019E+02  0.92468241133E+02  0.13141443927E+03  0.47000000000E+01 0. -1.
        -13    1    6    6    0    0 -0.30069761285E+02  0.19415656132E+02  0.12523656086E+03  0.13025112062E+03  0.00000000000E+00 0.  1.
         14    1    6    6    0    0  0.10189533162E+02  0.26447574795E+02  0.14354557371E+02  0.31770333897E+02  0.00000000000E+00 0. -1.
         -5    1    3    3    0  503  0.28260056445E+02 -0.27268612750E+02  0.31670036482E+02  0.50668424510E+02  0.47000000000E+01 0.  1.
         13    1    4    4    0    0  0.40861554264E+01  0.42820778420E+02  0.86977552392E+01  0.43885836859E+02  0.00000000000E+00 0. -1.
        -14    1    4    4    0    0 -0.26830682490E+02  0.30730925423E+02 -0.76066933527E+02  0.86316010546E+02  0.00000000000E+00 0.  1.
</event>
<event>
12    1  0.8728348E-002  0.2480684E+03  0.7818608E-02  0.1114580E+00
         21   -1    0    0  501  502  0.00000000000E+00  0.00000000000E+00  0.22154712996E+04  0.22154712996E+04  0.00000000000E+00 0. -1.
         21   -1    0    0  502  503 -0.00000000000E+00 -0.00000000000E+00 -0.62455158660E+02  0.62455158660E+02  0.00000000000E+00 0. -1.
         -6    2    1    2    0  503 -0.56384682111E+02 -0.16924550234E+03  0.22709327008E+03  0.33609309030E+03  0.17194167498E+03 0.  0.
        -24    2    3    3    0    0 -0.44775773285E+02 -0.15977065099E+03  0.24863912080E+03  0.30943125886E+03  0.79967248157E+02 0.  0.
          6    2    1    2  501    0  0.56384682111E+02  0.16924550234E+03  0.19259228709E+04  0.19418333680E+04  0.17237938382E+03 0.  0.
         24    2    5    5    0    0  0.10419944660E+03  0.13219844214E+03  0.14900820741E+04  0.15017901581E+04  0.81823827799E+02 0.  0.
          5    1    5    5  501    0 -0.47814764494E+02  0.37047060195E+02  0.43584079681E+03  0.44004320985E+03  0.47000000000E+01 0. -1.
        -11    1    6    6    0    0  0.70647978084E+02  0.88136501487E+02  0.63891178645E+03  0.64882004482E+03  0.00000000000E+00 0.  1.
         12    1    6    6    0    0  0.33551468520E+02  0.44061940655E+02  0.85117028764E+03  0.85297011332E+03  0.00000000000E+00 0. -1.
         -5    1    3    3    0  503 -0.11608908826E+02 -0.94748513490E+01 -0.21545850725E+02  0.26661831439E+02  0.47000000000E+01 0.  1.
         11    1    4    4    0    0  0.57098543358E+01 -0.51634486390E+02  0.29080502012E+02  0.59534848775E+02  0.00000000000E+00 0. -1.
        -12    1    4    4    0    0 -0.50485627620E+02 -0.10813616460E+03  0.21955861879E+03  0.24989641009E+03  0.00000000000E+00 0.  1.
</event>
<event>
12    1  0.8728348E-002  0.2264581E+03  0.7818608E-02  0.1129796E+00
         21   -1    0    0  503  502  0.00000000000E+00  0.00000000000E+00  0.76554077742E+03  0.76554077742E+03  0.00000000000E+00 0. -1.
         21   -1    0    0  501  503 -0.00000000000E+00 -0.00000000000E+00 -0.18199359265E+03  0.18199359265E+03  0.00000000000E+00 0. -1.
          6    2    1    2  501    0 -0.11418630248E+03 -0.96962922748E+02 -0.85700439354E+02  0.24213184150E+03  0.16983210328E+03 0.  0.
         24    2    3    3    0    0  0.40198347587E+01 -0.16237891992E+02 -0.41708192196E+02  0.92309849524E+02  0.80633162006E+02 0.  0.
         -6    2    1    2    0  502  0.11418630248E+03  0.96962922748E+02  0.66924762413E+03  0.70540252857E+03  0.16510610177E+03 0.  0.
        -24    2    5    5    0    0  0.13955819599E+03  0.10763275896E+03  0.55547725543E+03  0.58825576087E+03  0.80178289056E+02 0.  0.
          5    1    3    3  501    0 -0.11820613724E+03 -0.80725030756E+02 -0.43992247158E+02  0.14982199198E+03  0.47000000000E+01 0. -1.
        -11    1    4    4    0    0 -0.31586499006E+01  0.38941055326E+01 -0.62376436775E+02  0.62577639712E+02  0.00000000000E+00 0.  1.
         12    1    4    4    0    0  0.71784846593E+01 -0.20131997525E+02  0.20668244579E+02  0.29732209812E+02  0.00000000000E+00 0. -1.
         -5    1    5    5    0  502 -0.25371893514E+02 -0.10669836214E+02  0.11377036871E+03  0.11714676769E+03  0.47000000000E+01 0.  1.
         13    1    6    6    0    0  0.31973913136E+02  0.71715546192E+02  0.26615180281E+03  0.27749276176E+03  0.00000000000E+00 0. -1.
        -14    1    6    6    0    0  0.10758428286E+03  0.35917212770E+02  0.28932545261E+03  0.31076299912E+03  0.00000000000E+00 0.  1.
</event>
<event>
12    1  0.8728348E-002  0.2208531E+03  0.7818608E-02  0.1133931E+00
         21   -1    0    0  503  502  0.00000000000E+00  0.00000000000E+00  0.59609904289E+02  0.59609904289E+02  0.00000000000E+00 0. -1.
         21   -1    0    0  501  503 -0.00000000000E+00 -0.00000000000E+00 -0.11242857941E+04  0.11242857941E+04  0.00000000000E+00 0.  1.
          6    2    1    2  501    0  0.32566954816E+02  0.12533265303E+03 -0.21996580323E+03  0.31170663751E+03  0.17890554160E+03 0.  0.
         24    2    3    3    0    0  0.79060909044E+02  0.35137819363E+02 -0.12829537719E+03  0.17487698864E+03  0.81467562001E+02 0.  0.
         -6    2    1    2    0  502 -0.32566954816E+02 -0.12533265303E+03 -0.84471008659E+03  0.87218906089E+03  0.17438390718E+03 0.  0.
        -24    2    5    5    0    0 -0.11005452312E+01  0.62972463753E+01 -0.38168125240E+03  0.38976356753E+03  0.78703199607E+02 0.  0.
          5    1    3    3  501    0 -0.46493954228E+02  0.90194833667E+02 -0.91670426038E+02  0.13682964887E+03  0.47000000000E+01 0. -1.
        -13    1    4    4    0    0  0.37504493264E+00 -0.81510931570E+01  0.81472528039E+01  0.11530772160E+02  0.00000000000E+00 0.  1.
         14    1    4    4    0    0  0.78685864111E+02  0.43288912520E+02 -0.13644262999E+03  0.16334621648E+03  0.00000000000E+00 0. -1.
         -5    1    5    5    0  502 -0.31466409585E+02 -0.13162989941E+03 -0.46302883419E+03  0.48242549336E+03  0.47000000000E+01 0.  1.
         13    1    6    6    0    0  0.33565426724E+02  0.22064187942E+02 -0.16974462323E+03  0.17443251811E+03  0.00000000000E+00 0. -1.
        -14    1    6    6    0    0 -0.34665971955E+02 -0.15766941566E+02 -0.21193662918E+03  0.21533104942E+03  0.00000000000E+00 0.  1.
</event>
<event>
12    1  0.8728348E-002  0.2075593E+03  0.7818608E-02  0.1143703E+00
         21   -1    0    0  501  502  0.00000000000E+00  0.00000000000E+00  0.93546534003E+02  0.93546534003E+02  0.00000000000E+00 0.  1.
         21   -1    0    0  502  503 -0.00000000000E+00 -0.00000000000E+00 -0.54626102225E+03  0.54626102225E+03  0.00000000000E+00 0.  1.
         -6    2    1    2    0  503 -0.24718625955E+02  0.10883458225E+03 -0.35505507192E+03  0.41127238560E+03  0.17499969799E+03 0.  0.
        -24    2    3    3    0    0 -0.79798009325E+02  0.52047928982E+02 -0.17913723333E+03  0.21832773448E+03  0.80623458575E+02 0.  0.
          6    2    1    2  501    0  0.24718625955E+02 -0.10883458225E+03 -0.97659416326E+02  0.22853517066E+03  0.17388210336E+03 0.  0.
         24    2    5    5    0    0  0.45193395078E+02 -0.99673619138E+02 -0.12952833273E+03  0.18928141608E+03  0.84098705018E+02 0.  0.
          5    1    5    5  501    0 -0.20474769123E+02 -0.91609631071E+01  0.31868916399E+02  0.39253754574E+02  0.47000000000E+01 0. -1.
        -11    1    6    6    0    0  0.51366451746E+02 -0.17547250986E+02 -0.64802721696E+02  0.84532899639E+02  0.00000000000E+00 0.  1.
         12    1    6    6    0    0 -0.61730566681E+01 -0.82126368152E+02 -0.64725611030E+02  0.10474851645E+03  0.00000000000E+00 0. -1.
         -5    1    3    3    0  503  0.55079383370E+02  0.56786653264E+02 -0.17591783859E+03  0.19294465112E+03  0.47000000000E+01 0.  1.
         11    1    4    4    0    0 -0.34662925490E+01 -0.18478650789E+02 -0.14980410220E+02  0.24039309669E+02  0.00000000000E+00 0. -1.
        -12    1    4    4    0    0 -0.76331716776E+02  0.70526579770E+02 -0.16415682311E+03  0.19428842481E+03  0.00000000000E+00 0.  1.
</event>
<event>
12    1  0.8728348E-002  0.1877474E+03  0.7818608E-02  0.1160985E+00
         21   -1    0    0  501  502  0.00000000000E+00  0.00000000000E+00  0.89543381601E+02  0.89543381601E+02  0.00000000000E+00 0. -1.
         21   -1    0    0  502  503 -0.00000000000E+00 -0.00000000000E+00 -0.38957006614E+03  0.38957006614E+03  0.00000000000E+00 0. -1.
         -6    2    1    2    0  503  0.41370272961E+02  0.55950755689E+02 -0.14492868267E+03  0.23717799696E+03  0.17437629608E+03 0.  0.
        -24    2    3    3    0    0  0.81494644759E+02  0.63079554617E+02 -0.64506345817E+02  0.14689717258E+03  0.82445759899E+02 0.  0.
          6    2    1    2  501    0 -0.41370272961E+02 -0.55950755689E+02 -0.15509800186E+03  0.24193545077E+03  0.17214931197E+03 0.  0.
         24    2    5    5    0    0  0.35794153241E+02 -0.53321831253E+02 -0.10807963457E+03  0.15141431083E+03  0.84383926310E+02 0.  0.
          5    1    5    5  501    0 -0.77164426202E+02 -0.26289244358E+01 -0.47018367291E+02  0.90521139948E+02  0.47000000000E+01 0. -1.
        -13    1    6    6    0    0 -0.10766544622E+02 -0.15099680452E+02 -0.84846451390E+02  0.86849520127E+02  0.00000000000E+00 0.  1.
         14    1    6    6    0    0  0.46560697862E+02 -0.38222150801E+02 -0.23233183182E+02  0.64564790699E+02  0.00000000000E+00 0. -1.
         -5    1    3    3    0  503 -0.40124371798E+02 -0.71287989282E+01 -0.80422336855E+02  0.90280824385E+02  0.47000000000E+01 0.  1.
         11    1    4    4    0    0 -0.59603464722E+01  0.41403948149E+02 -0.18689129014E+02  0.45815894574E+02  0.00000000000E+00 0. -1.
        -12    1    4    4    0    0  0.87454991231E+02  0.21675606468E+02 -0.45817216803E+02  0.10108127800E+03  0.00000000000E+00 0.  1.
</event>
<event>
12    1  0.8728348E-002  0.2042541E+03  0.7818608E-02  0.1146454E+00
         21   -1    0    0  501  502  0.00000000000E+00  0.00000000000E+00  0.97066895525E+02  0.97066895525E+02  0.00000000000E+00 0.  1.
         21   -1    0    0  502  503 -0.00000000000E+00 -0.00000000000E+00 -0.45209408229E+03  0.45209408229E+03  0.00000000000E+00 0. -1.
         -6    2    1    2    0  503 -0.11009537425E+03 -0.29580628728E+01 -0.11358631068E+03  0.23371264519E+03  0.17201746708E+03 0.  0.
        -24    2    3    3    0    0 -0.29086237300E+02 -0.60095119757E+02 -0.47598756873E+02  0.11453391053E+03  0.79968383663E+02 0.  0.
          6    2    1    2  501    0  0.11009537425E+03  0.29580628728E+01 -0.24144087609E+03  0.31544833263E+03  0.17054094038E+03 0.  0.
         24    2    5    5    0    0  0.12592309531E+01 -0.11651890663E+02 -0.51139273395E+02  0.95685854444E+02  0.80020030234E+02 0.  0.
          5    1    5    5  501    0  0.10883614330E+03  0.14609953536E+02 -0.19030160269E+03  0.21976247818E+03  0.47000000000E+01 0. -1.
        -13    1    6    6    0    0 -0.22535160567E+02  0.27179747010E+02 -0.23513039307E+02  0.42419749254E+02  0.00000000000E+00 0.  1.
         14    1    6    6    0    0  0.23794391520E+02 -0.38831637673E+02 -0.27626234089E+02  0.53266105190E+02  0.00000000000E+00 0. -1.
         -5    1    3    3    0  503 -0.81009136950E+02  0.57137056884E+02 -0.65987553807E+02  0.11917873466E+03  0.47000000000E+01 0.  1.
         11    1    4    4    0    0 -0.51650528528E+02 -0.59458438898E+02 -0.47472210582E+02  0.91960283987E+02  0.00000000000E+00 0. -1.
        -12    1    4    4    0    0  0.22564291228E+02 -0.63668085938E+00 -0.12654629082E+00  0.22573626539E+02  0.00000000000E+00 0.  1.
</event>
<event>
12    1  0.8728348E-002  0.2197290E+03  0.7818608E-02  0.1134200E+00
         21   -1    0    0  501  502  0.00000000000E+00  0.00000000000E+00  0.11945593181E+03  0.11945593181E+03  0.00000000000E+00 0.  1.
         21   -1    0    0  502  503 -0.00000000000E+00 -0.00000000000E+00 -0.43838312255E+03  0.43838312255E+03  0.00000000000E+00 0.  1.
         -6    2    1    2    0  503  0.12489211960E+03  0.55484030402E+02 -0.80062504690E+02  0.23328217409E+03  0.17127185677E+03 0.  0.
        -24    2    3    3    0    0  0.13752693999E+03 -0.19553984341E+01 -0.69599296099E+02  0.17336143139E+03  0.79326168885E+02 0.  0.
          6    2    1    2  501    0 -0.12489211960E+03 -0.55484030402E+02 -0.23886468604E+03  0.32455688028E+03  0.17205903385E+03 0.  0.
         24    2    5    5    0    0 -0.13515864946E+03 -0.28701715031E+02 -0.24714322732E+03  0.29433572382E+03  0.80387154040E+02 0.  0.
          5    1    5    5  501    0  0.10266529864E+02 -0.26782315372E+02  0.82785412757E+01  0.30221156460E+02  0.47000000000E+01 0. -1.
        -13    1    6    6    0    0 -0.14335152715E+03 -0.37135895353E+02 -0.22994376431E+03  0.27350113310E+03  0.00000000000E+00 0.  1.
         14    1    6    6    0    0  0.81928776922E+01  0.84341803218E+01 -0.17199463005E+02  0.20834590715E+02  0.00000000000E+00 0. -1.
         -5    1    3    3    0  503 -0.12634820394E+02  0.57439428837E+02 -0.10463208591E+02  0.59920742698E+02  0.47000000000E+01 0.  1.
         13    1    4    4    0    0  0.10211820479E+03 -0.12919913757E+02 -0.10321821375E+02  0.10344849886E+03  0.00000000000E+00 0. -1.
        -14    1    4    4    0    0  0.35408735203E+02  0.10964515322E+02 -0.59277474724E+02  0.69912932527E+02  0.00000000000E+00 0.  1.
</event>
<event>
12    1  0.8728348E-002  0.3453896E+03  0.7818608E-02  0.1064533E+00
         21   -1    0    0  501  502  0.00000000000E+00  0.00000000000E+00  0.13620234785E+03  0.13620234785E+03  0.00000000000E+00 0. -1.
         21   -1    0    0  502  503 -0.00000000000E+00 -0.00000000000E+00 -0.13655961572E+04  0.13655961572E+04  0.00000000000E+00 0.  1.
         -6    2    1    2    0  503 -0.23981067820E+03 -0.17906541266E+03 -0.16496643850E+03  0.38276351554E+03  0.17239605451E+03 0.  0.
        -24    2    3    3    0    0 -0.79954961784E+02 -0.81549605456E+02 -0.13681648977E+03  0.19334943914E+03  0.74980795404E+02 0.  0.
          6    2    1    2  501    0  0.23981067820E+03  0.17906541266E+03 -0.10644273709E+04  0.11190349895E+04  0.17222106875E+03 0.  0.
         24    2    5    5    0    0  0.23151676106E+03  0.18292319735E+03 -0.10657539638E+04  0.11086657363E+04  0.79039842799E+02 0.  0.
          5    1    5    5  501    0  0.82939171376E+01 -0.38577846865E+01  0.13265928848E+01  0.10369253245E+02  0.47000000000E+01 0. -1.
        -11    1    6    6    0    0  0.23307948730E+03  0.16060903540E+03 -0.98302835845E+03  0.10229692386E+04  0.00000000000E+00 0.  1.
         12    1    6    6    0    0 -0.15627262360E+01  0.22314161951E+02 -0.82725605310E+02  0.85696497658E+02  0.00000000000E+00 0. -1.
         -5    1    3    3    0  503 -0.15985571642E+03 -0.97515807205E+02 -0.28149948729E+02  0.18941407640E+03  0.47000000000E+01 0.  1.
         11    1    4    4    0    0 -0.77365912568E+02 -0.92507491929E+02 -0.13642243566E+03  0.18208295209E+03  0.00000000000E+00 0. -1.
        -12    1    4    4    0    0 -0.25890492170E+01  0.10957886473E+02 -0.39405410784E+00  0.11266487050E+02  0.00000000000E+00 0.  1.
</event>
<event>
12    1  0.8728348E-002  0.1784293E+03  0.7818608E-02  0.1169753E+00
         21   -1    0    0  501  502  0.00000000000E+00  0.00000000000E+00  0.97537289358E+02  0.97537289358E+02  0.00000000000E+00 0. -1.
         21   -1    0    0  502  503 -0.00000000000E+00 -0.00000000000E+00 -0.49926692139E+03  0.49926692139E+03  0.00000000000E+00 0. -1.
         -6    2    1    2    0  503 -0.38086031966E+02 -0.31525722504E+02 -0.37865089803E+03  0.41858515669E+03  0.17144274207E+03 0.  0.
        -24    2    3    3    0    0 -0.83203304513E+02 -0.24634695520E+02 -0.33476661027E+03  0.35509519490E+03  0.80586946749E+02 0.  0.
          6    2    1    2  501    0  0.38086031966E+02  0.31525722504E+02 -0.23078733996E+02  0.17821905406E+03  0.16966138705E+03 0.  0.
         24    2    5    5    0    0 -0.62626586060E+01 -0.23960674660E+02 -0.54283327406E+02  0.10049284692E+03  0.80862833400E+02 0.  0.
          5    1    5    5  501    0  0.44348690572E+02  0.55486397163E+02  0.31204593410E+02  0.77726207135E+02  0.47000000000E+01 0. -1.
        -11    1    6    6    0    0 -0.43586623479E+02 -0.10200631651E+02 -0.29992488396E+02  0.53883169846E+02  0.00000000000E+00 0.  1.
         12    1    6    6    0    0  0.37323964873E+02 -0.13760043008E+02 -0.24290839010E+02  0.46609677077E+02  0.00000000000E+00 0. -1.
         -5    1    3    3    0  503  0.45117272546E+02 -0.68910269838E+01 -0.43884287763E+02  0.63489961784E+02  0.47000000000E+01 0.  1.
         13    1    4    4    0    0 -0.17958125168E+02 -0.42959778265E+02 -0.18395732889E+03  0.18975862473E+03  0.00000000000E+00 0. -1.
        -14    1    4    4    0    0 -0.65245179345E+02  0.18325082745E+02 -0.15080928138E+03  0.16533657017E+03  0.00000000000E+00 0.  1.
</event>
<event>
12    1  0.8728348E-002  0.1791788E+03  0.7818608E-02  0.1168616E+00
         21   -1    0    0  501  502  0.00000000000E+00  0.00000000000E+00  0.29703694145E+02  0.29703694145E+02  0.00000000000E+00 0. -1.
         21   -1    0    0  502  503 -0.00000000000E+00 -0.00000000000E+00 -0.10842586813E+04  0.10842586813E+04  0.00000000000E+00 0. -1.
         -6    2    1    2    0  503 -0.52547891148E+02  0.51215771108E+01 -0.56016045601E+03  0.58810023615E+03  0.17115676986E+03 0.  0.
        -24    2    3    3    0    0 -0.13468249914E+02  0.61396296513E+02 -0.41476293453E+03  0.42730038648E+03  0.81279944902E+02 0.  0.
          6    2    1    2  501    0  0.52547891148E+02 -0.51215771108E+01 -0.49439453111E+03  0.52586213926E+03  0.17122361314E+03 0.  0.
         24    2    5    5    0    0  0.88668207718E+02  0.34665287079E+02 -0.36089768509E+03  0.38187891201E+03  0.80750425059E+02 0.  0.
          5    1    5    5  501    0 -0.36120316570E+02 -0.39786864190E+02 -0.13349684602E+03  0.14398322725E+03  0.47000000000E+01 0. -1.
        -11    1    6    6    0    0  0.23172538116E+02  0.44378902774E+02 -0.89802850471E+02  0.10281539518E+03  0.00000000000E+00 0.  1.
         12    1    6    6    0    0  0.65495669602E+02 -0.97136156955E+01 -0.27109483462E+03  0.27906351683E+03  0.00000000000E+00 0. -1.
         -5    1    3    3    0  503 -0.39079641235E+02 -0.56274719402E+02 -0.14539752148E+03  0.16079984967E+03  0.47000000000E+01 0.  1.
         11    1    4    4    0    0 -0.23503962809E+01  0.28293435773E+02 -0.36719505394E+03  0.36829098619E+03  0.00000000000E+00 0. -1.
        -12    1    4    4    0    0 -0.11117853633E+02  0.33102860739E+02 -0.47567880587E+02  0.59009400286E+02  0.00000000000E+00 0.  1.
</event>
<event>
12    1  0.8728348E-002  0.2142077E+03  0.7818608E-02  0.1138752E+00
         21   -1    0    0  503  502  0.00000000000E+00  0.00000000000E+00  0.14087415718E+04  0.14087415718E+04  0.00000000000E+00 0. -1.
         21   -1    0    0  501  503 -0.00000000000E+00 -0.00000000000E+00 -0.55573458579E+02  0.55573458579E+02  0.00000000000E+00 0. -1.
          6    2    1    2  501    0 -0.12673036905E+03  0.66490685191E+01  0.19951640690E+03  0.29094501110E+03  0.16952110874E+03 0.  0.
         24    2    3    3    0    0 -0.32543347053E+02 -0.27547264689E+02  0.27429163812E+02  0.91754917091E+02  0.76476692879E+02 0.  0.
         -6    2    1    2    0  502  0.12673036905E+03 -0.66490685191E+01  0.11536517063E+04  0.11733700192E+04  0.17256925014E+03 0.  0.
        -24    2    5    5    0    0  0.10008203049E+03 -0.54268364657E+02  0.10115231063E+04  0.10210533745E+04  0.80059545991E+02 0.  0.
          5    1    3    3  501    0 -0.94187021995E+02  0.34196333208E+02  0.17208724309E+03  0.19919009401E+03  0.47000000000E+01 0. -1.
        -11    1    4    4    0    0  0.10058085846E+02  0.20606807974E+02  0.10793587684E+02  0.25343779530E+02  0.00000000000E+00 0.  1.
         12    1    4    4    0    0 -0.42601432900E+02 -0.48154072663E+02  0.16635576128E+02  0.66411137561E+02  0.00000000000E+00 0. -1.
         -5    1    5    5    0  502  0.26648338556E+02  0.47619296138E+02  0.14212860002E+03  0.15231664471E+03  0.47000000000E+01 0.  1.
         11    1    6    6    0    0  0.82105643718E+02 -0.10403195358E+02  0.80071499761E+03  0.80498078896E+03  0.00000000000E+00 0. -1.
        -12    1    6    6    0    0  0.17976386775E+02 -0.43865169299E+02  0.21080810866E+03  0.21607258557E+03  0.00000000000E+00 0.  1.
</event>
<event>
12    1  0.8728348E-002  0.2163725E+03  0.7818608E-02  0.1136928E+00
         21   -1    0    0  501  502  0.00000000000E+00  0.00000000000E+00  0.79014357621E+03  0.79014357621E+03  0.00000000000E+00 0.  1.
         21   -1    0    0  502  503 -0.00000000000E+00 -0.00000000000E+00 -0.12976351216E+03  0.12976351216E+03  0.00000000000E+00 0. -1.
         -6    2    1    2    0  503  0.30007536587E+02 -0.12721986294E+03 -0.10495919626E+02  0.21500167743E+03  0.17038254368E+03 0.  0.
        -24    2    3    3    0    0 -0.12369651459E+02 -0.14781608507E+03 -0.88275938791E+01  0.16762126224E+03  0.77565184582E+02 0.  0.
          6    2    1    2  501    0 -0.30007536587E+02  0.12721986294E+03  0.67087598368E+03  0.70490541095E+03  0.17242884658E+03 0.  0.
         24    2    5    5    0    0 -0.77186836044E+02  0.77337156399E+02  0.32138836413E+03  0.34870622942E+03  0.79791668840E+02 0.  0.
          5    1    5    5  501    0  0.47179299458E+02  0.49882706542E+02  0.34948761954E+03  0.35619918153E+03  0.47000000000E+01 0. -1.
        -11    1    6    6    0    0 -0.69114615220E+02  0.16556401782E+02  0.20792604172E+03  0.21973662258E+03  0.00000000000E+00 0.  1.
         12    1    6    6    0    0 -0.80722208243E+01  0.60780754617E+02  0.11346232241E+03  0.12896960684E+03  0.00000000000E+00 0. -1.
         -5    1    3    3    0  503  0.42377188046E+02  0.20596222128E+02 -0.16683257472E+01  0.47380415188E+02  0.47000000000E+01 0.  1.
         13    1    4    4    0    0  0.11659400867E+02 -0.11675848272E+03 -0.32516559668E+02  0.12176128929E+03  0.00000000000E+00 0. -1.
        -14    1    4    4    0    0 -0.24029052326E+02 -0.31057602346E+02  0.23688965789E+02  0.45859972953E+02  0.00000000000E+00 0.  1.
</event>
<event>
12    1  0.8728348E-002  0.1945803E+03  0.7818608E-02  0.1155575E+00
         21   -1    0    0  501  502  0.00000000000E+00  0.00000000000E+00  0.93291562400E+03  0.93291562400E+03  0.00000000000E+00 0. -1.
         21   -1    0    0  502  503 -0.00000000000E+00 -0.00000000000E+00 -0.44490505472E+02  0.44490505472E+02  0.00000000000E+00 0. -1.
         -6    2    1    2    0  503 -0.75993020787E+02 -0.20127725703E+02  0.61363822126E+03  0.64374944512E+03  0.17799274411E+03 0.  0.
        -24    2    3    3    0    0 -0.12014951557E+03 -0.32911937410E+01  0.45744250040E+03  0.48049363955E+03  0.84698042625E+02 0.  0.
          6    2    1    2  501    0  0.75993020787E+02  0.20127725703E+02  0.27478689727E+03  0.33365668435E+03  0.17215945966E+03 0.  0.
         24    2    5    5    0    0 -0.24334094504E+02  0.27822971998E+02  0.11043749006E+03  0.14089370935E+03  0.79299005036E+02 0.  0.
          5    1    5    5  501    0  0.10032711529E+03 -0.76952462952E+01  0.16434940721E+03  0.19276297500E+03  0.47000000000E+01 0. -1.
        -11    1    6    6    0    0 -0.48219621480E+01  0.30112727151E+02  0.11642713430E+03  0.12035491372E+03  0.00000000000E+00 0.  1.
         12    1    6    6    0    0 -0.19512132356E+02 -0.22897551531E+01 -0.59896442474E+01  0.20538795630E+02  0.00000000000E+00 0. -1.
         -5    1    3    3    0  503  0.44156494779E+02 -0.16836531962E+02  0.15619572086E+03  0.16325580558E+03  0.47000000000E+01 0.  1.
         13    1    4    4    0    0 -0.12461977956E+03  0.17434485605E+02  0.39032722359E+03  0.41010900041E+03  0.00000000000E+00 0. -1.
        -14    1    4    4    0    0  0.44702639886E+01 -0.20725679346E+02  0.67115276812E+02  0.70384639134E+02  0.00000000000E+00 0.  1.
</event>
<event>
12    1  0.8728348E-002  0.1871388E+03  0.7818608E-02  0.1164253E+00
         21   -1    0    0  501  502  0.00000000000E+00  0.00000000000E+00  0.46765750737E+03  0.46765750737E+03  0.00000000000E+00 0.  1.
         21   -1    0    0  502  503 -0.00000000000E+00 -0.00000000000E+00 -0.15733069204E+03  0.15733069204E+03  0.00000000000E+00 0.  1.
         -6    2    1    2    0  503  0.35057459908E+02 -0.39452542668E+02 -0.80582465523E+02  0.19159346466E+03  0.16561700798E+03 0.  0.
        -24    2    3    3    0    0  0.13650315267E+02  0.32010697727E+02 -0.10177094038E+02  0.88908183811E+02  0.81179283254E+02 0.  0.
          6    2    1    2  501    0 -0.35057459908E+02  0.39452542668E+02  0.39090928086E+03  0.43339473475E+03  0.17954220013E+03 0.  0.
         24    2    5    5    0    0 -0.64511671628E+02  0.19764101029E+02  0.10754149997E+03  0.14778210447E+03  0.75643907371E+02 0.  0.
          5    1    5    5  501    0  0.29454211720E+02  0.19688441639E+02  0.28336778089E+03  0.28561263027E+03  0.47000000000E+01 0. -1.
        -11    1    6    6    0    0 -0.12580609943E+02  0.28694253925E+02  0.84777836483E+02  0.90382041986E+02  0.00000000000E+00 0.  1.
         12    1    6    6    0    0 -0.51931061686E+02 -0.89301528961E+01  0.22763663482E+02  0.57400062489E+02  0.00000000000E+00 0. -1.
         -5    1    3    3    0  503  0.21407144641E+02 -0.71463240395E+02 -0.70405371484E+02  0.10268528085E+03  0.47000000000E+01 0.  1.
         11    1    4    4    0    0  0.56859615453E+01  0.89058366845E+00  0.33890222295E+02  0.34375434036E+02  0.00000000000E+00 0. -1.
        -12    1    4    4    0    0  0.79643537213E+01  0.31120114059E+02 -0.44067316333E+02  0.54532749775E+02  0.00000000000E+00 0.  1.
</event>
<event>
12    1  0.8728348E-002  0.1972307E+03  0.7818608E-02  0.1152250E+00
         21   -1    0    0  501  502  0.00000000000E+00  0.00000000000E+00  0.30339004283E+02  0.30339004283E+02  0.00000000000E+00 0.  1.
         21   -1    0    0  502  503 -0.00000000000E+00 -0.00000000000E+00 -0.15478292795E+04  0.15478292795E+04  0.00000000000E+00 0. -1.
         -6    2    1    2    0  503  0.57544883444E+02 -0.76174421287E+02 -0.10896161630E+04  0.11073225913E+04  0.17258615939E+03 0.  0.
        -24    2    3    3    0    0 -0.10955043938E+01  0.21040300993E+02 -0.45678445437E+03  0.46437044783E+03  0.80894874187E+02 0.  0.
          6    2    1    2  501    0 -0.57544883444E+02  0.76174421287E+02 -0.42787411222E+03  0.47084569251E+03  0.17177151737E+03 0.  0.
         24    2    5    5    0    0 -0.27288842425E+02  0.24818511681E+02 -0.39183336141E+03  0.40103249040E+03  0.77026202042E+02 0.  0.
          5    1    5    5  501    0 -0.30256041019E+02  0.51355909607E+02 -0.36040750811E+02  0.69813202109E+02  0.47000000000E+01 0. -1.
        -11    1    6    6    0    0  0.24679514696E+02 -0.53759138754E+01 -0.11031929389E+03  0.11317387287E+03  0.00000000000E+00 0.  1.
         12    1    6    6    0    0 -0.51968357121E+02  0.30194425556E+02 -0.28151406752E+03  0.28785861753E+03  0.00000000000E+00 0. -1.
         -5    1    3    3    0  503  0.58640387838E+02 -0.97214722280E+02 -0.63283170867E+03  0.64295214348E+03  0.47000000000E+01 0.  1.
         11    1    4    4    0    0  0.38387500375E+02  0.85233345037E+00 -0.17933057946E+03  0.18339515639E+03  0.00000000000E+00 0. -1.
        -12    1    4    4    0    0 -0.39483004769E+02  0.20187967543E+02 -0.27745387491E+03  0.28097529144E+03  0.00000000000E+00 0.  1.
</event>
<event>
12    1  0.8728348E-002  0.2001542E+03  0.7818608E-02  0.1149729E+00
         21   -1    0    0  501  502  0.00000000000E+00  0.00000000000E+00  0.27184974415E+03  0.27184974415E+03  0.00000000000E+00 0. -1.
         21   -1    0    0  502  503 -0.00000000000E+00 -0.00000000000E+00 -0.19160248218E+03  0.19160248218E+03  0.00000000000E+00 0.  1.
         -6    2    1    2    0  503  0.94505665232E+02  0.43933803681E+02  0.15203710089E+03  0.25135033223E+03  0.17088068820E+03 0.  0.
        -24    2    3    3    0    0  0.98432187005E+02 -0.23752322005E+02  0.12270839492E+03  0.17732944209E+03  0.78328236338E+02 0.  0.
          6    2    1    2  501    0 -0.94505665232E+02 -0.43933803681E+02 -0.71789838919E+02  0.21210189410E+03  0.17021143511E+03 0.  0.
         24    2    5    5    0    0 -0.17063484016E+02  0.31163415636E+02 -0.46308907587E+02  0.10115933400E+03  0.82621879502E+02 0.  0.
          5    1    5    5  501    0 -0.77442181216E+02 -0.75097219318E+02 -0.25480931332E+02  0.11094256010E+03  0.47000000000E+01 0. -1.
        -11    1    6    6    0    0  0.71442523294E+01 -0.24838190201E+02 -0.26494402389E+02  0.37012557217E+02  0.00000000000E+00 0.  1.
         12    1    6    6    0    0 -0.24207736345E+02  0.56001605837E+02 -0.19814505197E+02  0.64146776782E+02  0.00000000000E+00 0. -1.
         -5    1    3    3    0  503 -0.39265217727E+01  0.67686125686E+02  0.29328705965E+02  0.74020890141E+02  0.47000000000E+01 0.  1.
         13    1    4    4    0    0  0.74301506424E+02  0.20012144793E+02  0.62876551317E+02  0.99371326355E+02  0.00000000000E+00 0. -1.
        -14    1    4    4    0    0  0.24130680581E+02 -0.43764466799E+02  0.59831843605E+02  0.77958115733E+02  0.00000000000E+00 0.  1.
</event>
<event>
12    1  0.8728348E-002  0.2246976E+03  0.7818608E-02  0.1130998E+00
         21   -1    0    0  501  502  0.00000000000E+00  0.00000000000E+00  0.75071972648E+03  0.75071972648E+03  0.00000000000E+00 0.  1.
         21   -1    0    0  502  503 -0.00000000000E+00 -0.00000000000E+00 -0.10367151860E+03  0.10367151860E+03  0.00000000000E+00 0. -1.
         -6    2    1    2    0  503  0.18202656738E+02  0.13733152621E+03  0.65681039646E+02  0.23111217627E+03  0.17293800695E+03 0.  0.
        -24    2    3    3    0    0  0.45207128774E+02  0.74502522486E+02 -0.18074028312E+02  0.12288220525E+03  0.84729307316E+02 0.  0.
          6    2    1    2  501    0 -0.18202656738E+02 -0.13733152621E+03  0.58136716824E+03  0.62327906881E+03  0.17691164040E+03 0.  0.
         24    2    5    5    0    0 -0.50119959140E+02 -0.15874952215E+03  0.48807304087E+03  0.52226754004E+03  0.82672057374E+02 0.  0.
          5    1    5    5  501    0  0.31917302402E+02  0.21417995943E+02  0.93294127367E+02  0.10101152877E+03  0.47000000000E+01 0. -1.
        -11    1    6    6    0    0  0.22341609609E+02 -0.54022187927E+02  0.15975362122E+03  0.17011397298E+03  0.00000000000E+00 0.  1.
         12    1    6    6    0    0 -0.72461568749E+02 -0.10472733423E+03  0.32831941965E+03  0.35215356707E+03  0.00000000000E+00 0. -1.
         -5    1    3    3    0  503 -0.27004472036E+02  0.62829003725E+02  0.83755067958E+02  0.10822997102E+03  0.47000000000E+01 0.  1.
         13    1    4    4    0    0 -0.21000140284E+02  0.19102427045E+02  0.12877929285E+02  0.31172899667E+02  0.00000000000E+00 0. -1.
        -14    1    4    4    0    0  0.66207269058E+02  0.55400095441E+02 -0.30951957597E+02  0.91709305580E+02  0.00000000000E+00 0.  1.
</event>
<event>
12    1  0.8728348E-002  0.1836889E+03  0.7818608E-02  0.1164570E+00
         21   -1    0    0  503  502  0.00000000000E+00  0.00000000000E+00  0.60606715412E+02  0.60606715412E+02  0.00000000000E+00 0. -1.
         21   -1    0    0  501  503 -0.00000000000E+00 -0.00000000000E+00 -0.57814303795E+03  0.57814303795E+03  0.00000000000E+00 0. -1.
          6    2    1    2  501    0  0.59640201491E+02  0.29811348810E+02 -0.19136221515E+03  0.26440876347E+03  0.16984353583E+03 0.  0.
         24    2    3    3    0    0 -0.32005827326E+01  0.34393937146E+02 -0.36652056668E+02  0.97294169812E+02  0.83244192465E+02 0.  0.
         -6    2    1    2    0  502 -0.59640201491E+02 -0.29811348810E+02 -0.32617410739E+03  0.37434098989E+03  0.17116062113E+03 0.  0.
        -24    2    5    5    0    0 -0.95043924625E+02  0.12314374251E+02 -0.18768531150E+03  0.22524626583E+03  0.79530577113E+02 0.  0.
          5    1    3    3  501    0  0.62840784224E+02 -0.45825883363E+01 -0.15471015848E+03  0.16711459366E+03  0.47000000000E+01 0. -1.
        -11    1    4    4    0    0 -0.31916465090E+02 -0.63857459151E+01  0.42059942316E+01  0.32819641714E+02  0.00000000000E+00 0.  1.
         12    1    4    4    0    0  0.28715882358E+02  0.40779683061E+02 -0.40858050899E+02  0.64474528098E+02  0.00000000000E+00 0. -1.
         -5    1    5    5    0  502  0.35403723133E+02 -0.42125723061E+02 -0.13848879590E+03  0.14909472406E+03  0.47000000000E+01 0.  1.
         13    1    6    6    0    0 -0.56730704053E+02 -0.14854132226E+02 -0.16072687102E+03  0.17109104330E+03  0.00000000000E+00 0. -1.
        -14    1    6    6    0    0 -0.38313220572E+02  0.27168506477E+02 -0.26958440474E+02  0.54155222533E+02  0.00000000000E+00 0.  1.
</event>
<event>
12    1  0.8728348E-002  0.1840776E+03  0.7818608E-02  0.1165165E+00
         21   -1    0    0  501  502  0.00000000000E+00  0.00000000000E+00  0.53365517131E+03  0.53365517131E+03  0.00000000000E+00 0.  1.
         21   -1    0    0  502  503 -0.00000000000E+00 -0.00000000000E+00 -0.74366819207E+02  0.74366819207E+02  0.00000000000E+00 0.  1.
         -6    2    1    2    0  503  0.44706091163E+02 -0.33832649544E+02  0.10143540022E+03  0.20560018757E+03  0.16982053453E+03 0.  0.
        -24    2    3    3    0    0  0.11258345587E+02 -0.32087553706E+02 -0.10449344318E+02  0.88715273640E+02  0.81270225373E+02 0.  0.
          6    2    1    2  501    0 -0.44706091163E+02  0.33832649544E+02  0.35785295188E+03  0.40242180295E+03  0.17533194106E+03 0.  0.
         24    2    5    5    0    0 -0.54108689577E+02 -0.40611976262E+02  0.25192040609E+03  0.27252105073E+03  0.78909753409E+02 0.  0.
          5    1    5    5  501    0  0.94025984136E+01  0.74444625806E+02  0.10593254579E+03  0.12990075221E+03  0.47000000000E+01 0. -1.
        -13    1    6    6    0    0 -0.38153243382E+02 -0.44133001794E+02  0.24922375227E+03  0.25596068160E+03  0.00000000000E+00 0.  1.
         14    1    6    6    0    0 -0.15955446195E+02  0.35210255320E+01  0.26966538226E+01  0.16560369136E+02  0.00000000000E+00 0. -1.
         -5    1    3    3    0  503  0.33447745577E+02 -0.17450958371E+01  0.11188474454E+03  0.11688491393E+03  0.47000000000E+01 0.  1.
         13    1    4    4    0    0 -0.19191995614E+02 -0.20935139957E+02  0.26993064449E+02  0.39182117209E+02  0.00000000000E+00 0. -1.
        -14    1    4    4    0    0  0.30450341201E+02 -0.11152413750E+02 -0.37442408767E+02  0.49533156431E+02  0.00000000000E+00 0.  1.
</event>
<event>
12    1  0.8728348E-002  0.2036791E+03  0.7818608E-02  0.1146776E+00
         21   -1    0    0  503  502  0.00000000000E+00  0.00000000000E+00  0.45870586315E+03  0.45870586315E+03  0.00000000000E+00 0. -1.
         21   -1    0    0  501  503 -0.00000000000E+00 -0.00000000000E+00 -0.91271593051E+02  0.91271593051E+02  0.00000000000E+00 0. -1.
          6    2    1    2  501    0  0.10814535791E+03  0.52812110966E+01  0.21308855520E+03  0.29442363423E+03  0.17191635875E+03 0.  0.
         24    2    3    3    0    0  0.12922402144E+03 -0.35714932482E+02  0.17153513157E+03  0.23218400971E+03  0.80688963833E+02 0.  0.
         -6    2    1    2    0  502 -0.10814535791E+03 -0.52812110966E+01  0.15434571490E+03  0.25555382197E+03  0.17251622124E+03 0.  0.
        -24    2    5    5    0    0 -0.45984421991E+02  0.56628072527E+02  0.85823897731E+02  0.14413537296E+03  0.89933078744E+02 0.  0.
          5    1    3    3  501    0 -0.21078663528E+02  0.40996143578E+02  0.41553423635E+02  0.62239624518E+02  0.47000000000E+01 0. -1.
        -13    1    4    4    0    0  0.25928337320E+01 -0.28051684743E+02  0.19965115400E+02  0.34528620543E+02  0.00000000000E+00 0.  1.
         14    1    4    4    0    0  0.12663118770E+03 -0.76632477385E+01  0.15157001617E+03  0.19765538917E+03  0.00000000000E+00 0. -1.
         -5    1    5    5    0  502 -0.62160935918E+02 -0.61909283624E+02  0.68521817165E+02  0.11141844901E+03  0.47000000000E+01 0.  1.
         13    1    6    6    0    0 -0.59552520238E+02  0.20456697710E+02  0.17020261782E+02  0.65227819671E+02  0.00000000000E+00 0. -1.
        -14    1    6    6    0    0  0.13568098247E+02  0.36171374817E+02  0.68803635949E+02  0.78907553289E+02  0.00000000000E+00 0.  1.
</event>
<event>
12    1  0.8728348E-002  0.1996174E+03  0.7818608E-02  0.1150332E+00
         21   -1    0    0  501  502  0.00000000000E+00  0.00000000000E+00  0.37726405010E+02  0.37726405010E+02  0.00000000000E+00 0.  1.
         21   -1    0    0  502  503 -0.00000000000E+00 -0.00000000000E+00 -0.11702672286E+04  0.11702672286E+04  0.00000000000E+00 0. -1.
         -6    2    1    2    0  503  0.61994358563E+02  0.77548397339E+02 -0.37386167388E+03  0.42381559805E+03  0.17317637118E+03 0.  0.
        -24    2    3    3    0    0 -0.13084991367E+02  0.72221257243E+02 -0.13237084060E+03  0.17082310851E+03  0.79191969061E+02 0.  0.
          6    2    1    2  501    0 -0.61994358563E+02 -0.77548397339E+02 -0.75867914976E+03  0.78417803560E+03  0.17170930323E+03 0.  0.
         24    2    5    5    0    0 -0.30508004614E+02 -0.11278010658E+03 -0.44424833554E+03  0.46618198098E+03  0.79491917709E+02 0.  0.
          5    1    5    5  501    0 -0.31486353948E+02  0.35231709236E+02 -0.31443081422E+03  0.31799605462E+03  0.47000000000E+01 0. -1.
        -13    1    6    6    0    0  0.16125231892E+02 -0.31730939413E+02 -0.52497491846E+02  0.63426037789E+02  0.00000000000E+00 0.  1.
         14    1    6    6    0    0 -0.46633236506E+02 -0.81049167163E+02 -0.39175084369E+03  0.40275594319E+03  0.00000000000E+00 0. -1.
         -5    1    3    3    0  503  0.75079349929E+02  0.53271400959E+01 -0.24149083328E+03  0.25299248954E+03  0.47000000000E+01 0.  1.
         11    1    4    4    0    0 -0.26159799652E+02  0.28194643148E+02 -0.11576375869E+03  0.12198574034E+03  0.00000000000E+00 0. -1.
        -12    1    4    4    0    0  0.13074808286E+02  0.44026614095E+02 -0.16607081908E+02  0.48837368171E+02  0.00000000000E+00 0.  1.
</event>
<event>
12    1  0.8728348E-002  0.1726806E+03  0.7818608E-02  0.1175386E+00
         21   -1    0    0  503  502  0.00000000000E+00  0.00000000000E+00  0.49280358674E+02  0.49280358674E+02  0.00000000000E+00 0. -1.
         21   -1    0    0  501  503 -0.00000000000E+00 -0.00000000000E+00 -0.75191538866E+03  0.75191538866E+03  0.00000000000E+00 0. -1.
          6    2    1    2  501    0 -0.15080476814E+02 -0.14850178114E+02 -0.52986444134E+03  0.55692484671E+03  0.17017934691E+03 0.  0.
         24    2    3    3    0    0 -0.27495264310E+02  0.48381100181E+02 -0.40051834580E+03  0.41233984080E+03  0.80699929190E+02 0.  0.
         -6    2    1    2    0  502  0.15080476814E+02  0.14850178114E+02 -0.17277058864E+03  0.24427090062E+03  0.17137866851E+03 0.  0.
        -24    2    5    5    0    0  0.23875854912E+02 -0.92110897463E+01 -0.19517229794E+03  0.20991642688E+03  0.72923108626E+02 0.  0.
          5    1    3    3  501    0  0.12414787496E+02 -0.63231278295E+02 -0.12934609554E+03  0.14458500591E+03  0.47000000000E+01 0. -1.
        -13    1    4    4    0    0  0.15971093743E+02  0.36547253621E+02 -0.88321087563E+02  0.96909195079E+02  0.00000000000E+00 0.  1.
         14    1    4    4    0    0 -0.43466358053E+02  0.11833846560E+02 -0.31219725824E+03  0.31543064572E+03  0.00000000000E+00 0. -1.
         -5    1    5    5    0  502 -0.87953780982E+01  0.24061267860E+02  0.22401709290E+02  0.34354473742E+02  0.47000000000E+01 0.  1.
         13    1    6    6    0    0  0.17315795438E+02  0.85562248331E+01 -0.66231436346E+01  0.20418417829E+02  0.00000000000E+00 0. -1.
        -14    1    6    6    0    0  0.65600594744E+01 -0.17767314579E+02 -0.18854915430E+03  0.18949800905E+03  0.00000000000E+00 0.  1.
</event>
<event>
12    1  0.8728348E-002  0.1725108E+03  0.7818608E-02  0.1175334E+00
         21   -1    0    0  503  502  0.00000000000E+00  0.00000000000E+00  0.28959431622E+03  0.28959431622E+03  0.00000000000E+00 0. -1.
         21   -1    0    0  501  503 -0.00000000000E+00 -0.00000000000E+00 -0.12715633087E+03  0.12715633087E+03  0.00000000000E+00 0. -1.
          6    2    1    2  501    0  0.13132784250E+02  0.12485851813E+01 -0.10333289242E+02  0.17282002955E+03  0.17200568816E+03 0.  0.
         24    2    3    3    0    0 -0.52244964956E+02 -0.14666656916E+02 -0.32420244703E+02  0.10184490275E+03  0.79854021573E+02 0.  0.
         -6    2    1    2    0  502 -0.13132784250E+02 -0.12485851813E+01  0.17277127459E+03  0.24393061754E+03  0.17169217763E+03 0.  0.
        -24    2    5    5    0    0  0.26316495122E+02 -0.49817268827E+02  0.14529098511E+03  0.17542938409E+03  0.80570964109E+02 0.  0.
          5    1    3    3  501    0  0.65377749206E+02  0.15915242097E+02  0.22086955461E+02  0.70975126796E+02  0.47000000000E+01 0. -1.
        -13    1    4    4    0    0 -0.22651543978E+02 -0.46608855710E+02 -0.96703132978E+01  0.52716153450E+02  0.00000000000E+00 0.  1.
         14    1    4    4    0    0 -0.29593420978E+02  0.31942198795E+02 -0.22749931405E+02  0.49128749302E+02  0.00000000000E+00 0. -1.
         -5    1    5    5    0  502 -0.39449279372E+02  0.48568683646E+02  0.27480289482E+02  0.68501233449E+02  0.47000000000E+01 0.  1.
         13    1    6    6    0    0 -0.29010339965E+02 -0.18767568669E+02  0.44606658213E+02  0.56423181544E+02  0.00000000000E+00 0. -1.
        -14    1    6    6    0    0  0.55326835087E+02 -0.31049700158E+02  0.10068432690E+03  0.11900620254E+03  0.00000000000E+00 0.  1.
</event>
<event>
12    1  0.8728348E-002  0.1809156E+03  0.7818608E-02  0.1167013E+00
         21   -1    0    0  501  502  0.00000000000E+00  0.00000000000E+00  0.73143799490E+03  0.73143799490E+03  0.00000000000E+00 0.  1.
         21   -1    0    0  502  503 -0.00000000000E+00 -0.00000000000E+00 -0.62560169412E+02  0.62560169412E+02  0.00000000000E+00 0.  1.
         -6    2    1    2    0  503  0.36466765809E+02 -0.39656817987E+02  0.12228998406E+03  0.21836966793E+03  0.17270779788E+03 0.  0.
        -24    2    3    3    0    0  0.55835336258E+02 -0.14297607354E+02  0.14721260058E+03  0.17760868291E+03  0.80940027948E+02 0.  0.
          6    2    1    2  501    0 -0.36466765809E+02  0.39656817987E+02  0.54658784143E+03  0.57562849638E+03  0.17230034598E+03 0.  0.
         24    2    5    5    0    0 -0.50449072195E+02  0.63307874350E+02  0.21885151760E+03  0.24670895407E+03  0.80101968894E+02 0.  0.
          5    1    5    5  501    0  0.13982306386E+02 -0.23651056363E+02  0.32773632383E+03  0.32891954231E+03  0.47000000000E+01 0. -1.
        -11    1    6    6    0    0 -0.57120504565E+02  0.74776667093E+01  0.10718374776E+03  0.12168411287E+03  0.00000000000E+00 0.  1.
         12    1    6    6    0    0  0.66714323701E+01  0.55830207641E+02  0.11166776985E+03  0.12502484120E+03  0.00000000000E+00 0. -1.
         -5    1    3    3    0  503 -0.19368570449E+02 -0.25359210633E+02 -0.24922616526E+02  0.40760985018E+02  0.47000000000E+01 0.  1.
         13    1    4    4    0    0  0.53078132025E+02  0.20285568686E+02  0.12242881183E+03  0.13497261338E+03  0.00000000000E+00 0. -1.
        -14    1    4    4    0    0  0.27572042337E+01 -0.34583176040E+02  0.24783788750E+02  0.42636069531E+02  0.00000000000E+00 0.  1.
</event>
<event>
12    1  0.8728348E-002  0.2265634E+03  0.7818608E-02  0.1129245E+00
         21   -1    0    0  501  502  0.00000000000E+00  0.00000000000E+00  0.43887235435E+03  0.43887235435E+03  0.00000000000E+00 0. -1.
         21   -1    0    0  502  503 -0.00000000000E+00 -0.00000000000E+00 -0.25725718130E+03  0.25725718130E+03  0.00000000000E+00 0.  1.
         -6    2    1    2    0  503  0.13113516302E+03  0.64825565217E+02 -0.16657560684E+03  0.28120885229E+03  0.17300925098E+03 0.  0.
        -24    2    3    3    0    0  0.85072941205E+02  0.66444708051E+02 -0.27702356296E+02  0.13481138094E+03  0.75857651773E+02 0.  0.
          6    2    1    2  501    0 -0.13113516302E+03 -0.64825565217E+02  0.34819077988E+03  0.41492068336E+03  0.17182423984E+03 0.  0.
         24    2    5    5    0    0  0.55012879274E+01 -0.18770497061E+02  0.16243953138E+03  0.17972670947E+03  0.74380730136E+02 0.  0.
          5    1    5    5  501    0 -0.13663645094E+03 -0.46055068157E+02  0.18575124851E+03  0.23519397389E+03  0.47000000000E+01 0. -1.
        -13    1    6    6    0    0  0.22996582445E+02  0.11572312003E+02  0.12815234621E+03  0.13071260478E+03  0.00000000000E+00 0.  1.
         14    1    6    6    0    0 -0.17495294518E+02 -0.30342809064E+02  0.34287185162E+02  0.49014104689E+02  0.00000000000E+00 0. -1.
         -5    1    3    3    0  503  0.46062221812E+02 -0.16191428337E+01 -0.13887325054E+03  0.14639747135E+03  0.47000000000E+01 0.  1.
         13    1    4    4    0    0  0.19409124003E+02 -0.16796286895E+02 -0.21801434842E+01  0.25760092655E+02  0.00000000000E+00 0. -1.
        -14    1    4    4    0    0  0.65663817202E+02  0.83240994946E+02 -0.25522212812E+02  0.10905128828E+03  0.00000000000E+00 0.  1.
</event>
<event>
12    1  0.8728348E-002  0.2335518E+03  0.7818608E-02  0.1124620E+00
         21   -1    0    0  501  502  0.00000000000E+00  0.00000000000E+00  0.25774602602E+03  0.25774602602E+03  0.00000000000E+00 0.  1.
         21   -1    0    0  502  503 -0.00000000000E+00 -0.00000000000E+00 -0.21228224809E+03  0.21228224809E+03  0.00000000000E+00 0.  1.
         -6    2    1    2    0  503  0.17163205225E+02 -0.15304363836E+03 -0.51896197570E+01  0.23360943199E+03  0.17558332411E+03 0.  0.
        -24    2    3    3    0    0  0.63977362168E+02 -0.14256469159E+03  0.23394670921E+02  0.17756904219E+03  0.81028760069E+02 0.  0.
          6    2    1    2  501    0 -0.17163205225E+02  0.15304363836E+03  0.50653397683E+02  0.23641884213E+03  0.17207896838E+03 0.  0.
         24    2    5    5    0    0 -0.29829633288E+02  0.89111112159E+02  0.92427844461E+02  0.15886240648E+03  0.88677846328E+02 0.  0.
          5    1    5    5  501    0  0.12666428063E+02  0.63932526200E+02 -0.41774446778E+02  0.77556435644E+02  0.47000000000E+01 0. -1.
        -11    1    6    6    0    0 -0.31380008399E+02  0.94303322984E+02  0.10536068557E+03  0.14484024205E+03  0.00000000000E+00 0.  1.
         12    1    6    6    0    0  0.15503751117E+01 -0.51922108256E+01 -0.12932841109E+02  0.14022164433E+02  0.00000000000E+00 0. -1.
         -5    1    3    3    0  503 -0.46814156943E+02 -0.10478946773E+02 -0.28584290677E+02  0.56040389803E+02  0.47000000000E+01 0.  1.
         13    1    4    4    0    0 -0.13708837628E+02 -0.29132352930E+02  0.23875954804E+02  0.40083505762E+02  0.00000000000E+00 0. -1.
        -14    1    4    4    0    0  0.77686199795E+02 -0.11343233866E+03 -0.48128388398E+00  0.13748553642E+03  0.00000000000E+00 0.  1.
</event>
<event>
12    1  0.8728348E-002  0.3607805E+03  0.7818608E-02  0.1058347E+00
         21   -1    0    0  501  502  0.00000000000E+00  0.00000000000E+00  0.75862042221E+02  0.75862042221E+02  0.00000000000E+00 0.  1.
         21   -1    0    0  502  503 -0.00000000000E+00 -0.00000000000E+00 -0.19753265274E+04  0.19753265274E+04  0.00000000000E+00 0.  1.
         -6    2    1    2    0  503  0.28475912506E+03 -0.13921019681E+03 -0.13231191027E+04  0.13712352184E+04  0.17080581333E+03 0.  0.
        -24    2    3    3    0    0  0.20292378020E+03 -0.52551259972E+02 -0.65563292253E+03  0.69317424340E+03  0.81830966741E+02 0.  0.
          6    2    1    2  501    0 -0.28475912506E+03  0.13921019681E+03 -0.57634538247E+03  0.67995335128E+03  0.17232330609E+03 0.  0.
         24    2    5    5    0    0 -0.16679176163E+03  0.56656831726E+02 -0.44422992470E+03  0.48448483437E+03  0.79723524799E+02 0.  0.
          5    1    5    5  501    0 -0.11796736343E+03  0.82553365088E+02 -0.13211545777E+03  0.19546851691E+03  0.47000000000E+01 0. -1.
        -13    1    6    6    0    0 -0.31404203566E+02  0.12197401081E+02 -0.19068922953E+03  0.19364240975E+03  0.00000000000E+00 0.  1.
         14    1    6    6    0    0 -0.13538755806E+03  0.44459430645E+02 -0.25354069517E+03  0.29084242462E+03  0.00000000000E+00 0. -1.
         -5    1    3    3    0  503  0.81835344855E+02 -0.86658936841E+02 -0.66748618022E+03  0.67806097497E+03  0.47000000000E+01 0.  1.
         13    1    4    4    0    0  0.18772534071E+03 -0.67631531952E+02 -0.54247494972E+03  0.57800856285E+03  0.00000000000E+00 0. -1.
        -14    1    4    4    0    0  0.15198439488E+02  0.15080271980E+02 -0.11315797281E+03  0.11516568055E+03  0.00000000000E+00 0.  1.
</event>
<event>
12    1  0.8728348E-002  0.1989933E+03  0.7818608E-02  0.1151003E+00
         21   -1    0    0  501  502  0.00000000000E+00  0.00000000000E+00  0.32004179317E+03  0.32004179317E+03  0.00000000000E+00 0.  1.
         21   -1    0    0  502  503 -0.00000000000E+00 -0.00000000000E+00 -0.12363205274E+03  0.12363205274E+03  0.00000000000E+00 0.  1.
         -6    2    1    2    0  503  0.79669304057E+02  0.60312199182E+02  0.77738396702E+02  0.21363896789E+03  0.17208599856E+03 0.  0.
        -24    2    3    3    0    0 -0.23112710541E+02  0.44095438714E+02  0.27727663770E+02  0.98095516088E+02  0.79845487253E+02 0.  0.
          6    2    1    2  501    0 -0.79669304057E+02 -0.60312199182E+02  0.11867134373E+03  0.23003487802E+03  0.16984816132E+03 0.  0.
         24    2    5    5    0    0 -0.45621551111E+02 -0.49190875733E+02 -0.15902183267E+01  0.10446471188E+03  0.80057973071E+02 0.  0.
          5    1    5    5  501    0 -0.34047752946E+02 -0.11121323448E+02  0.12026156206E+03  0.12557016614E+03  0.47000000000E+01 0. -1.
        -13    1    6    6    0    0 -0.45916282902E+02  0.85095898223E+01  0.94663235810E+00  0.46707753825E+02  0.00000000000E+00 0.  1.
         14    1    6    6    0    0  0.29473179126E+00 -0.57700465556E+02 -0.25368506847E+01  0.57756958053E+02  0.00000000000E+00 0. -1.
         -5    1    3    3    0  503  0.10278201460E+03  0.16216760468E+02  0.50010732932E+02  0.11554345180E+03  0.47000000000E+01 0.  1.
         13    1    4    4    0    0  0.14461757117E+02 -0.17019115674E+02  0.74490635241E+01  0.23543178729E+02  0.00000000000E+00 0. -1.
        -14    1    4    4    0    0 -0.37574467659E+02  0.61114554388E+02  0.20278600246E+02  0.74552337360E+02  0.00000000000E+00 0.  1.
</event>
<event>
12    1  0.8728348E-002  0.1842584E+03  0.7818608E-02  0.1164052E+00
         21   -1    0    0  501  502  0.00000000000E+00  0.00000000000E+00  0.21013950918E+04  0.21013950918E+04  0.00000000000E+00 0.  1.
         21   -1    0    0  502  503 -0.00000000000E+00 -0.00000000000E+00 -0.21412287588E+02  0.21412287588E+02  0.00000000000E+00 0.  1.
         -6    2    1    2    0  503  0.63029071773E+02 -0.14402641490E+02  0.51121415179E+03  0.54340689373E+03  0.17254287348E+03 0.  0.
        -24    2    3    3    0    0  0.23576039779E+02  0.31162160505E+02  0.44544104416E+03  0.45407109686E+03  0.78967887671E+02 0.  0.
          6    2    1    2  501    0 -0.63029071773E+02  0.14402641490E+02  0.15687686524E+04  0.15794004857E+04  0.17114528715E+03 0.  0.
         24    2    5    5    0    0 -0.72478605029E+02  0.40524849152E+02  0.66520257087E+03  0.67539527708E+03  0.82273376151E+02 0.  0.
          5    1    5    5  501    0  0.94495332561E+01 -0.26122207661E+02  0.90356608154E+03  0.90400520857E+03  0.47000000000E+01 0. -1.
        -11    1    6    6    0    0 -0.50192433378E+01 -0.20836165361E+02  0.68791159899E+02  0.72052496631E+02  0.00000000000E+00 0.  1.
         12    1    6    6    0    0 -0.67459361691E+02  0.61361014512E+02  0.59641141098E+03  0.60334278045E+03  0.00000000000E+00 0. -1.
         -5    1    3    3    0  503  0.39453031994E+02 -0.45564801995E+02  0.65773107629E+02  0.89335796865E+02  0.47000000000E+01 0.  1.
         11    1    4    4    0    0 -0.11079197916E+02 -0.21598758319E+02  0.99523878792E+02  0.10244148299E+03  0.00000000000E+00 0. -1.
        -12    1    4    4    0    0  0.34655237695E+02  0.52760918824E+02  0.34591716537E+03  0.35162961387E+03  0.00000000000E+00 0.  1.
</event>
<event>
12    1  0.8728348E-002  0.1907815E+03  0.7818608E-02  0.1157984E+00
         21   -1    0    0  503  502  0.00000000000E+00  0.00000000000E+00  0.32812190462E+03  0.32812190462E+03  0.00000000000E+00 0. -1.
         21   -1    0    0  501  503 -0.00000000000E+00 -0.00000000000E+00 -0.11057658944E+03  0.11057658944E+03  0.00000000000E+00 0. -1.
          6    2    1    2  501    0  0.25268275270E+02  0.76534846113E+02  0.99004362096E+02  0.21494059451E+03  0.17292058018E+03 0.  0.
         24    2    3    3    0    0 -0.13853668265E+01  0.47856388979E+02  0.13592530830E+03  0.16092099798E+03  0.71608134646E+02 0.  0.
         -6    2    1    2    0  502 -0.25268275270E+02 -0.76534846113E+02  0.11854095309E+03  0.22375789956E+03  0.17181260621E+03 0.  0.
        -24    2    5    5    0    0 -0.62247334186E+02 -0.68921776662E+02  0.13596657693E+03  0.18191113157E+03  0.77329217223E+02 0.  0.
          5    1    3    3  501    0  0.26653642097E+02  0.28678457134E+02 -0.36920946201E+02  0.54019596528E+02  0.47000000000E+01 0. -1.
        -11    1    4    4    0    0  0.21452900509E+02 -0.65844237984E+01  0.64285481800E+02  0.68089681651E+02  0.00000000000E+00 0.  1.
         12    1    4    4    0    0 -0.22838267335E+02  0.54440812777E+02  0.71639826497E+02  0.92831316329E+02  0.00000000000E+00 0. -1.
         -5    1    5    5    0  502  0.36979058915E+02 -0.76130694506E+01 -0.17425623841E+02  0.41846767987E+02  0.47000000000E+01 0.  1.
         11    1    6    6    0    0  0.13767082170E+02 -0.28689745710E+02  0.56337991478E+02  0.64703966990E+02  0.00000000000E+00 0. -1.
        -12    1    6    6    0    0 -0.76014416356E+02 -0.40232030952E+02  0.79628585451E+02  0.11720716458E+03  0.00000000000E+00 0.  1.
</event>
<event>
12    1  0.8728348E-002  0.1805823E+03  0.7818608E-02  0.1168266E+00
         21   -1    0    0  501  502  0.00000000000E+00  0.00000000000E+00  0.96702198550E+01  0.96702198550E+01  0.00000000000E+00 0.  1.
         21   -1    0    0  502  503 -0.00000000000E+00 -0.00000000000E+00 -0.33004114813E+04  0.33004114813E+04  0.00000000000E+00 0.  1.
         -6    2    1    2    0  503  0.23037010047E+02  0.43165623617E+02 -0.15929548530E+04  0.16031578671E+04  0.17382752476E+03 0.  0.
        -24    2    3    3    0    0  0.12020588103E+01  0.78608168401E+01 -0.33041356188E+03  0.33992558593E+03  0.79454670810E+02 0.  0.
          6    2    1    2  501    0 -0.23037010047E+02 -0.43165623617E+02 -0.16977864085E+04  0.17069238341E+04  0.16945887865E+03 0.  0.
         24    2    5    5    0    0 -0.23264025587E+02 -0.33616545557E+02 -0.43572052693E+03  0.44481305611E+03  0.79592652159E+02 0.  0.
          5    1    5    5  501    0  0.22701554040E+00 -0.95490780593E+01 -0.12620658816E+04  0.12621107780E+04  0.47000000000E+01 0. -1.
        -11    1    6    6    0    0  0.55163838493E+01 -0.53863482527E+02 -0.25162335442E+03  0.25738301757E+03  0.00000000000E+00 0.  1.
         12    1    6    6    0    0 -0.28780409437E+02  0.20246936969E+02 -0.18409717250E+03  0.18743003854E+03  0.00000000000E+00 0. -1.
         -5    1    3    3    0  503  0.21834951237E+02  0.35304806777E+02 -0.12625412911E+04  0.12632322812E+04  0.47000000000E+01 0.  1.
         13    1    4    4    0    0  0.57710979658E+00  0.43682074674E+02 -0.19696712848E+03  0.20175357842E+03  0.00000000000E+00 0. -1.
        -14    1    4    4    0    0  0.62494901373E+00 -0.35821257834E+02 -0.13344643339E+03  0.13817200751E+03  0.00000000000E+00 0.  1.
</event>
<event>
12    1  0.8728348E-002  0.1937462E+03  0.7818608E-02  0.1155580E+00
         21   -1    0    0  503  502  0.00000000000E+00  0.00000000000E+00  0.41159236501E+02  0.41159236501E+02  0.00000000000E+00 0. -1.
         21   -1    0    0  501  503 -0.00000000000E+00 -0.00000000000E+00 -0.16791875722E+04  0.16791875722E+04  0.00000000000E+00 0. -1.
          6    2    1    2  501    0  0.70584929637E+02  0.51819277087E+02 -0.14064208113E+04  0.14197031642E+04  0.17282970319E+03 0.  0.
         24    2    3    3    0    0  0.33974198043E+02  0.79608248850E+02 -0.12744559182E+04  0.12798840109E+04  0.79834044019E+02 0.  0.
         -6    2    1    2    0  502 -0.70584929637E+02 -0.51819277087E+02 -0.23160752437E+03  0.30064364444E+03  0.17052004524E+03 0.  0.
        -24    2    5    5    0    0 -0.20518651456E+02 -0.42105953527E+02 -0.23063715731E+03  0.24941852875E+03  0.82596475529E+02 0.  0.
          5    1    3    3  501    0  0.36610731594E+02 -0.27788971763E+02 -0.13196489313E+03  0.13981915333E+03  0.47000000000E+01 0. -1.
        -11    1    4    4    0    0  0.57172507387E+02  0.47535094680E+02 -0.66492557448E+03  0.66906972762E+03  0.00000000000E+00 0.  1.
         12    1    4    4    0    0 -0.23198309344E+02  0.32073154170E+02 -0.60953034371E+03  0.61081428329E+03  0.00000000000E+00 0. -1.
         -5    1    5    5    0  502 -0.50066278181E+02 -0.97133235604E+01 -0.97036705951E+00  0.51225115693E+02  0.47000000000E+01 0.  1.
         13    1    6    6    0    0  0.62153445492E+01 -0.44053466972E+01  0.51167617172E+01  0.91770822083E+01  0.00000000000E+00 0. -1.
        -14    1    6    6    0    0 -0.26733996006E+02 -0.37700606830E+02 -0.23575391903E+03  0.24024144654E+03  0.00000000000E+00 0.  1.
</event>
<event>
12    1  0.8728348E-002  0.1926295E+03  0.7818608E-02  0.1165458E+00
         21   -1    0    0  501  502  0.00000000000E+00  0.00000000000E+00  0.31071552954E+03  0.31071552954E+03  0.00000000000E+00 0.  1.
         21   -1    0    0  502  503 -0.00000000000E+00 -0.00000000000E+00 -0.22669447690E+03  0.22669447690E+03  0.00000000000E+00 0.  1.
         -6    2    1    2    0  503 -0.11597082229E+02 -0.12722366158E+02 -0.15858593685E+03  0.24951076305E+03  0.19185872561E+03 0.  0.
        -24    2    3    3    0    0 -0.34349640838E+02  0.34220523347E+02 -0.11271190187E+02  0.93161671639E+02  0.78747160524E+02 0.  0.
          6    2    1    2  501    0  0.11597082229E+02  0.12722366158E+02  0.24260698949E+03  0.28789924339E+03  0.15405022584E+03 0.  0.
         24    2    5    5    0    0  0.68571042856E+01  0.55047034298E+02  0.21830546223E+03  0.23863973516E+03  0.78831798759E+02 0.  0.
          5    1    5    5  501    0  0.47399779437E+01 -0.42324668140E+02  0.24301527260E+02  0.49259508232E+02  0.47000000000E+01 0. -1.
        -11    1    6    6    0    0  0.23185050535E+02 -0.12293392416E+02  0.75059932624E+02  0.79515203269E+02  0.00000000000E+00 0.  1.
         12    1    6    6    0    0 -0.16327946249E+02  0.67340426714E+02  0.14324552960E+03  0.15912453189E+03  0.00000000000E+00 0. -1.
         -5    1    3    3    0  503  0.22752558609E+02 -0.46942889505E+02 -0.14731474667E+03  0.15634909141E+03  0.47000000000E+01 0.  1.
         13    1    4    4    0    0 -0.32056217311E+01  0.54777928458E+02 -0.10313045511E+02  0.55832395296E+02  0.00000000000E+00 0. -1.
        -14    1    4    4    0    0 -0.31144019107E+02 -0.20557405111E+02 -0.95814467581E+00  0.37329276342E+02  0.00000000000E+00 0.  1.
</event>
<event>
12    1  0.8728348E-002  0.2025500E+03  0.7818608E-02  0.1149300E+00
         21   -1    0    0  501  502  0.00000000000E+00  0.00000000000E+00  0.36196546968E+03  0.36196546968E+03  0.00000000000E+00 0. -1.
         21   -1    0    0  502  503 -0.00000000000E+00 -0.00000000000E+00 -0.17552849606E+03  0.17552849606E+03  0.00000000000E+00 0. -1.
         -6    2    1    2    0  503  0.85006050136E+02  0.21981288012E+02 -0.73484554685E+02  0.20797053353E+03  0.17361612096E+03 0.  0.
        -24    2    3    3    0    0  0.12060466928E+03  0.18968947791E+02 -0.28594048372E+02  0.15040679985E+03  0.83061896234E+02 0.  0.
          6    2    1    2  501    0 -0.85006050136E+02 -0.21981288012E+02  0.25992152831E+03  0.32952343221E+03  0.18253023287E+03 0.  0.
         24    2    5    5    0    0 -0.72747807396E+02  0.33860123880E+02  0.64479989685E+02  0.12583736784E+03  0.72378329661E+02 0.  0.
          5    1    5    5  501    0 -0.12258242740E+02 -0.55841411892E+02  0.19544153863E+03  0.20368606437E+03  0.47000000000E+01 0. -1.
        -13    1    6    6    0    0 -0.85398016635E+01  0.50885726639E+01 -0.16063120969E+02  0.18890358373E+02  0.00000000000E+00 0.  1.
         14    1    6    6    0    0 -0.64208005732E+02  0.28771551216E+02  0.80543110654E+02  0.10694700946E+03  0.00000000000E+00 0. -1.
         -5    1    3    3    0  503 -0.35598619143E+02  0.30123402213E+01 -0.44890506313E+02  0.57563733684E+02  0.47000000000E+01 0.  1.
         11    1    4    4    0    0  0.65663693659E+02  0.48679368537E+02 -0.64627715685E-01  0.81739866423E+02  0.00000000000E+00 0. -1.
        -12    1    4    4    0    0  0.54940975620E+02 -0.29710420746E+02 -0.28529420656E+02  0.68666933425E+02  0.00000000000E+00 0.  1.
</event>
<event>
12    1  0.8728348E-002  0.1995255E+03  0.7818608E-02  0.1150577E+00
         21   -1    0    0  501  502  0.00000000000E+00  0.00000000000E+00  0.32950212790E+03  0.32950212790E+03  0.00000000000E+00 0. -1.
         21   -1    0    0  502  503 -0.00000000000E+00 -0.00000000000E+00 -0.13257301029E+03  0.13257301029E+03  0.00000000000E+00 0.  1.
         -6    2    1    2    0  503 -0.96306892332E+02  0.18907748703E+02  0.17033714619E+03  0.26078544705E+03  0.17135281015E+03 0.  0.
        -24    2    3    3    0    0 -0.50149508985E+02  0.99954970777E+01  0.11745587979E+02  0.95306431450E+02  0.79564274806E+02 0.  0.
          6    2    1    2  501    0  0.96306892332E+02 -0.18907748703E+02  0.26591971421E+02  0.20128969115E+03  0.17371783544E+03 0.  0.
         24    2    5    5    0    0  0.65687046230E+02  0.38223347628E+02  0.62972949441E+02  0.12681014560E+03  0.79620401410E+02 0.  0.
          5    1    5    5  501    0  0.30619846102E+02 -0.57131096331E+02 -0.36380978020E+02  0.74479545548E+02  0.47000000000E+01 0. -1.
        -13    1    6    6    0    0  0.56231293736E+01  0.45075218053E+02  0.10183432284E+02  0.46552090818E+02  0.00000000000E+00 0.  1.
         14    1    6    6    0    0  0.60063916857E+02 -0.68518704246E+01  0.52789517157E+02  0.80258054787E+02  0.00000000000E+00 0. -1.
         -5    1    3    3    0  503 -0.46157383347E+02  0.89122516251E+01  0.15859155821E+03  0.16547901560E+03  0.47000000000E+01 0.  1.
         13    1    4    4    0    0  0.12611183468E+02  0.14422471851E+02  0.24508708454E+02  0.31108301671E+02  0.00000000000E+00 0. -1.
        -14    1    4    4    0    0 -0.62760692453E+02 -0.44269747731E+01 -0.12763120475E+02  0.64198129779E+02  0.00000000000E+00 0.  1.
</event>
<event>
12    1  0.8728348E-002  0.1960361E+03  0.7818608E-02  0.1153317E+00
         21   -1    0    0  503  502  0.00000000000E+00  0.00000000000E+00  0.47818732603E+02  0.47818732603E+02  0.00000000000E+00 0.  1.
         21   -1    0    0  501  503 -0.00000000000E+00 -0.00000000000E+00 -0.93182405655E+03  0.93182405655E+03  0.00000000000E+00 0.  1.
          6    2    1    2  501    0 -0.84933897042E+01 -0.94664609797E+02 -0.62702755869E+03  0.65695791542E+03  0.17145441744E+03 0.  0.
         24    2    3    3    0    0 -0.71555877929E+02 -0.46403013658E+02 -0.35779196748E+03  0.37621612541E+03  0.79056926857E+02 0.  0.
         -6    2    1    2    0  502  0.84933897042E+01  0.94664609797E+02 -0.25697776525E+03  0.32268487373E+03  0.17045360038E+03 0.  0.
        -24    2    5    5    0    0 -0.27987445439E+02 -0.11622596403E+02 -0.88379490952E+02  0.12001447719E+03  0.75327010199E+02 0.  0.
          5    1    3    3  501    0  0.63062488224E+02 -0.48261596139E+02 -0.26923559121E+03  0.28074179001E+03  0.47000000000E+01 0. -1.
        -11    1    4    4    0    0 -0.29027589261E+02 -0.63012317775E+02 -0.24199506264E+03  0.25174344773E+03  0.00000000000E+00 0.  1.
         12    1    4    4    0    0 -0.42528288668E+02  0.16609304117E+02 -0.11579690484E+03  0.12447267769E+03  0.00000000000E+00 0. -1.
         -5    1    5    5    0  502  0.36480835143E+02  0.10628720620E+03 -0.16859827430E+03  0.20267039653E+03  0.47000000000E+01 0.  1.
         13    1    6    6    0    0  0.89739223819E+01  0.15958064855E+02 -0.66491978511E+02  0.68966472457E+02  0.00000000000E+00 0. -1.
        -14    1    6    6    0    0 -0.36961367821E+02 -0.27580661258E+02 -0.21887512441E+02  0.51048004735E+02  0.00000000000E+00 0.  1.
</event>
<event>
12    1  0.8728348E-002  0.1763055E+03  0.7818608E-02  0.1172033E+00
         21   -1    0    0  501  502  0.00000000000E+00  0.00000000000E+00  0.15806226132E+03  0.15806226132E+03  0.00000000000E+00 0.  1.
         21   -1    0    0  502  503 -0.00000000000E+00 -0.00000000000E+00 -0.26888341364E+03  0.26888341364E+03  0.00000000000E+00 0.  1.
         -6    2    1    2    0  503  0.14915127624E+02 -0.27037981181E+02  0.57546197896E+02  0.18316057057E+03  0.17112193390E+03 0.  0.
        -24    2    3    3    0    0  0.43055201326E+02  0.25662494498E+02  0.75557584233E+02  0.12058498490E+03  0.79495132320E+02 0.  0.
          6    2    1    2  501    0 -0.14915127624E+02  0.27037981181E+02 -0.16836735021E+03  0.24378510438E+03  0.17358023805E+03 0.  0.
         24    2    5    5    0    0 -0.38238267791E+02  0.69765617887E+02 -0.64261968778E+02  0.12876493115E+03  0.78239378200E+02 0.  0.
          5    1    5    5  501    0  0.23323140167E+02 -0.42727636707E+02 -0.10410538143E+03  0.11502017323E+03  0.47000000000E+01 0. -1.
        -13    1    6    6    0    0 -0.11410734652E+02  0.69511996051E+02 -0.72115291573E+02  0.10081040491E+03  0.00000000000E+00 0.  1.
         14    1    6    6    0    0 -0.26827533140E+02  0.25362183660E+00  0.78533227952E+01  0.27954526240E+02  0.00000000000E+00 0. -1.
         -5    1    3    3    0  503 -0.28140073702E+02 -0.52700475679E+02 -0.18011386337E+02  0.62575585675E+02  0.47000000000E+01 0.  1.
         11    1    4    4    0    0  0.43007405787E+02  0.60403426316E+01  0.94971973775E+00  0.43439897090E+02  0.00000000000E+00 0. -1.
        -12    1    4    4    0    0  0.47795539128E-01  0.19622151867E+02  0.74607864495E+02  0.77145087808E+02  0.00000000000E+00 0.  1.
</event>
<event>
12    1  0.8728348E-002  0.2344026E+03  0.7818608E-02  0.1124002E+00
         21   -1    0    0  501  502  0.00000000000E+00  0.00000000000E+00  0.26166548303E+03  0.26166548303E+03  0.00000000000E+00 0.  1.
         21   -1    0    0  502  503 -0.00000000000E+00 -0.00000000000E+00 -0.20999918007E+03  0.20999918007E+03  0.00000000000E+00 0. -1.
         -6    2    1    2    0  503  0.13016375763E+03 -0.87073161356E+02  0.15225176339E+01  0.23195866442E+03  0.17110863423E+03 0.  0.
        -24    2    3    3    0    0  0.12384906589E+03 -0.51084076111E+02 -0.54188370803E+02  0.16516882478E+03  0.79976166410E+02 0.  0.
          6    2    1    2  501    0 -0.13016375763E+03  0.87073161356E+02  0.50143785320E+02  0.23970599869E+03  0.17441395406E+03 0.  0.
         24    2    5    5    0    0 -0.15812501185E+02 -0.12472560957E+02  0.98391654469E+01  0.82759787951E+02  0.79666638905E+02 0.  0.
          5    1    5    5  501    0 -0.11435125645E+03  0.99545722314E+02  0.40304619874E+02  0.15694621074E+03  0.47000000000E+01 0. -1.
        -11    1    6    6    0    0 -0.38248063812E+02  0.19502079942E+02  0.24228610915E+01  0.43001346064E+02  0.00000000000E+00 0.  1.
         12    1    6    6    0    0  0.22435562626E+02 -0.31974640899E+02  0.74163043555E+01  0.39758441887E+02  0.00000000000E+00 0. -1.
         -5    1    3    3    0  503  0.63146917411E+01 -0.35989085245E+02  0.55710888437E+02  0.66789839639E+02  0.47000000000E+01 0.  1.
         13    1    4    4    0    0  0.50028793867E+02 -0.59335293577E+02 -0.87745205651E+01  0.78106014434E+02  0.00000000000E+00 0. -1.
        -14    1    4    4    0    0  0.73820272023E+02  0.82512174652E+01 -0.45413850238E+02  0.87062810342E+02  0.00000000000E+00 0.  1.
</event>
<event>
12    1  0.8728348E-002  0.2729577E+03  0.7818608E-02  0.1100333E+00
         21   -1    0    0  503  502  0.00000000000E+00  0.00000000000E+00  0.81305546632E+03  0.81305546632E+03  0.00000000000E+00 0. -1.
         21   -1    0    0  501  503 -0.00000000000E+00 -0.00000000000E+00 -0.17031517590E+03  0.17031517590E+03  0.00000000000E+00 0.  1.
          6    2    1    2  501    0 -0.21072242476E+03  0.10312892884E+02 -0.14828425620E+02  0.27336022489E+03  0.17319247759E+03 0.  0.
         24    2    3    3    0    0 -0.22071576840E+03 -0.25055863658E+02 -0.10451460807E+02  0.23604985532E+03  0.79164729785E+02 0.  0.
         -6    2    1    2    0  502  0.21072242476E+03 -0.10312892884E+02  0.65756871604E+03  0.71001041733E+03  0.16494811408E+03 0.  0.
        -24    2    5    5    0    0  0.10184825699E+03  0.55251200012E+02  0.38713834678E+03  0.41116780105E+03  0.75875546237E+02 0.  0.
          5    1    3    3  501    0  0.99933436420E+01  0.35368756542E+02 -0.43769648127E+01  0.37310369570E+02  0.47000000000E+01 0. -1.
        -11    1    4    4    0    0 -0.88915688781E+02 -0.48086355642E+02  0.58981328712E+01  0.10125751963E+03  0.00000000000E+00 0.  1.
         12    1    4    4    0    0 -0.13180007962E+03  0.23030491984E+02 -0.16349593678E+02  0.13479233569E+03  0.00000000000E+00 0. -1.
         -5    1    5    5    0  502  0.10887416776E+03 -0.65564092896E+02  0.27043036926E+03  0.29884261628E+03  0.47000000000E+01 0.  1.
         13    1    6    6    0    0  0.60269116491E+02 -0.13886041544E+01  0.11193707690E+03  0.12713852213E+03  0.00000000000E+00 0. -1.
        -14    1    6    6    0    0  0.41579140504E+02  0.56639804166E+02  0.27520126988E+03  0.28402927892E+03  0.00000000000E+00 0.  1.
</event>
<event>
12    1  0.8728348E-002  0.1833134E+03  0.7818608E-02  0.1165471E+00
         21   -1    0    0  503  502  0.00000000000E+00  0.00000000000E+00  0.10578990629E+03  0.10578990629E+03  0.00000000000E+00 0.  1.
         21   -1    0    0  501  503 -0.00000000000E+00 -0.00000000000E+00 -0.44093678631E+03  0.44093678631E+03  0.00000000000E+00 0.  1.
          6    2    1    2  501    0 -0.21867500929E+02  0.56555697391E+02 -0.31447482369E+03  0.36225137963E+03  0.16927762051E+03 0.  0.
         24    2    3    3    0    0  0.47707636293E+02  0.74869450416E+01 -0.22189521212E+03  0.23638829268E+03  0.65649576170E+02 0.  0.
         -6    2    1    2    0  502  0.21867500929E+02 -0.56555697391E+02 -0.20672056328E+02  0.18447531297E+03  0.17299442961E+03 0.  0.
        -24    2    5    5    0    0 -0.16113538262E+02 -0.14578110696E+02 -0.68177430005E+02  0.11042446793E+03  0.84102519158E+02 0.  0.
          5    1    3    3  501    0 -0.69575137222E+02  0.49068752349E+02 -0.92579611572E+02  0.12586308695E+03  0.47000000000E+01 0. -1.
        -13    1    4    4    0    0  0.37967390496E+02  0.31971930989E+02 -0.99558879579E+02  0.11124611281E+03  0.00000000000E+00 0.  1.
         14    1    4    4    0    0  0.97402457967E+01 -0.24484985948E+02 -0.12233633254E+03  0.12514217987E+03  0.00000000000E+00 0. -1.
         -5    1    5    5    0  502  0.37981039191E+02 -0.41977586695E+02  0.47505373676E+02  0.74050845038E+02  0.47000000000E+01 0.  1.
         13    1    6    6    0    0  0.23928305717E+02  0.17530705094E+02 -0.45493018256E+02  0.54309337555E+02  0.00000000000E+00 0. -1.
        -14    1    6    6    0    0 -0.40041843978E+02 -0.32108815790E+02 -0.22684411749E+02  0.56115130375E+02  0.00000000000E+00 0.  1.
</event>
<event>
12    1  0.8728348E-002  0.1884268E+03  0.7818608E-02  0.1160863E+00
         21   -1    0    0  503  502  0.00000000000E+00  0.00000000000E+00  0.36290980491E+03  0.36290980491E+03  0.00000000000E+00 0.  1.
         21   -1    0    0  501  503 -0.00000000000E+00 -0.00000000000E+00 -0.16581375742E+03  0.16581375742E+03  0.00000000000E+00 0. -1.
          6    2    1    2  501    0  0.61248824562E+02  0.29553721364E+02 -0.74054186834E+02  0.19853101392E+03  0.17118907659E+03 0.  0.
         24    2    3    3    0    0  0.78464571914E+02 -0.15720737611E+02 -0.91881596215E+02  0.14670375162E+03  0.81706379062E+02 0.  0.
         -6    2    1    2    0  502 -0.61248824562E+02 -0.29553721364E+02  0.27115023432E+03  0.33019254841E+03  0.17572657310E+03 0.  0.
        -24    2    5    5    0    0  0.32870059751E+02 -0.35703710206E+02  0.15421153709E+03  0.17988308211E+03  0.78876671513E+02 0.  0.
          5    1    3    3  501    0 -0.17215747351E+02  0.45274458975E+02  0.17827409381E+02  0.51827262301E+02  0.47000000000E+01 0. -1.
        -11    1    4    4    0    0  0.78931913543E+02 -0.19215449531E+02 -0.32947427667E+02  0.87664208581E+02  0.00000000000E+00 0.  1.
         12    1    4    4    0    0 -0.46734162979E+00  0.34947119205E+01 -0.58934168548E+02  0.59039543037E+02  0.00000000000E+00 0. -1.
         -5    1    5    5    0  502 -0.94118884314E+02  0.61499888424E+01  0.11693869723E+03  0.15030946629E+03  0.47000000000E+01 0.  1.
         11    1    6    6    0    0  0.50286268512E+02 -0.40859804749E+02  0.77338558711E+02  0.10089343442E+03  0.00000000000E+00 0. -1.
        -12    1    6    6    0    0 -0.17416208761E+02  0.51560945429E+01  0.76872978378E+02  0.78989647697E+02  0.00000000000E+00 0.  1.
</event>
<event>
12    1  0.8728348E-002  0.2736183E+03  0.7818608E-02  0.1099486E+00
         21   -1    0    0  503  502  0.00000000000E+00  0.00000000000E+00  0.12158002196E+03  0.12158002196E+03  0.00000000000E+00 0.  1.
         21   -1    0    0  501  503 -0.00000000000E+00 -0.00000000000E+00 -0.63459340888E+03  0.63459340888E+03  0.00000000000E+00 0. -1.
          6    2    1    2  501    0 -0.21006606364E+03  0.30338619530E+02 -0.32922165862E+03  0.42808162775E+03  0.17268119926E+03 0.  0.
         24    2    3    3    0    0 -0.10008981289E+03  0.32815499411E+01 -0.27273791076E+03  0.30143501501E+03  0.80301687998E+02 0.  0.
         -6    2    1    2    0  502  0.21006606364E+03 -0.30338619530E+02 -0.18379172830E+03  0.32809180309E+03  0.16975467280E+03 0.  0.
        -24    2    5    5    0    0  0.61201431919E+02 -0.45899185162E+02 -0.14034885500E+03  0.17216815825E+03  0.63966578368E+02 0.  0.
          5    1    3    3  501    0 -0.10997625075E+03  0.27057069589E+02 -0.56483747866E+02  0.12664661274E+03  0.47000000000E+01 0. -1.
        -11    1    4    4    0    0 -0.12579446511E+02  0.26326782699E+02 -0.12353382830E+03  0.12693285113E+03  0.00000000000E+00 0.  1.
         12    1    4    4    0    0 -0.87510366378E+02 -0.23045232757E+02 -0.14920408246E+03  0.17450216388E+03  0.00000000000E+00 0. -1.
         -5    1    5    5    0  502  0.14886463172E+03  0.15560565632E+02 -0.43442873295E+02  0.15592364484E+03  0.47000000000E+01 0.  1.
         11    1    6    6    0    0  0.43990172704E+02 -0.61884851789E+02 -0.11267089773E+03  0.13586611561E+03  0.00000000000E+00 0. -1.
        -12    1    6    6    0    0  0.17211259215E+02  0.15985666627E+02 -0.27677957272E+02  0.36302042643E+02  0.00000000000E+00 0.  1.
</event>
<event>
12    1  0.8728348E-002  0.1982311E+03  0.7818608E-02  0.1153231E+00
         21   -1    0    0  503  502  0.00000000000E+00  0.00000000000E+00  0.87514603896E+03  0.87514603896E+03  0.00000000000E+00 0.  1.
         21   -1    0    0  501  503 -0.00000000000E+00 -0.00000000000E+00 -0.46267867560E+02  0.46267867560E+02  0.00000000000E+00 0. -1.
          6    2    1    2  501    0 -0.43740512232E+02  0.85052770002E+02  0.54836799430E+03  0.58309778577E+03  0.17363284397E+03 0.  0.
         24    2    3    3    0    0 -0.78419728294E+02  0.39629411777E+02  0.48758884716E+03  0.49953867959E+03  0.63842497335E+02 0.  0.
         -6    2    1    2    0  502  0.43740512232E+02 -0.85052770002E+02  0.28051017710E+03  0.33831612075E+03  0.16317056109E+03 0.  0.
        -24    2    5    5    0    0 -0.24792788431E+02 -0.69658516500E+02  0.87434099159E+02  0.13280636863E+03  0.67274204380E+02 0.  0.
          5    1    3    3  501    0  0.34679216062E+02  0.45423358225E+02  0.60779147138E+02  0.83559106182E+02  0.47000000000E+01 0. -1.
        -11    1    4    4    0    0 -0.38243625526E+02  0.50682525229E+02  0.35238951693E+03  0.35806377211E+03  0.00000000000E+00 0.  1.
         12    1    4    4    0    0 -0.40176102768E+02 -0.11053113452E+02  0.13519933023E+03  0.14147490747E+03  0.00000000000E+00 0. -1.
         -5    1    5    5    0  502  0.68533300663E+02 -0.15394253501E+02  0.19307607795E+03  0.20550975212E+03  0.47000000000E+01 0.  1.
         13    1    6    6    0    0  0.42287545204E+01 -0.60770397228E+02  0.81710687857E+02  0.10191938017E+03  0.00000000000E+00 0. -1.
        -14    1    6    6    0    0 -0.29021542952E+02 -0.88881192719E+01  0.57234113013E+01  0.30886988465E+02  0.00000000000E+00 0.  1.
</event>
<event>
12    1  0.8728348E-002  0.2168139E+03  0.7818608E-02  0.1136348E+00
         21   -1    0    0  503  502  0.00000000000E+00  0.00000000000E+00  0.87710914910E+02  0.87710914910E+02  0.00000000000E+00 0. -1.
         21   -1    0    0  501  503 -0.00000000000E+00 -0.00000000000E+00 -0.58441905906E+03  0.58441905906E+03  0.00000000000E+00 0. -1.
          6    2    1    2  501    0 -0.47160958726E+02 -0.12258711123E+03 -0.34582484386E+03  0.40798223080E+03  0.17205499745E+03 0.  0.
         24    2    3    3    0    0 -0.15098018094E+02 -0.86157636600E+02 -0.34071700871E+03  0.35895857566E+03  0.71498884741E+02 0.  0.
         -6    2    1    2    0  502  0.47160958726E+02  0.12258711123E+03 -0.15088330028E+03  0.26414774317E+03  0.17250073637E+03 0.  0.
        -24    2    5    5    0    0  0.53957441631E+02  0.68661083425E+02 -0.16912090946E+03  0.20662462570E+03  0.80412088930E+02 0.  0.
          5    1    3    3  501    0 -0.32062940632E+02 -0.36429474627E+02 -0.51078351561E+01  0.49023655143E+02  0.47000000000E+01 0. -1.
        -11    1    4    4    0    0  0.31258121558E+01 -0.12929377007E+02 -0.40014571756E+01  0.13890685762E+02  0.00000000000E+00 0.  1.
         12    1    4    4    0    0 -0.18223830249E+02 -0.73228259593E+02 -0.33671555153E+03  0.34506788989E+03  0.00000000000E+00 0. -1.
         -5    1    5    5    0  502 -0.67964829050E+01  0.53926027802E+02  0.18237609176E+02  0.57523117465E+02  0.47000000000E+01 0.  1.
         11    1    6    6    0    0  0.71875724771E+02  0.33614720320E+02 -0.11311825528E+03  0.13817311212E+03  0.00000000000E+00 0. -1.
        -12    1    6    6    0    0 -0.17918283140E+02  0.35046363105E+02 -0.56002654177E+02  0.68451513588E+02  0.00000000000E+00 0.  1.
</event>
<event>
12    1  0.8728348E-002  0.2197197E+03  0.7818608E-02  0.1134796E+00
         21   -1    0    0  503  502  0.00000000000E+00  0.00000000000E+00  0.16950358263E+03  0.16950358263E+03  0.00000000000E+00 0.  1.
         21   -1    0    0  501  503 -0.00000000000E+00 -0.00000000000E+00 -0.31075372678E+03  0.31075372678E+03  0.00000000000E+00 0.  1.
          6    2    1    2  501    0 -0.57677143171E+02 -0.12381227746E+03 -0.14671821664E+03  0.26420249847E+03  0.17210633983E+03 0.  0.
         24    2    3    3    0    0  0.59683665174E+01 -0.11294588781E+03 -0.47120338427E+02  0.14541421339E+03  0.78310741219E+02 0.  0.
         -6    2    1    2    0  502  0.57677143171E+02  0.12381227746E+03  0.54680724932E+01  0.21605481094E+03  0.16731302585E+03 0.  0.
        -24    2    5    5    0    0  0.96761046255E+02  0.87605117944E+02  0.29635247728E+02  0.15736365113E+03  0.82750915569E+02 0.  0.
          5    1    3    3  501    0 -0.63645509688E+02 -0.10866389646E+02 -0.99597878212E+02  0.11878828508E+03  0.47000000000E+01 0. -1.
        -11    1    4    4    0    0  0.10956875616E+01 -0.91185235701E+02 -0.68860940882E+02  0.11427063017E+03  0.00000000000E+00 0.  1.
         12    1    4    4    0    0  0.48726789558E+01 -0.21760652111E+02  0.21740602456E+02  0.31143583218E+02  0.00000000000E+00 0. -1.
         -5    1    5    5    0  502 -0.39083903085E+02  0.36207159514E+02 -0.24167175235E+02  0.58691159805E+02  0.47000000000E+01 0.  1.
         11    1    6    6    0    0  0.14591742727E+02  0.64928017783E+01 -0.24971215567E+02  0.29641812320E+02  0.00000000000E+00 0. -1.
        -12    1    6    6    0    0  0.82169303529E+02  0.81112316166E+02  0.54606463295E+02  0.12772183881E+03  0.00000000000E+00 0.  1.
</event>
<event>
12    1  0.8728348E-002  0.1821246E+03  0.7818608E-02  0.1166210E+00
         21   -1    0    0  503  502  0.00000000000E+00  0.00000000000E+00  0.56286074375E+03  0.56286074375E+03  0.00000000000E+00 0.  1.
         21   -1    0    0  501  503 -0.00000000000E+00 -0.00000000000E+00 -0.71004603093E+02  0.71004603093E+02  0.00000000000E+00 0.  1.
          6    2    1    2  501    0 -0.20265264747E+02 -0.54611841419E+02  0.11096754482E+03  0.21167403066E+03  0.17058418764E+03 0.  0.
         24    2    3    3    0    0  0.29787431296E+02 -0.75465113815E+02  0.33927921745E+02  0.11734839854E+03  0.77699860359E+02 0.  0.
         -6    2    1    2    0  502  0.20265264747E+02  0.54611841419E+02  0.38088859584E+03  0.42219131618E+03  0.17255796373E+03 0.  0.
        -24    2    5    5    0    0 -0.47171179810E+02  0.73022626020E+01  0.26144808920E+03  0.27702246647E+03  0.78153057127E+02 0.  0.
          5    1    3    3  501    0 -0.50052696043E+02  0.20853272396E+02  0.77039623074E+02  0.94325632117E+02  0.47000000000E+01 0. -1.
        -13    1    4    4    0    0  0.32690350860E+02 -0.38947078814E+02  0.55148620135E+02  0.75012694194E+02  0.00000000000E+00 0.  1.
         14    1    4    4    0    0 -0.29029195637E+01 -0.36518035001E+02 -0.21220698390E+02  0.42335704346E+02  0.00000000000E+00 0. -1.
         -5    1    5    5    0  502  0.67436444557E+02  0.47309578817E+02  0.11944050663E+03  0.14516884971E+03  0.47000000000E+01 0.  1.
         11    1    6    6    0    0 -0.27092949417E+02 -0.35202543072E+02  0.13488645823E+03  0.14201268803E+03  0.00000000000E+00 0. -1.
        -12    1    6    6    0    0 -0.20078230393E+02  0.42504805674E+02  0.12656163097E+03  0.13500977844E+03  0.00000000000E+00 0.  1.
</event>
<event>
12    1  0.8728348E-002  0.2121541E+03  0.7818608E-02  0.1140043E+00
         21   -1    0    0  503  502  0.00000000000E+00  0.00000000000E+00  0.14128038363E+04  0.14128038363E+04  0.00000000000E+00 0.  1.
         21   -1    0    0  501  503 -0.00000000000E+00 -0.00000000000E+00 -0.62338735023E+02  0.62338735023E+02  0.00000000000E+00 0.  1.
          6    2    1    2  501    0 -0.64176680002E+02  0.10480115410E+03  0.15766337349E+03  0.26362066535E+03  0.17186095456E+03 0.  0.
         24    2    3    3    0    0  0.76396438555E+01 -0.37154326847E+01  0.16348907817E+02  0.71461090550E+02  0.69045145213E+02 0.  0.
         -6    2    1    2    0  502  0.64176680002E+02 -0.10480115410E+03  0.11928017278E+04  0.12115219060E+04  0.17293767281E+03 0.  0.
        -24    2    5    5    0    0 -0.14839506221E+02 -0.66490536737E+01  0.36251871396E+03  0.37171873525E+03  0.80564131623E+02 0.  0.
          5    1    3    3  501    0 -0.71816323858E+02  0.10851658678E+03  0.14131446567E+03  0.19215957480E+03  0.47000000000E+01 0. -1.
        -11    1    4    4    0    0  0.48008038514E+01 -0.15466498762E+02 -0.24216603065E+02  0.29132527621E+02  0.00000000000E+00 0.  1.
         12    1    4    4    0    0  0.28388400041E+01  0.11751066077E+02  0.40565510882E+02  0.42328562929E+02  0.00000000000E+00 0. -1.
         -5    1    5    5    0  502  0.79016186223E+02 -0.98152100426E+02  0.83028301383E+03  0.83980317073E+03  0.47000000000E+01 0.  1.
         13    1    6    6    0    0 -0.16962609788E+02  0.29970213227E+02  0.27010536561E+03  0.27229185141E+03  0.00000000000E+00 0. -1.
        -14    1    6    6    0    0  0.21231035667E+01 -0.36619266901E+02  0.92413348348E+02  0.99426883840E+02  0.00000000000E+00 0.  1.
</event>
<event>
12    1  0.8728348E-002  0.2227766E+03  0.7818608E-02  0.1132126E+00
         21   -1    0    0  501  502  0.00000000000E+00  0.00000000000E+00  0.10761712359E+04  0.10761712359E+04  0.00000000000E+00 0. -1.
         21   -1    0    0  502  503 -0.00000000000E+00 -0.00000000000E+00 -0.46092994600E+02  0.46092994600E+02  0.00000000000E+00 0.  1.
         -6    2    1    2    0  503 -0.13913596013E+03  0.23349058862E+02  0.47097248740E+03  0.52100336674E+03  0.17241064444E+03 0.  0.
        -24    2    3    3    0    0 -0.12631949550E+03  0.70176653359E+02  0.41526392156E+03  0.44695865268E+03  0.80290317215E+02 0.  0.
          6    2    1    2  501    0  0.13913596013E+03 -0.23349058862E+02  0.55910575389E+03  0.60126086375E+03  0.17032729756E+03 0.  0.
         24    2    5    5    0    0  0.80772833622E+02  0.30040616963E+01  0.15522842778E+03  0.19231132402E+03  0.79715152370E+02 0.  0.
          5    1    5    5  501    0  0.58363126503E+02 -0.26353120558E+02  0.40387732611E+03  0.40894953973E+03  0.47000000000E+01 0. -1.
        -11    1    6    6    0    0  0.88891557283E+02  0.22958988106E+02  0.12974149228E+03  0.15893923024E+03  0.00000000000E+00 0.  1.
         12    1    6    6    0    0 -0.81187236610E+01 -0.19954926410E+02  0.25486935497E+02  0.33372093775E+02  0.00000000000E+00 0. -1.
         -5    1    3    3    0  503 -0.12816464630E+02 -0.46827594498E+02  0.55708565841E+02  0.74044714059E+02  0.47000000000E+01 0.  1.
         13    1    4    4    0    0 -0.27704194314E+02  0.59712156171E+02  0.15229325159E+03  0.16591051340E+03  0.00000000000E+00 0. -1.
        -14    1    4    4    0    0 -0.98615301181E+02  0.10464497188E+02  0.26297066996E+03  0.28104813927E+03  0.00000000000E+00 0.  1.
</event>
<event>
12    1  0.8728348E-002  0.4592733E+03  0.7818608E-02  0.1025119E+00
         21   -1    0    0  503  502  0.00000000000E+00  0.00000000000E+00  0.15234428603E+03  0.15234428603E+03  0.00000000000E+00 0. -1.
         21   -1    0    0  501  503 -0.00000000000E+00 -0.00000000000E+00 -0.27454189203E+04  0.27454189203E+04  0.00000000000E+00 0.  1.
          6    2    1    2  501    0  0.26635731564E+03  0.33116516936E+03 -0.23198166857E+04  0.23648427886E+04  0.17411309669E+03 0.  0.
         24    2    3    3    0    0  0.11320434126E+03  0.21501189877E+03 -0.10079411992E+04  0.10389518436E+04  0.66559243016E+02 0.  0.
         -6    2    1    2    0  502 -0.26635731564E+03 -0.33116516936E+03 -0.27325794855E+03  0.53292041773E+03  0.16946290508E+03 0.  0.
        -24    2    5    5    0    0 -0.17346673083E+03 -0.12938867323E+03 -0.17811365700E+03  0.29122444890E+03  0.79088996456E+02 0.  0.
          5    1    3    3  501    0  0.15315297437E+03  0.11615327059E+03 -0.13118754865E+04  0.13258909449E+04  0.47000000000E+01 0. -1.
        -11    1    4    4    0    0  0.76031122935E+02  0.19347948192E+03 -0.86911745562E+03  0.89363314243E+03  0.00000000000E+00 0.  1.
         12    1    4    4    0    0  0.37173218327E+02  0.21532416849E+02 -0.13882374360E+03  0.14531870121E+03  0.00000000000E+00 0. -1.
         -5    1    5    5    0  502 -0.92890584804E+02 -0.20177649613E+03 -0.95144291550E+02  0.24169596883E+03  0.47000000000E+01 0.  1.
         13    1    6    6    0    0 -0.91801809548E+02 -0.83920196249E+02 -0.53365401110E+02  0.13534414509E+03  0.00000000000E+00 0. -1.
        -14    1    6    6    0    0 -0.81664921284E+02 -0.45468476983E+02 -0.12474825589E+03  0.15588030381E+03  0.00000000000E+00 0.  1.
</event>
<event>
12    1  0.8728348E-002  0.1930825E+03  0.7818608E-02  0.1157331E+00
         21   -1    0    0  503  502  0.00000000000E+00  0.00000000000E+00  0.96929898761E+03  0.96929898761E+03  0.00000000000E+00 0. -1.
         21   -1    0    0  501  503 -0.00000000000E+00 -0.00000000000E+00 -0.41120222564E+02  0.41120222564E+02  0.00000000000E+00 0.  1.
          6    2    1    2  501    0  0.70993373772E+02 -0.51707586433E+02  0.31294814152E+03  0.36771919327E+03  0.17195095872E+03 0.  0.
         24    2    3    3    0    0  0.32897391613E+01 -0.31150269882E+02  0.27343263480E+03  0.28654068211E+03  0.79743307129E+02 0.  0.
         -6    2    1    2    0  502 -0.70993373772E+02  0.51707586433E+02  0.61523062353E+03  0.64270001691E+03  0.16383179786E+03 0.  0.
        -24    2    5    5    0    0 -0.36173896044E+02  0.89831612749E+02  0.33492604810E+03  0.35764110648E+03  0.79708430788E+02 0.  0.
          5    1    3    3  501    0  0.67703634610E+02 -0.20557316551E+02  0.39515506721E+02  0.81178511163E+02  0.47000000000E+01 0. -1.
        -11    1    4    4    0    0  0.40428051760E+02 -0.95302094636E+01  0.15800310773E+03  0.16337146114E+03  0.00000000000E+00 0.  1.
         12    1    4    4    0    0 -0.37138312599E+02 -0.21620060418E+02  0.11542952707E+03  0.12316922097E+03  0.00000000000E+00 0. -1.
         -5    1    5    5    0  502 -0.34819477727E+02 -0.38124026316E+02  0.28030457543E+03  0.28505891043E+03  0.47000000000E+01 0.  1.
         13    1    6    6    0    0 -0.68244450862E+01  0.79203895818E+02  0.30192844934E+03  0.31221886344E+03  0.00000000000E+00 0. -1.
        -14    1    6    6    0    0 -0.29349450958E+02  0.10627716931E+02  0.32997598763E+02  0.45422243040E+02  0.00000000000E+00 0.  1.
</event>
<event>
12    1  0.8728348E-002  0.2165356E+03  0.7818608E-02  0.1136723E+00
         21   -1    0    0  501  502  0.00000000000E+00  0.00000000000E+00  0.36500247444E+02  0.36500247444E+02  0.00000000000E+00 0. -1.
         21   -1    0    0  502  503 -0.00000000000E+00 -0.00000000000E+00 -0.12800311955E+04  0.12800311955E+04  0.00000000000E+00 0.  1.
         -6    2    1    2    0  503 -0.89509233874E+01 -0.12951339776E+03 -0.59034913788E+03  0.62839327482E+03  0.17179104754E+03 0.  0.
        -24    2    3    3    0    0 -0.23184864387E+02 -0.11327781520E+03 -0.24440290136E+03  0.28174202676E+03  0.79223671330E+02 0.  0.
          6    2    1    2  501    0  0.89509233874E+01  0.12951339776E+03 -0.65318181021E+03  0.68813816815E+03  0.17330268911E+03 0.  0.
         24    2    5    5    0    0  0.64978789553E+02  0.39612364753E+02 -0.35305144904E+03  0.36982756322E+03  0.79597225513E+02 0.  0.
          5    1    5    5  501    0 -0.56027866165E+02  0.89901033009E+02 -0.30013036116E+03  0.31831060494E+03  0.47000000000E+01 0. -1.
        -11    1    6    6    0    0  0.28908150791E+02  0.51745556200E+02 -0.29146945204E+03  0.29743524545E+03  0.00000000000E+00 0.  1.
         12    1    6    6    0    0  0.36070638762E+02 -0.12133191447E+02 -0.61581997008E+02  0.72392317761E+02  0.00000000000E+00 0. -1.
         -5    1    3    3    0  503  0.14233941000E+02 -0.16235582566E+02 -0.34594623652E+03  0.34665124806E+03  0.47000000000E+01 0.  1.
         11    1    4    4    0    0 -0.97375530005E+01 -0.12303158498E+03 -0.21923013842E+03  0.25158188415E+03  0.00000000000E+00 0. -1.
        -12    1    4    4    0    0 -0.13447311387E+02  0.97537697799E+01 -0.25172762931E+02  0.30160142606E+02  0.00000000000E+00 0.  1.
</event>
<event>
12    1  0.8728348E-002  0.2010781E+03  0.7818608E-02  0.1149346E+00
         21   -1    0    0  503  502  0.00000000000E+00  0.00000000000E+00  0.16555621500E+04  0.16555621500E+04  0.00000000000E+00 0.  1.
         21   -1    0    0  501  503 -0.00000000000E+00 -0.00000000000E+00 -0.24150283785E+02  0.24150283785E+02  0.00000000000E+00 0. -1.
          6    2    1    2  501    0  0.76003802470E+02 -0.65346515988E+02  0.78472848232E+03  0.80947960943E+03  0.17149840226E+03 0.  0.
         24    2    3    3    0    0  0.25571505001E+02 -0.99331137693E+02  0.41663384103E+03  0.43636551684E+03  0.79438844498E+02 0.  0.
         -6    2    1    2    0  502 -0.76003802470E+02  0.65346515988E+02  0.84668338387E+03  0.87023282433E+03  0.17431486132E+03 0.  0.
        -24    2    5    5    0    0 -0.70478103315E+02  0.34335309023E+01  0.73242478386E+03  0.74007573175E+03  0.79291062094E+02 0.  0.
          5    1    3    3  501    0  0.50432297469E+02  0.33984621705E+02  0.36809464129E+03  0.37311409259E+03  0.47000000000E+01 0. -1.
        -11    1    4    4    0    0  0.55937088437E+01 -0.37216442295E+01  0.18316886878E+03  0.18329204757E+03  0.00000000000E+00 0.  1.
         12    1    4    4    0    0  0.19977796157E+02 -0.95609493464E+02  0.23346497226E+03  0.25307346927E+03  0.00000000000E+00 0. -1.
         -5    1    5    5    0  502 -0.55256991551E+01  0.61912985086E+02  0.11425860001E+03  0.13015709258E+03  0.47000000000E+01 0.  1.
         13    1    6    6    0    0  0.16509770847E+02 -0.68414594305E+01  0.95713456309E+02  0.97367570675E+02  0.00000000000E+00 0. -1.
        -14    1    6    6    0    0 -0.86987874161E+02  0.10274990333E+02  0.63671132755E+03  0.64270816107E+03  0.00000000000E+00 0.  1.
</event>
<event>
12    1  0.8728348E-002  0.1759714E+03  0.7818608E-02  0.1172322E+00
         21   -1    0    0  503  502  0.00000000000E+00  0.00000000000E+00  0.13899230244E+03  0.13899230244E+03  0.00000000000E+00 0. -1.
         21   -1    0    0  501  503 -0.00000000000E+00 -0.00000000000E+00 -0.22687497680E+03  0.22687497680E+03  0.00000000000E+00 0. -1.
          6    2    1    2  501    0 -0.96977595283E+01 -0.37528248607E+02 -0.76140826794E+02  0.19173772240E+03  0.17164938888E+03 0.  0.
         24    2    3    3    0    0 -0.17242373154E+02  0.42172941016E+02 -0.61132434432E+02  0.11015008447E+03  0.79498491702E+02 0.  0.
         -6    2    1    2    0  502  0.96977595283E+01  0.37528248607E+02 -0.11741847566E+02  0.17412955685E+03  0.16935411303E+03 0.  0.
        -24    2    5    5    0    0  0.55929650587E+02  0.66836350583E+02 -0.13561939047E+01  0.11821619177E+03  0.79862413943E+02 0.  0.
          5    1    3    3  501    0  0.75446136253E+01 -0.79701189624E+02 -0.15008392363E+02  0.81587637933E+02  0.47000000000E+01 0. -1.
        -11    1    4    4    0    0 -0.91828361763E+00  0.13483057754E+02  0.19097254649E+02  0.23395324882E+02  0.00000000000E+00 0.  1.
         12    1    4    4    0    0 -0.16324089536E+02  0.28689883262E+02 -0.80229689081E+02  0.86754759586E+02  0.00000000000E+00 0. -1.
         -5    1    5    5    0  502 -0.46231891059E+02 -0.29308101976E+02 -0.10385653662E+02  0.55913365077E+02  0.47000000000E+01 0.  1.
         13    1    6    6    0    0  0.59974927530E+02  0.81924998504E+02 -0.65791057945E+01  0.10174469001E+03  0.00000000000E+00 0. -1.
        -14    1    6    6    0    0 -0.40452769428E+01 -0.15088647921E+02  0.52229118899E+01  0.16471501761E+02  0.00000000000E+00 0.  1.
</event>
<event>
12    1  0.8728348E-002  0.2377005E+03  0.7818608E-02  0.1121353E+00
         21   -1    0    0  501  502  0.00000000000E+00  0.00000000000E+00  0.34951979539E+03  0.34951979539E+03  0.00000000000E+00 0.  1.
         21   -1    0    0  502  503 -0.00000000000E+00 -0.00000000000E+00 -0.29526466441E+03  0.29526466441E+03  0.00000000000E+00 0.  1.
         -6    2    1    2    0  503  0.39756496956E+02  0.15885918316E+03 -0.18979856428E+03  0.30417927333E+03  0.17229253087E+03 0.  0.
        -24    2    3    3    0    0 -0.17914477378E+02  0.29666401107E+02 -0.36860565261E+02  0.95783405419E+02  0.81331025002E+02 0.  0.
          6    2    1    2  501    0 -0.39756496956E+02 -0.15885918316E+03  0.24405369526E+03  0.34060518648E+03  0.17214199883E+03 0.  0.
         24    2    5    5    0    0 -0.84781961197E+02 -0.14796541625E+03  0.21444385390E+03  0.28542548647E+03  0.79998728127E+02 0.  0.
          5    1    5    5  501    0  0.45025464240E+02 -0.10893766910E+02  0.29609841366E+02  0.55179700011E+02  0.47000000000E+01 0. -1.
        -13    1    6    6    0    0  0.57657646511E+00 -0.61097696977E+02  0.10602759185E+03  0.12237283706E+03  0.00000000000E+00 0.  1.
         14    1    6    6    0    0 -0.85358537662E+02 -0.86867719274E+02  0.10841626204E+03  0.16305264941E+03  0.00000000000E+00 0. -1.
         -5    1    3    3    0  503  0.57670974335E+02  0.12919278205E+03 -0.15293799902E+03  0.20839586791E+03  0.47000000000E+01 0.  1.
         13    1    4    4    0    0  0.10052673533E+02 -0.46139384459E+00  0.21882465806E+02  0.24085502677E+02  0.00000000000E+00 0. -1.
        -14    1    4    4    0    0 -0.27967150911E+02  0.30127794952E+02 -0.58743031067E+02  0.71697902742E+02  0.00000000000E+00 0.  1.
</event>
<event>
12    1  0.8728348E-002  0.1717490E+03  0.7818608E-02  0.1176700E+00
         21   -1    0    0  503  502  0.00000000000E+00  0.00000000000E+00  0.30457141318E+04  0.30457141318E+04  0.00000000000E+00 0. -1.
         21   -1    0    0  501  503 -0.00000000000E+00 -0.00000000000E+00 -0.13741295359E+02  0.13741295359E+02  0.00000000000E+00 0. -1.
          6    2    1    2  501    0 -0.60849760555E+01 -0.33569195297E+01  0.66235933776E+03  0.68362592185E+03  0.16904500248E+03 0.  0.
         24    2    3    3    0    0 -0.21626377018E+02 -0.85061680238E+01  0.66143104674E+03  0.66656715202E+03  0.79250763229E+02 0.  0.
         -6    2    1    2    0  502  0.60849760555E+01  0.33569195297E+01  0.23696134987E+04  0.23758295053E+04  0.17160830204E+03 0.  0.
        -24    2    5    5    0    0  0.37276274130E+02 -0.30704569497E+02  0.21141584524E+04  0.21161904236E+04  0.79143260227E+02 0.  0.
          5    1    3    3  501    0  0.15541400963E+02  0.51492484941E+01  0.92829101487E+00  0.17058769831E+02  0.47000000000E+01 0. -1.
        -13    1    4    4    0    0 -0.29929210059E+02 -0.37745964385E+02  0.49874352155E+03  0.50106448261E+03  0.00000000000E+00 0.  1.
         14    1    4    4    0    0  0.83028330405E+01  0.29239796361E+02  0.16268752520E+03  0.16550266941E+03  0.00000000000E+00 0. -1.
         -5    1    5    5    0  502 -0.31191298074E+02  0.34061489026E+02  0.25545504625E+03  0.25963908174E+03  0.47000000000E+01 0.  1.
         13    1    6    6    0    0 -0.58899414981E+01  0.18233132649E+02  0.95821504163E+03  0.95840659667E+03  0.00000000000E+00 0. -1.
        -14    1    6    6    0    0  0.43166215628E+02 -0.48937702146E+02  0.11559434108E+04  0.11577838269E+04  0.00000000000E+00 0.  1.
</event>
<event>
12    1  0.8728348E-002  0.2446218E+03  0.7818608E-02  0.1116953E+00
         21   -1    0    0  503  502  0.00000000000E+00  0.00000000000E+00  0.23650997177E+03  0.23650997177E+03  0.00000000000E+00 0. -1.
         21   -1    0    0  501  503 -0.00000000000E+00 -0.00000000000E+00 -0.32257784964E+03  0.32257784964E+03  0.00000000000E+00 0.  1.
          6    2    1    2  501    0 -0.80366383380E+02 -0.15458489746E+03 -0.17412166536E+03  0.30026352361E+03  0.17171075436E+03 0.  0.
         24    2    3    3    0    0 -0.51519289438E+02 -0.17920580157E+03 -0.12599125222E+03  0.23880646204E+03  0.79911039138E+02 0.  0.
         -6    2    1    2    0  502  0.80366383380E+02  0.15458489746E+03  0.88053787491E+02  0.25882429780E+03  0.16994499563E+03 0.  0.
        -24    2    5    5    0    0  0.68167364385E+02  0.30331925110E+02  0.75765616325E+02  0.13328264594E+03  0.80355583768E+02 0.  0.
          5    1    3    3  501    0 -0.28847093942E+02  0.24620904107E+02 -0.48130413144E+02  0.61457061574E+02  0.47000000000E+01 0. -1.
        -13    1    4    4    0    0 -0.24978167122E+02 -0.11275083606E+03 -0.30437884191E+02  0.11942832436E+03  0.00000000000E+00 0.  1.
         14    1    4    4    0    0 -0.26541122315E+02 -0.66454965501E+02 -0.95553368024E+02  0.11937813767E+03  0.00000000000E+00 0. -1.
         -5    1    5    5    0  502  0.12199018995E+02  0.12425297235E+03  0.12288171165E+02  0.12554165186E+03  0.47000000000E+01 0.  1.
         11    1    6    6    0    0  0.34571335546E+02  0.96801297547E+01 -0.11353535625E+02  0.37653484895E+02  0.00000000000E+00 0. -1.
        -12    1    6    6    0    0  0.33596028838E+02  0.20651795356E+02  0.87119151950E+02  0.95629161042E+02  0.00000000000E+00 0.  1.
</event>
<event>
12    1  0.8728348E-002  0.1855953E+03  0.7818608E-02  0.1166191E+00
         21   -1    0    0  503  502  0.00000000000E+00  0.00000000000E+00  0.46856565474E+03  0.46856565474E+03  0.00000000000E+00 0.  1.
         21   -1    0    0  501  503 -0.00000000000E+00 -0.00000000000E+00 -0.78849236242E+02  0.78849236242E+02  0.00000000000E+00 0.  1.
          6    2    1    2  501    0 -0.14418523149E+02 -0.12789579569E+02  0.30519515430E+03  0.35719698864E+03  0.18459181814E+03 0.  0.
         24    2    3    3    0    0  0.11468877202E+02 -0.77919717748E+02  0.19317304621E+03  0.22497318178E+03  0.84226416181E+02 0.  0.
         -6    2    1    2    0  502  0.14418523149E+02  0.12789579569E+02  0.84521264193E+02  0.19021790234E+03  0.16931491109E+03 0.  0.
        -24    2    5    5    0    0  0.12931294352E+02 -0.17560695350E+02 -0.16431489728E+02  0.84686392541E+02  0.80163550521E+02 0.  0.
          5    1    3    3  501    0 -0.25887400351E+02  0.65130138179E+02  0.11202210810E+03  0.13222380685E+03  0.47000000000E+01 0. -1.
        -13    1    4    4    0    0  0.88720437957E+01 -0.64836281810E+02  0.19968154879E+03  0.21013133400E+03  0.00000000000E+00 0.  1.
         14    1    4    4    0    0  0.25968334064E+01 -0.13083435937E+02 -0.65085025875E+01  0.14841847782E+02  0.00000000000E+00 0. -1.
         -5    1    5    5    0  502  0.14872287970E+01  0.30350274919E+02  0.10095275392E+03  0.10553150980E+03  0.47000000000E+01 0.  1.
         13    1    6    6    0    0  0.80866517260E+01 -0.24022649207E+02  0.29015325368E+02  0.38527531938E+02  0.00000000000E+00 0. -1.
        -14    1    6    6    0    0  0.48446426264E+01  0.64619538565E+01 -0.45446815096E+02  0.46158860603E+02  0.00000000000E+00 0.  1.
</event>
<event>
12    1  0.8728348E-002  0.1820872E+03  0.7818608E-02  0.1166263E+00
         21   -1    0    0  503  502  0.00000000000E+00  0.00000000000E+00  0.55675879667E+03  0.55675879667E+03  0.00000000000E+00 0.  1.
         21   -1    0    0  501  503 -0.00000000000E+00 -0.00000000000E+00 -0.91640240570E+02  0.91640240570E+02  0.00000000000E+00 0.  1.
          6    2    1    2  501    0 -0.55369373177E+02 -0.12839947921E+02  0.39635891447E+02  0.18635118379E+03  0.17298880906E+03 0.  0.
         24    2    3    3    0    0 -0.14894939751E+02  0.55709035286E+02  0.45586278159E+02  0.10638469104E+03  0.76904082396E+02 0.  0.
         -6    2    1    2    0  502  0.55369373177E+02  0.12839947921E+02  0.42548266466E+03  0.46204785346E+03  0.17094469635E+03 0.  0.
        -24    2    5    5    0    0  0.37826322504E+01 -0.48702070939E+02  0.17975217426E+03  0.20348610873E+03  0.81911856741E+02 0.  0.
          5    1    3    3  501    0 -0.40474433426E+02 -0.68548983207E+02 -0.59503867123E+01  0.79966492745E+02  0.47000000000E+01 0. -1.
        -11    1    4    4    0    0 -0.20813770527E+02  0.55456148202E+02 -0.11795120110E+01  0.59245157317E+02  0.00000000000E+00 0.  1.
         12    1    4    4    0    0  0.59188307762E+01  0.25288708391E+00  0.46765790170E+02  0.47139533726E+02  0.00000000000E+00 0. -1.
         -5    1    5    5    0  502  0.51586740927E+02  0.61542018861E+02  0.24573049040E+03  0.25856174473E+03  0.47000000000E+01 0.  1.
         11    1    6    6    0    0 -0.11090264481E+02  0.17993219148E+01 -0.43170914778E+01  0.12036145747E+02  0.00000000000E+00 0. -1.
        -12    1    6    6    0    0  0.14872896731E+02 -0.50501392854E+02  0.18406926574E+03  0.19144996298E+03  0.00000000000E+00 0.  1.
</event>
<event>
12    1  0.8728348E-002  0.2090942E+03  0.7818608E-02  0.1142306E+00
         21   -1    0    0  503  502  0.00000000000E+00  0.00000000000E+00  0.30844766636E+03  0.30844766636E+03  0.00000000000E+00 0.  1.
         21   -1    0    0  501  503 -0.00000000000E+00 -0.00000000000E+00 -0.19669865621E+03  0.19669865621E+03  0.00000000000E+00 0. -1.
          6    2    1    2  501    0  0.15013498195E+02  0.11710210795E+03 -0.77704054142E+02  0.22306568116E+03  0.17257482222E+03 0.  0.
         24    2    3    3    0    0  0.58906225270E+02  0.20256423391E+02 -0.23212020432E+02  0.10349507504E+03  0.79323178210E+02 0.  0.
         -6    2    1    2    0  502 -0.15013498195E+02 -0.11710210795E+03  0.18945306429E+03  0.28208064141E+03  0.17244916897E+03 0.  0.
        -24    2    5    5    0    0 -0.31049132660E+02 -0.14753963135E+03  0.13525634312E+03  0.21771481983E+03  0.79834033859E+02 0.  0.
          5    1    3    3  501    0 -0.43892727075E+02  0.96845684563E+02 -0.54492033710E+02  0.11957060611E+03  0.47000000000E+01 0. -1.
        -13    1    4    4    0    0  0.45214614014E+02  0.42612780561E+02  0.81012364008E+01  0.62656527343E+02  0.00000000000E+00 0.  1.
         14    1    4    4    0    0  0.13691611257E+02 -0.22356357169E+02 -0.31313256833E+02  0.40838547699E+02  0.00000000000E+00 0. -1.
         -5    1    5    5    0  502  0.16035634465E+02  0.30437523394E+02  0.54196721165E+02  0.64365821583E+02  0.47000000000E+01 0.  1.
         13    1    6    6    0    0  0.11778795125E+02 -0.14230597371E+02 -0.54003086632E+01  0.19246122980E+02  0.00000000000E+00 0. -1.
        -14    1    6    6    0    0 -0.42827927785E+02 -0.13330903398E+03  0.14065665178E+03  0.19846869685E+03  0.00000000000E+00 0.  1.
</event>
<event>
12    1  0.8728348E-002  0.2159362E+03  0.7818608E-02  0.1136955E+00
         21   -1    0    0  501  502  0.00000000000E+00  0.00000000000E+00  0.22141268493E+03  0.22141268493E+03  0.00000000000E+00 0.  1.
         21   -1    0    0  502  503 -0.00000000000E+00 -0.00000000000E+00 -0.25900471197E+03  0.25900471197E+03  0.00000000000E+00 0.  1.
         -6    2    1    2    0  503 -0.61205580079E+02 -0.11486440225E+03 -0.12267794530E+03  0.24835119333E+03  0.17230346203E+03 0.  0.
        -24    2    3    3    0    0  0.35047697594E+00 -0.24234497779E+02 -0.10446172471E+03  0.13718983117E+03  0.85564970239E+02 0.  0.
          6    2    1    2  501    0  0.61205580079E+02  0.11486440225E+03  0.85085918266E+02  0.23206620357E+03  0.17226478287E+03 0.  0.
         24    2    5    5    0    0 -0.32281617733E+01 -0.58976278247E+01  0.55084270472E+02  0.91861482302E+02  0.73205546476E+02 0.  0.
          5    1    5    5  501    0  0.64433741852E+02  0.12076203007E+03  0.30001647793E+02  0.14020472127E+03  0.47000000000E+01 0. -1.
        -13    1    6    6    0    0  0.19595673255E+02  0.62944258129E+01  0.61792430992E+02  0.65129983376E+02  0.00000000000E+00 0.  1.
         14    1    6    6    0    0 -0.22823835028E+02 -0.12192053638E+02 -0.67081605197E+01  0.26731498926E+02  0.00000000000E+00 0. -1.
         -5    1    3    3    0  503 -0.61556057054E+02 -0.90629904469E+02 -0.18216220598E+02  0.11116136216E+03  0.47000000000E+01 0.  1.
         13    1    4    4    0    0  0.24754068084E+01  0.42296382190E+01  0.14263362876E+02  0.15081810198E+02  0.00000000000E+00 0. -1.
        -14    1    4    4    0    0 -0.21249298324E+01 -0.28464135998E+02 -0.11872508758E+03  0.12210802097E+03  0.00000000000E+00 0.  1.
</event>
<event>
12    1  0.8728348E-002  0.1732619E+03  0.7818608E-02  0.1175885E+00
         21   -1    0    0  501  502  0.00000000000E+00  0.00000000000E+00  0.99491589601E+03  0.99491589601E+03  0.00000000000E+00 0.  1.
         21   -1    0    0  502  503 -0.00000000000E+00 -0.00000000000E+00 -0.46485272093E+02  0.46485272093E+02  0.00000000000E+00 0.  1.
         -6    2    1    2    0  503 -0.14040058325E+02 -0.14511881874E+02  0.15237298593E+03  0.22670646859E+03  0.16664506625E+03 0.  0.
        -24    2    3    3    0    0 -0.52792974799E+02 -0.17228333691E+02  0.16335928603E+03  0.18606220165E+03  0.69634566697E+02 0.  0.
          6    2    1    2  501    0  0.14040058325E+02  0.14511881874E+02  0.79605763798E+03  0.81469469951E+03  0.17208129610E+03 0.  0.
         24    2    5    5    0    0 -0.43226896717E+02 -0.10464231459E+02  0.26782579343E+03  0.28276022801E+03  0.79022947141E+02 0.  0.
          5    1    5    5  501    0  0.57266955042E+02  0.24976113332E+02  0.52823184455E+03  0.53193447150E+03  0.47000000000E+01 0. -1.
        -13    1    6    6    0    0  0.31418697571E+01  0.28152205335E+02  0.59990804083E+02  0.66342404127E+02  0.00000000000E+00 0.  1.
         14    1    6    6    0    0 -0.46368766474E+02 -0.38616436794E+02  0.20783498935E+03  0.21641782388E+03  0.00000000000E+00 0. -1.
         -5    1    3    3    0  503  0.38752916475E+02  0.27164518168E+01 -0.10986300097E+02  0.40644266946E+02  0.47000000000E+01 0.  1.
         11    1    4    4    0    0  0.72648209515E+00 -0.33137831642E+02  0.64865965769E+02  0.72843923407E+02  0.00000000000E+00 0. -1.
        -12    1    4    4    0    0 -0.53519456894E+02  0.15909497951E+02  0.98493320262E+02  0.11321827824E+03  0.00000000000E+00 0.  1.
</event>
<event>
12    1  0.8728348E-002  0.2097932E+03  0.7818608E-02  0.1142026E+00
         21   -1    0    0  503  502  0.00000000000E+00  0.00000000000E+00  0.77354035153E+03  0.77354035153E+03  0.00000000000E+00 0. -1.
         21   -1    0    0  501  503 -0.00000000000E+00 -0.00000000000E+00 -0.10475928275E+03  0.10475928275E+03  0.00000000000E+00 0.  1.
          6    2    1    2  501    0 -0.97557062591E+02  0.69821403668E+02  0.63182421580E+03  0.66527621124E+03  0.17028854540E+03 0.  0.
         24    2    3    3    0    0 -0.12185118401E+03  0.63745958435E+02  0.38766431069E+03  0.41979043847E+03  0.83839943847E+02 0.  0.
         -6    2    1    2    0  502  0.97557062591E+02 -0.69821403668E+02  0.36956852985E+02  0.21302342305E+03  0.17210682994E+03 0.  0.
        -24    2    5    5    0    0  0.23662576195E+02 -0.98705004918E+02  0.20150216590E+02  0.13178789777E+03  0.81605289416E+02 0.  0.
          5    1    3    3  501    0  0.24294121414E+02  0.60754452324E+01  0.24415990511E+03  0.24548577277E+03  0.47000000000E+01 0. -1.
        -11    1    4    4    0    0 -0.28719403842E+02  0.45194596802E+02  0.69373825134E+02  0.87636084753E+02  0.00000000000E+00 0.  1.
         12    1    4    4    0    0 -0.93131780163E+02  0.18551361633E+02  0.31829048556E+03  0.33215435371E+03  0.00000000000E+00 0. -1.
         -5    1    5    5    0  502  0.73894486396E+02  0.28883601250E+02  0.16806636395E+02  0.81235525282E+02  0.47000000000E+01 0.  1.
         11    1    6    6    0    0 -0.16919487256E+02  0.56673638228E+01 -0.79711935323E+00  0.17861227869E+02  0.00000000000E+00 0. -1.
        -12    1    6    6    0    0  0.40582063451E+02 -0.10437236874E+03  0.20947335943E+02  0.11392666990E+03  0.00000000000E+00 0.  1.
</event>
<event>
12    1  0.8728348E-002  0.1903348E+03  0.7818608E-02  0.1158498E+00
         21   -1    0    0  503  502  0.00000000000E+00  0.00000000000E+00  0.14626618843E+03  0.14626618843E+03  0.00000000000E+00 0. -1.
         21   -1    0    0  501  503 -0.00000000000E+00 -0.00000000000E+00 -0.10060930788E+04  0.10060930788E+04  0.00000000000E+00 0. -1.
          6    2    1    2  501    0 -0.43000821849E+02  0.66476725680E+02 -0.93122233646E+03  0.95047481495E+03  0.17308699600E+03 0.  0.
         24    2    3    3    0    0  0.48601726456E+01  0.10149397360E+03 -0.68436039688E+03  0.69654610515E+03  0.80639170530E+02 0.  0.
         -6    2    1    2    0  502  0.43000821849E+02 -0.66476725680E+02  0.71395446051E+02  0.20188445233E+03  0.17144035884E+03 0.  0.
        -24    2    5    5    0    0  0.61727333184E+02 -0.30764664117E+02  0.10457951619E+03  0.14945062662E+03  0.81497769108E+02 0.  0.
          5    1    3    3  501    0 -0.47860994495E+02 -0.35017247920E+02 -0.24686193958E+03  0.25392870979E+03  0.47000000000E+01 0. -1.
        -13    1    4    4    0    0  0.20540996212E+02  0.97580269645E+02 -0.41934536291E+03  0.43103871629E+03  0.00000000000E+00 0.  1.
         14    1    4    4    0    0 -0.15680823566E+02  0.39137039547E+01 -0.26501503398E+03  0.26550738886E+03  0.00000000000E+00 0. -1.
         -5    1    5    5    0  502 -0.18726511335E+02 -0.35712061563E+02 -0.33184070137E+02  0.52433825711E+02  0.47000000000E+01 0.  1.
         11    1    6    6    0    0  0.56107004861E+02 -0.44229981621E+02  0.37276837240E+02  0.80584426928E+02  0.00000000000E+00 0. -1.
        -12    1    6    6    0    0  0.56203283232E+01  0.13465317504E+02  0.67302678948E+02  0.68866199688E+02  0.00000000000E+00 0.  1.
</event>
<event>
12    1  0.8728348E-002  0.1799261E+03  0.7818608E-02  0.1169132E+00
         21   -1    0    0  501  502  0.00000000000E+00  0.00000000000E+00  0.41003080002E+02  0.41003080002E+02  0.00000000000E+00 0. -1.
         21   -1    0    0  502  503 -0.00000000000E+00 -0.00000000000E+00 -0.83583452755E+03  0.83583452755E+03  0.00000000000E+00 0. -1.
         -6    2    1    2    0  503 -0.34394780683E+02  0.77742331958E+01 -0.52825059733E+03  0.55805203969E+03  0.17643680391E+03 0.  0.
        -24    2    3    3    0    0  0.90075247661E+01  0.54394813214E+02 -0.42863490580E+03  0.43971939584E+03  0.81150067166E+02 0.  0.
          6    2    1    2  501    0  0.34394780683E+02 -0.77742331958E+01 -0.26658085021E+03  0.31878556786E+03  0.17121754857E+03 0.  0.
         24    2    5    5    0    0  0.47743835297E+02  0.28502454253E+02 -0.26278987310E+03  0.27966195838E+03  0.77848762715E+02 0.  0.
          5    1    5    5  501    0 -0.13349054614E+02 -0.36276687449E+02 -0.37909771119E+01  0.39123609481E+02  0.47000000000E+01 0. -1.
        -13    1    6    6    0    0 -0.85813798973E+01  0.15846322516E+02 -0.16591137598E+03  0.16688717955E+03  0.00000000000E+00 0.  1.
         14    1    6    6    0    0  0.56325215194E+02  0.12656131737E+02 -0.96878497119E+02  0.11277477883E+03  0.00000000000E+00 0. -1.
         -5    1    3    3    0  503 -0.43402305449E+02 -0.46620580018E+02 -0.99615691537E+02  0.11833264385E+03  0.47000000000E+01 0.  1.
         11    1    4    4    0    0  0.85806132975E+01  0.13581172485E+02 -0.35631226047E+03  0.35667422410E+03  0.00000000000E+00 0. -1.
        -12    1    4    4    0    0  0.42691146860E+00  0.40813640729E+02 -0.72322645323E+02  0.83045171741E+02  0.00000000000E+00 0.  1.
</event>
<event>
12    1  0.8728348E-002  0.2046194E+03  0.7818608E-02  0.1145937E+00
         21   -1    0    0  501  502  0.00000000000E+00  0.00000000000E+00  0.66581411063E+03  0.66581411063E+03  0.00000000000E+00 0. -1.
         21   -1    0    0  502  503 -0.00000000000E+00 -0.00000000000E+00 -0.65211015684E+02  0.65211015684E+02  0.00000000000E+00 0. -1.
         -6    2    1    2    0  503 -0.61955161950E+02 -0.91107857289E+02  0.37031592459E+03  0.42308746441E+03  0.17242399711E+03 0.  0.
        -24    2    3    3    0    0 -0.55917687733E+02 -0.12730846650E+03  0.24865448507E+03  0.29592406138E+03  0.80048508519E+02 0.  0.
          6    2    1    2  501    0  0.61955161950E+02  0.91107857289E+02  0.23028717035E+03  0.30793766190E+03  0.17220435255E+03 0.  0.
         24    2    5    5    0    0 -0.30296783447E+02  0.40242108024E+02  0.13389895351E+03  0.16507225593E+03  0.82356527254E+02 0.  0.
          5    1    5    5  501    0  0.92251945397E+02  0.50865749265E+02  0.96388216838E+02  0.14286540597E+03  0.47000000000E+01 0. -1.
        -13    1    6    6    0    0  0.19431855539E+01 -0.87181512839E+01 -0.77160900575E+01  0.11803396870E+02  0.00000000000E+00 0.  1.
         14    1    6    6    0    0 -0.32239969001E+02  0.48960259308E+02  0.14161504357E+03  0.15326885906E+03  0.00000000000E+00 0. -1.
         -5    1    3    3    0  503 -0.60374742169E+01  0.36200609211E+02  0.12166143952E+03  0.12716340302E+03  0.47000000000E+01 0.  1.
         11    1    4    4    0    0 -0.19369056753E+02 -0.31872020405E+02  0.13745882234E+02  0.39748400252E+02  0.00000000000E+00 0. -1.
        -12    1    4    4    0    0 -0.36548630980E+02 -0.95436446095E+02  0.23490860284E+03  0.25617566113E+03  0.00000000000E+00 0.  1.
</event>
<event>
12    1  0.8728348E-002  0.1771052E+03  0.7818608E-02  0.1171012E+00
         21   -1    0    0  503  502  0.00000000000E+00  0.00000000000E+00  0.49244147306E+03  0.49244147306E+03  0.00000000000E+00 0. -1.
         21   -1    0    0  501  503 -0.00000000000E+00 -0.00000000000E+00 -0.63187093007E+02  0.63187093007E+02  0.00000000000E+00 0. -1.
          6    2    1    2  501    0  0.40908776841E+02 -0.42798978484E+01  0.20882166658E+03  0.27381151650E+03  0.17226262678E+03 0.  0.
         24    2    3    3    0    0 -0.55944142107E+01  0.64376480942E+02  0.71468303880E+02  0.11329895820E+03  0.59609619190E+02 0.  0.
         -6    2    1    2    0  502 -0.40908776841E+02  0.42798978484E+01  0.22043271347E+03  0.28181704957E+03  0.17069980291E+03 0.  0.
        -24    2    5    5    0    0 -0.76729425964E+02 -0.36181601273E+02  0.11644776352E+03  0.16453443521E+03  0.79466884059E+02 0.  0.
          5    1    3    3  501    0  0.46503191052E+02 -0.68656378791E+02  0.13735336270E+03  0.16051255830E+03  0.47000000000E+01 0. -1.
        -13    1    4    4    0    0 -0.83192755588E+01  0.30486472974E+02  0.72706362406E+02  0.79277049103E+02  0.00000000000E+00 0.  1.
         14    1    4    4    0    0  0.27248613481E+01  0.33890007968E+02 -0.12380585252E+01  0.34021909094E+02  0.00000000000E+00 0. -1.
         -5    1    5    5    0  502  0.35820649123E+02  0.40461499121E+02  0.10398494995E+03  0.11728261436E+03  0.47000000000E+01 0.  1.
         11    1    6    6    0    0  0.34983760559E+00  0.10077304728E+02  0.54348415709E+02  0.55275896619E+02  0.00000000000E+00 0. -1.
        -12    1    6    6    0    0 -0.77079263569E+02 -0.46258906001E+02  0.62099347813E+02  0.10925853859E+03  0.00000000000E+00 0.  1.
</event>
<event>
12    1  0.8728348E-002  0.1918149E+03  0.7818608E-02  0.1157094E+00
         21   -1    0    0  501  502  0.00000000000E+00  0.00000000000E+00  0.66850069381E+03  0.66850069381E+03  0.00000000000E+00 0.  1.
         21   -1    0    0  502  503 -0.00000000000E+00 -0.00000000000E+00 -0.79862530917E+02  0.79862530917E+02  0.00000000000E+00 0.  1.
         -6    2    1    2    0  503  0.81530766625E+02  0.22773327340E+02  0.50371648236E+03  0.53859040469E+03  0.17083161031E+03 0.  0.
        -24    2    3    3    0    0  0.11327606025E+03  0.27082623696E+02  0.47410139814E+03  0.49471014813E+03  0.80006628556E+02 0.  0.
          6    2    1    2  501    0 -0.81530766625E+02 -0.22773327340E+02  0.84921680530E+02  0.20977282003E+03  0.17212511106E+03 0.  0.
         24    2    5    5    0    0 -0.60829716666E+02  0.27379363713E+02 -0.45148091240E+01  0.10505987159E+03  0.81038935894E+02 0.  0.
          5    1    5    5  501    0 -0.20701049960E+02 -0.50152691053E+02  0.89436489654E+02  0.10471294844E+03  0.47000000000E+01 0. -1.
        -11    1    6    6    0    0  0.55404005976E+00  0.34901010998E+02 -0.21412836492E+02  0.40949934013E+02  0.00000000000E+00 0.  1.
         12    1    6    6    0    0 -0.61383756725E+02 -0.75216472844E+01  0.16898027368E+02  0.64109937580E+02  0.00000000000E+00 0. -1.
         -5    1    3    3    0  503 -0.31745293626E+02 -0.43092963556E+01  0.29615084221E+02  0.43880256562E+02  0.47000000000E+01 0.  1.
         11    1    4    4    0    0 -0.84748177037E+00 -0.95251047957E+01  0.12967136574E+03  0.13002349380E+03  0.00000000000E+00 0. -1.
        -12    1    4    4    0    0  0.11412354202E+03  0.36607728491E+02  0.34443003240E+03  0.36468665433E+03  0.00000000000E+00 0.  1.
</event>
<event>
12    1  0.8728348E-002  0.1826044E+03  0.7818608E-02  0.1165435E+00
         21   -1    0    0  501  502  0.00000000000E+00  0.00000000000E+00  0.18489266316E+02  0.18489266316E+02  0.00000000000E+00 0.  1.
         21   -1    0    0  502  503 -0.00000000000E+00 -0.00000000000E+00 -0.19631965930E+04  0.19631965930E+04  0.00000000000E+00 0.  1.
         -6    2    1    2    0  503 -0.86906869372E+01  0.57384062441E+02 -0.12583836743E+04  0.12714855266E+04  0.17256162385E+03 0.  0.
        -24    2    3    3    0    0  0.29862776718E+02 -0.18389562522E+02 -0.52224306504E+03  0.53043687883E+03  0.85997104613E+02 0.  0.
          6    2    1    2  501    0  0.86906869372E+01 -0.57384062441E+02 -0.68632365247E+03  0.71020033277E+03  0.17313549048E+03 0.  0.
         24    2    5    5    0    0  0.64717540621E+02 -0.91869626773E+01 -0.31445374663E+03  0.33102849095E+03  0.80161977921E+02 0.  0.
          5    1    5    5  501    0 -0.56026853683E+02 -0.48197099764E+02 -0.37186990583E+03  0.37917184181E+03  0.47000000000E+01 0. -1.
        -11    1    6    6    0    0  0.77404963288E+02 -0.25790527392E+02 -0.26675794308E+03  0.27895605361E+03  0.00000000000E+00 0.  1.
         12    1    6    6    0    0 -0.12687422667E+02  0.16603564715E+02 -0.47695803548E+02  0.52072437347E+02  0.00000000000E+00 0. -1.
         -5    1    3    3    0  503 -0.38553463655E+02  0.75773624963E+02 -0.73614060922E+03  0.74104864776E+03  0.47000000000E+01 0.  1.
         11    1    4    4    0    0  0.26409336939E+01  0.30640435688E+02 -0.28505841425E+03  0.28671259192E+03  0.00000000000E+00 0. -1.
        -12    1    4    4    0    0  0.27221843024E+02 -0.49029998210E+02 -0.23718465078E+03  0.24372428691E+03  0.00000000000E+00 0.  1.
</event>
<event>
12    1  0.8728348E-002  0.2377976E+03  0.7818608E-02  0.1121611E+00
         21   -1    0    0  501  502  0.00000000000E+00  0.00000000000E+00  0.40570023657E+03  0.40570023657E+03  0.00000000000E+00 0. -1.
         21   -1    0    0  502  503 -0.00000000000E+00 -0.00000000000E+00 -0.17492134613E+03  0.17492134613E+03  0.00000000000E+00 0. -1.
         -6    2    1    2    0  503  0.12458675782E+03 -0.10611702001E+03 -0.18009658363E+02  0.23646544607E+03  0.16973178027E+03 0.  0.
        -24    2    3    3    0    0  0.13602581521E+03 -0.69990531606E+02 -0.54362722879E+02  0.18374343456E+03  0.86050259661E+02 0.  0.
          6    2    1    2  501    0 -0.12458675782E+03  0.10611702001E+03  0.24878854881E+03  0.34415613663E+03  0.17252542480E+03 0.  0.
         24    2    5    5    0    0 -0.19329372323E+01  0.78728873700E+02  0.13355888952E+03  0.17358640121E+03  0.78053122389E+02 0.  0.
          5    1    5    5  501    0 -0.12265382058E+03  0.27388146310E+02  0.11522965929E+03  0.17056973542E+03  0.47000000000E+01 0. -1.
        -13    1    6    6    0    0 -0.26546737735E+01  0.94703419139E+02  0.11098860810E+03  0.14592551531E+03  0.00000000000E+00 0.  1.
         14    1    6    6    0    0  0.72173654123E+00 -0.15974545438E+02  0.22570281415E+02  0.27660885900E+02  0.00000000000E+00 0. -1.
         -5    1    3    3    0  503 -0.11439057392E+02 -0.36126488405E+02  0.36353064516E+02  0.52722011515E+02  0.47000000000E+01 0.  1.
         13    1    4    4    0    0  0.46378485441E+02 -0.17327289313E+01 -0.53819111332E+02  0.71066609641E+02  0.00000000000E+00 0. -1.
        -14    1    4    4    0    0  0.89647329767E+02 -0.68257802674E+02 -0.54361154704E+00  0.11267682492E+03  0.00000000000E+00 0.  1.
</event>
<event>
12    1  0.8728348E-002  0.2883675E+03  0.7818608E-02  0.1091563E+00
         21   -1    0    0  501  502  0.00000000000E+00  0.00000000000E+00  0.17892455116E+03  0.17892455116E+03  0.00000000000E+00 0.  1.
         21   -1    0    0  502  503 -0.00000000000E+00 -0.00000000000E+00 -0.47652664658E+03  0.47652664658E+03  0.00000000000E+00 0. -1.
         -6    2    1    2    0  503 -0.81611203659E+02  0.21534862109E+03 -0.87826305284E+02  0.29885380530E+03  0.16901100519E+03 0.  0.
        -24    2    3    3    0    0 -0.54063256370E+02  0.18980861534E+03 -0.12748862201E+03  0.24402342447E+03  0.65908548770E+02 0.  0.
          6    2    1    2  501    0  0.81611203659E+02 -0.21534862109E+03 -0.20977579014E+03  0.35659739245E+03  0.17355230048E+03 0.  0.
         24    2    5    5    0    0  0.35519552912E+01 -0.75849773445E+02 -0.16633035297E+02  0.10583976345E+03  0.71830307995E+02 0.  0.
          5    1    5    5  501    0  0.78059248368E+02 -0.13949884764E+03 -0.19314275485E+03  0.25075762899E+03  0.47000000000E+01 0. -1.
        -13    1    6    6    0    0  0.40885092886E+01 -0.83855626912E+02 -0.30908331899E+02  0.89463998646E+02  0.00000000000E+00 0.  1.
         14    1    6    6    0    0 -0.53655399746E+00  0.80058534676E+01  0.14275296602E+02  0.16375764807E+02  0.00000000000E+00 0. -1.
         -5    1    3    3    0  503 -0.27547947289E+02  0.25540005749E+02  0.39662316728E+02  0.54830380828E+02  0.47000000000E+01 0.  1.
         13    1    4    4    0    0 -0.59180649839E+02  0.19193850019E+03 -0.11777157824E+03  0.23283659895E+03  0.00000000000E+00 0. -1.
        -14    1    4    4    0    0  0.51173934687E+01 -0.21298848531E+01 -0.97170437770E+01  0.11186825518E+02  0.00000000000E+00 0.  1.
</event>
<event>
12    1  0.8728348E-002  0.1886042E+03  0.7818608E-02  0.1159738E+00
         21   -1    0    0  501  502  0.00000000000E+00  0.00000000000E+00  0.20316762462E+03  0.20316762462E+03  0.00000000000E+00 0.  1.
         21   -1    0    0  502  503 -0.00000000000E+00 -0.00000000000E+00 -0.24938163652E+03  0.24938163652E+03  0.00000000000E+00 0.  1.
         -6    2    1    2    0  503 -0.77117615422E+02  0.48178788145E+01  0.10043978581E+03  0.21363738856E+03  0.17199547858E+03 0.  0.
        -24    2    3    3    0    0 -0.10279759069E+03  0.33813809783E+02  0.11861451088E+03  0.17059513288E+03  0.57641814577E+02 0.  0.
          6    2    1    2  501    0  0.77117615422E+02 -0.48178788145E+01 -0.14665379771E+03  0.23891187258E+03  0.17205001572E+03 0.  0.
         24    2    5    5    0    0 -0.52808280210E+01  0.90231312243E+01 -0.13062080931E+03  0.15370492593E+03  0.80337440755E+02 0.  0.
          5    1    5    5  501    0  0.82398443443E+02 -0.13841010039E+02 -0.16032988401E+02  0.85206946652E+02  0.47000000000E+01 0. -1.
        -13    1    6    6    0    0  0.23658228360E+02  0.24690771667E+02 -0.10922511531E+03  0.11445292390E+03  0.00000000000E+00 0.  1.
         14    1    6    6    0    0 -0.28939056381E+02 -0.15667640442E+02 -0.21395693999E+02  0.39252002025E+02  0.00000000000E+00 0. -1.
         -5    1    3    3    0  503  0.25679975272E+02 -0.28995930969E+02 -0.18174725068E+02  0.43042255680E+02  0.47000000000E+01 0.  1.
         13    1    4    4    0    0 -0.25697248864E+02  0.20351573366E+02  0.57994764476E+01  0.33289173386E+02  0.00000000000E+00 0. -1.
        -14    1    4    4    0    0 -0.77100341831E+02  0.13462236417E+02  0.11281503443E+03  0.13730595950E+03  0.00000000000E+00 0.  1.
</event>
<event>
12    1  0.8728348E-002  0.1823238E+03  0.7818608E-02  0.1165783E+00
         21   -1    0    0  503  502  0.00000000000E+00  0.00000000000E+00  0.30896024306E+03  0.30896024306E+03  0.00000000000E+00 0. -1.
         21   -1    0    0  501  503 -0.00000000000E+00 -0.00000000000E+00 -0.16068427648E+03  0.16068427648E+03  0.00000000000E+00 0. -1.
          6    2    1    2  501    0  0.20079197400E+02  0.52273006715E+02 -0.61378880126E+02  0.19237809396E+03  0.17351173652E+03 0.  0.
         24    2    3    3    0    0  0.30518583261E+02  0.97839752431E+02 -0.21576409422E+02  0.13080183420E+03  0.78355454855E+02 0.  0.
         -6    2    1    2    0  502 -0.20079197400E+02 -0.52273006715E+02  0.20965484670E+03  0.27726642558E+03  0.17258584707E+03 0.  0.
        -24    2    5    5    0    0  0.13691209248E+02 -0.25126788189E+02  0.21734679426E+03  0.23301019887E+03  0.78964036795E+02 0.  0.
          5    1    3    3  501    0 -0.10439385862E+02 -0.45566745716E+02 -0.39802470704E+02  0.61576259763E+02  0.47000000000E+01 0. -1.
        -11    1    4    4    0    0  0.34115624508E+02  0.38691436925E+02 -0.43642626671E+02  0.67569090490E+02  0.00000000000E+00 0.  1.
         12    1    4    4    0    0 -0.35970412462E+01  0.59148315506E+02  0.22066217249E+02  0.63232743707E+02  0.00000000000E+00 0. -1.
         -5    1    5    5    0  502 -0.33770406648E+02 -0.27146218526E+02 -0.76919475575E+01  0.44256226711E+02  0.47000000000E+01 0.  1.
         13    1    6    6    0    0  0.79782920777E+01 -0.42525866432E+02  0.20799477846E+03  0.21244747663E+03  0.00000000000E+00 0. -1.
        -14    1    6    6    0    0  0.57129171706E+01  0.17399078244E+02  0.93520157992E+01  0.20562722238E+02  0.00000000000E+00 0.  1.
</event>
<event>
12    1  0.8728348E-002  0.2396376E+03  0.7818608E-02  0.1121362E+00
         21   -1    0    0  501  502  0.00000000000E+00  0.00000000000E+00  0.68249344478E+02  0.68249344478E+02  0.00000000000E+00 0. -1.
         21   -1    0    0  502  503 -0.00000000000E+00 -0.00000000000E+00 -0.83669182299E+03  0.83669182299E+03  0.00000000000E+00 0.  1.
         -6    2    1    2    0  503  0.68179705250E+02  0.14732839490E+03 -0.46460684307E+03  0.52276736785E+03  0.17627272649E+03 0.  0.
        -24    2    3    3    0    0  0.53016869181E+02  0.14103282974E+03 -0.22438195312E+03  0.28193623719E+03  0.80247949972E+02 0.  0.
          6    2    1    2  501    0 -0.68179705250E+02 -0.14732839490E+03 -0.30383563543E+03  0.38217379962E+03  0.16548894708E+03 0.  0.
         24    2    5    5    0    0 -0.66850674057E+02 -0.49717030385E+02 -0.23807311771E+03  0.26437505793E+03  0.79212159092E+02 0.  0.
          5    1    5    5  501    0 -0.13290311923E+01 -0.97611364511E+02 -0.65762517726E+02  0.11779874169E+03  0.47000000000E+01 0. -1.
        -11    1    6    6    0    0 -0.82465314398E+02 -0.54195456802E+02 -0.20662001620E+03  0.22897490411E+03  0.00000000000E+00 0.  1.
         12    1    6    6    0    0  0.15614640341E+02  0.44784264170E+01 -0.31453101506E+02  0.35400153820E+02  0.00000000000E+00 0. -1.
         -5    1    3    3    0  503  0.15162836069E+02  0.62955651568E+01 -0.24022488996E+03  0.24083113065E+03  0.47000000000E+01 0.  1.
         11    1    4    4    0    0  0.47074149418E+02  0.74275981095E+02 -0.65974665089E+02  0.10993431377E+03  0.00000000000E+00 0. -1.
        -12    1    4    4    0    0  0.59427197626E+01  0.66756848645E+02 -0.15840728803E+03  0.17200192342E+03  0.00000000000E+00 0.  1.
</event>
<event>
12    1  0.8728348E-002  0.1888577E+03  0.7818608E-02  0.1159575E+00
         21   -1    0    0  503  502  0.00000000000E+00  0.00000000000E+00  0.15132406908E+03  0.15132406908E+03  0.00000000000E+00 0. -1.
         21   -1    0    0  501  503 -0.00000000000E+00 -0.00000000000E+00 -0.70585378504E+03  0.70585378504E+03  0.00000000000E+00 0.  1.
          6    2    1    2  501    0 -0.56304543055E+02 -0.56699497773E+02 -0.62729711245E+03  0.65510983698E+03  0.17112041553E+03 0.  0.
         24    2    3    3    0    0 -0.54876825425E+01 -0.51199673808E+02 -0.17653593209E+03  0.20143557819E+03  0.82218219292E+02 0.  0.
         -6    2    1    2    0  502  0.56304543055E+02  0.56699497773E+02  0.72767396482E+02  0.20206801714E+03  0.17073767874E+03 0.  0.
        -24    2    5    5    0    0  0.41234605476E+02 -0.29110022966E+02  0.65797580670E+02  0.11454062028E+03  0.79009783865E+02 0.  0.
          5    1    3    3  501    0 -0.50816860513E+02 -0.54998239652E+01 -0.45076118036E+03  0.45367425880E+03  0.47000000000E+01 0. -1.
        -13    1    4    4    0    0  0.16916103461E+02 -0.42008033314E+02 -0.17059219820E+03  0.17650078613E+03  0.00000000000E+00 0.  1.
         14    1    4    4    0    0 -0.22403786003E+02 -0.91916404936E+01 -0.59437338895E+01  0.24934792054E+02  0.00000000000E+00 0. -1.
         -5    1    5    5    0  502  0.15069937579E+02  0.85809520739E+02  0.69698158122E+01  0.87527396857E+02  0.47000000000E+01 0.  1.
         11    1    6    6    0    0 -0.21068416141E+02 -0.50577687434E+01  0.34610183287E+02  0.40832878548E+02  0.00000000000E+00 0. -1.
        -12    1    6    6    0    0  0.62303021617E+02 -0.24052254223E+02  0.31187397383E+02  0.73707741732E+02  0.00000000000E+00 0.  1.
</event>
<event>
12    1  0.8728348E-002  0.2222005E+03  0.7818608E-02  0.1132753E+00
         21   -1    0    0  501  502  0.00000000000E+00  0.00000000000E+00  0.25942914189E+03  0.25942914189E+03  0.00000000000E+00 0. -1.
         21   -1    0    0  502  503 -0.00000000000E+00 -0.00000000000E+00 -0.23030853660E+03  0.23030853660E+03  0.00000000000E+00 0.  1.
         -6    2    1    2    0  503 -0.10438467118E+03  0.92182662512E+02 -0.90308046423E+02  0.23985118999E+03  0.17314516235E+03 0.  0.
        -24    2    3    3    0    0 -0.32997663225E+02 -0.21082202391E+02 -0.22067912371E+02  0.89505453693E+02  0.77401088161E+02 0.  0.
          6    2    1    2  501    0  0.10438467118E+03 -0.92182662512E+02  0.11942865170E+03  0.24988648850E+03  0.16966511558E+03 0.  0.
         24    2    5    5    0    0  0.37645161166E+02 -0.11931779753E+03  0.65953636883E+02  0.16004137200E+03  0.74896352161E+02 0.  0.
          5    1    5    5  501    0  0.66739510014E+02  0.27135135017E+02  0.53475014822E+02  0.89845116504E+02  0.47000000000E+01 0. -1.
        -11    1    6    6    0    0  0.50091156947E+02 -0.12278241366E+03  0.62887143261E+02  0.14676320348E+03  0.00000000000E+00 0.  1.
         12    1    6    6    0    0 -0.12445995782E+02  0.34646161354E+01  0.30664936213E+01  0.13278168514E+02  0.00000000000E+00 0. -1.
         -5    1    3    3    0  503 -0.71387007954E+02  0.11326486490E+03 -0.68240134052E+02  0.15034573629E+03  0.47000000000E+01 0.  1.
         13    1    4    4    0    0 -0.47858419685E+02  0.94082501411E+01  0.47797428480E+00  0.48776756400E+02  0.00000000000E+00 0. -1.
        -14    1    4    4    0    0  0.14860756460E+02 -0.30490452532E+02 -0.22545886656E+02  0.40728697294E+02  0.00000000000E+00 0.  1.
</event>
<event>
12    1  0.8728348E-002  0.1771086E+03  0.7818608E-02  0.1170671E+00
         21   -1    0    0  503  502  0.00000000000E+00  0.00000000000E+00  0.75762338699E+02  0.75762338699E+02  0.00000000000E+00 0.  1.
         21   -1    0    0  501  503 -0.00000000000E+00 -0.00000000000E+00 -0.42142607298E+03  0.42142607298E+03  0.00000000000E+00 0.  1.
          6    2    1    2  501    0 -0.69636587670E+01  0.46497799868E+02 -0.20652481000E+03  0.27196165561E+03  0.17058753483E+03 0.  0.
         24    2    3    3    0    0 -0.70554752692E+02  0.30519676978E+02 -0.13189018228E+03  0.17250540748E+03  0.80334747252E+02 0.  0.
         -6    2    1    2    0  502  0.69636587670E+01 -0.46497799868E+02 -0.13913892428E+03  0.22522675607E+03  0.17075395593E+03 0.  0.
        -24    2    5    5    0    0 -0.87367754139E+00 -0.29438753721E+02 -0.16916368866E+03  0.18950545470E+03  0.80178302967E+02 0.  0.
          5    1    3    3  501    0  0.63591093925E+02  0.15978122890E+02 -0.74634627714E+02  0.99456248128E+02  0.47000000000E+01 0. -1.
        -11    1    4    4    0    0  0.10738922313E+02  0.17601340505E+02 -0.49358956535E+01  0.21201290195E+02  0.00000000000E+00 0.  1.
         12    1    4    4    0    0 -0.81293675004E+02  0.12918336473E+02 -0.12695428663E+03  0.15130411728E+03  0.00000000000E+00 0. -1.
         -5    1    5    5    0  502  0.78373363083E+01 -0.17059046147E+02  0.30024764378E+02  0.35721301373E+02  0.47000000000E+01 0.  1.
         13    1    6    6    0    0  0.17732081013E+02  0.21409933788E+02 -0.34119664542E+02  0.44010947164E+02  0.00000000000E+00 0. -1.
        -14    1    6    6    0    0 -0.18605758554E+02 -0.50848687509E+02 -0.13504402412E+03  0.14549450754E+03  0.00000000000E+00 0.  1.
</event>
<event>
12    1  0.8728348E-002  0.1857825E+03  0.7818608E-02  0.1162599E+00
         21   -1    0    0  503  502  0.00000000000E+00  0.00000000000E+00  0.26506776131E+03  0.26506776131E+03  0.00000000000E+00 0.  1.
         21   -1    0    0  501  503 -0.00000000000E+00 -0.00000000000E+00 -0.13147479581E+03  0.13147479581E+03  0.00000000000E+00 0.  1.
          6    2    1    2  501    0  0.30055022858E+02  0.61043676724E+02  0.41976976011E+02  0.19046576420E+03  0.17287424895E+03 0.  0.
         24    2    3    3    0    0  0.63003852629E+02  0.71639368029E+02 -0.13444859538E+02  0.12495573510E+03  0.79570641496E+02 0.  0.
         -6    2    1    2    0  502 -0.30055022858E+02 -0.61043676724E+02  0.91615989486E+02  0.20607679292E+03  0.17159405637E+03 0.  0.
        -24    2    5    5    0    0  0.31267196086E+02 -0.37271690799E+02 -0.25813130234E+01  0.91095300269E+02  0.76973203572E+02 0.  0.
          5    1    3    3  501    0 -0.32948829771E+02 -0.10595691305E+02  0.55421835549E+02  0.65510029104E+02  0.47000000000E+01 0. -1.
        -11    1    4    4    0    0 -0.46512102357E+01  0.28727267772E+02 -0.31442081440E+02  0.42842667466E+02  0.00000000000E+00 0.  1.
         12    1    4    4    0    0  0.67655062865E+02  0.42912100257E+02  0.17997221902E+02  0.82113067632E+02  0.00000000000E+00 0. -1.
         -5    1    5    5    0  502 -0.61322218945E+02 -0.23771985925E+02  0.94197302510E+02  0.11498149265E+03  0.47000000000E+01 0.  1.
         13    1    6    6    0    0 -0.25779563870E+00 -0.34532683517E+02 -0.32591187694E+02  0.47484294296E+02  0.00000000000E+00 0. -1.
        -14    1    6    6    0    0  0.31524991725E+02 -0.27390072813E+01  0.30009874671E+02  0.43611005972E+02  0.00000000000E+00 0.  1.
</event>
<event>
12    1  0.8728348E-002  0.2066024E+03  0.7818608E-02  0.1144437E+00
         21   -1    0    0  503  502  0.00000000000E+00  0.00000000000E+00  0.20953932293E+04  0.20953932293E+04  0.00000000000E+00 0.  1.
         21   -1    0    0  501  503 -0.00000000000E+00 -0.00000000000E+00 -0.23341073891E+02  0.23341073891E+02  0.00000000000E+00 0. -1.
          6    2    1    2  501    0 -0.10463101940E+03  0.46032610847E+02  0.14202416675E+04  0.14351902086E+04  0.17209848742E+03 0.  0.
         24    2    3    3    0    0 -0.13528816624E+03  0.32191428771E+02  0.13139155055E+04  0.13235712958E+04  0.78280543520E+02 0.  0.
         -6    2    1    2    0  502  0.10463101940E+03 -0.46032610847E+02  0.65181048792E+03  0.68354409456E+03  0.17119861441E+03 0.  0.
        -24    2    5    5    0    0  0.74627486852E+02 -0.56431361455E+02  0.23471826021E+03  0.26521842909E+03  0.80587797494E+02 0.  0.
          5    1    3    3  501    0  0.30657146842E+02  0.13841182076E+02  0.10632616199E+03  0.11161891281E+03  0.47000000000E+01 0. -1.
        -11    1    4    4    0    0 -0.74140661876E+02  0.40028257447E+02  0.10074307515E+04  0.10109479800E+04  0.00000000000E+00 0.  1.
         12    1    4    4    0    0 -0.61147504361E+02 -0.78368286758E+01  0.30648475398E+03  0.31262331582E+03  0.00000000000E+00 0. -1.
         -5    1    5    5    0  502  0.30003532543E+02  0.10398750608E+02  0.41709222771E+03  0.41832566547E+03  0.47000000000E+01 0.  1.
         11    1    6    6    0    0 -0.15013452689E+02 -0.10222014922E+02  0.15357866341E+02  0.23785655536E+02  0.00000000000E+00 0. -1.
        -12    1    6    6    0    0  0.89640939541E+02 -0.46209346533E+02  0.21936039387E+03  0.24143277356E+03  0.00000000000E+00 0.  1.
</event>
<event>
12    1  0.8728348E-002  0.1944432E+03  0.7818608E-02  0.1155208E+00
         21   -1    0    0  503  502  0.00000000000E+00  0.00000000000E+00  0.97930291798E+02  0.97930291798E+02  0.00000000000E+00 0.  1.
         21   -1    0    0  501  503 -0.00000000000E+00 -0.00000000000E+00 -0.56331965716E+03  0.56331965716E+03  0.00000000000E+00 0.  1.
          6    2    1    2  501    0  0.44069834344E+02 -0.71474200884E+02 -0.42009635291E+03  0.46160120771E+03  0.17188373262E+03 0.  0.
         24    2    3    3    0    0 -0.43561672450E+01  0.11460455939E+02 -0.27024391295E+03  0.28355324032E+03  0.84972638903E+02 0.  0.
         -6    2    1    2    0  502 -0.44069834344E+02  0.71474200884E+02 -0.45293012458E+02  0.19964874125E+03  0.17537802375E+03 0.  0.
        -24    2    5    5    0    0 -0.72731737662E+02  0.74974123495E+02 -0.80335682427E+02  0.15399972288E+03  0.79693587681E+02 0.  0.
          5    1    3    3  501    0  0.48426001589E+02 -0.82934656824E+02 -0.14985243995E+03  0.17804796739E+03  0.47000000000E+01 0. -1.
        -11    1    4    4    0    0  0.36563766860E+02  0.13795436133E+02 -0.18347905064E+03  0.18759473641E+03  0.00000000000E+00 0.  1.
         12    1    4    4    0    0 -0.40919934105E+02 -0.23349801940E+01 -0.86764862316E+02  0.95958503909E+02  0.00000000000E+00 0. -1.
         -5    1    5    5    0  502  0.28661903318E+02 -0.34999226101E+01  0.35042669970E+02  0.45649018376E+02  0.47000000000E+01 0.  1.
         13    1    6    6    0    0 -0.43786598578E+02  0.88969312125E+02 -0.62862330512E+02  0.11740731371E+03  0.00000000000E+00 0. -1.
        -14    1    6    6    0    0 -0.28945139085E+02 -0.13995188631E+02 -0.17473351916E+02  0.36592409166E+02  0.00000000000E+00 0.  1.
</event>
<event>
12    1  0.8728348E-002  0.1941676E+03  0.7818608E-02  0.1154935E+00
         21   -1    0    0  501  502  0.00000000000E+00  0.00000000000E+00  0.20388170133E+03  0.20388170133E+03  0.00000000000E+00 0.  1.
         21   -1    0    0  502  503 -0.00000000000E+00 -0.00000000000E+00 -0.18572230613E+03  0.18572230613E+03  0.00000000000E+00 0. -1.
         -6    2    1    2    0  503 -0.48879035190E+02  0.69664478893E+02 -0.89245344313E+01  0.19355658957E+03  0.17361510980E+03 0.  0.
        -24    2    3    3    0    0 -0.93820065111E+02  0.32267432523E+02 -0.31350524833E+02  0.13076128487E+03  0.79197641344E+02 0.  0.
          6    2    1    2  501    0  0.48879035190E+02 -0.69664478893E+02  0.27083929625E+02  0.19604741789E+03  0.17452435680E+03 0.  0.
         24    2    5    5    0    0  0.10155847888E+03 -0.59551489823E+02  0.70769989898E+01  0.13860384898E+03  0.72804110220E+02 0.  0.
          5    1    5    5  501    0 -0.52679443689E+02 -0.10112989070E+02  0.20006930635E+02  0.57443568907E+02  0.47000000000E+01 0. -1.
        -11    1    6    6    0    0  0.93687160690E+01  0.10049998678E+02  0.17921994076E+02  0.22582585898E+02  0.00000000000E+00 0.  1.
         12    1    6    6    0    0  0.92189762811E+02 -0.69601488501E+02 -0.10844995086E+02  0.11602126308E+03  0.00000000000E+00 0. -1.
         -5    1    3    3    0  503  0.44941029920E+02  0.37397046370E+02  0.22425990402E+02  0.62795304705E+02  0.47000000000E+01 0.  1.
         11    1    4    4    0    0 -0.17111953311E+02 -0.91603334625E+01 -0.38676705958E+02  0.43273759243E+02  0.00000000000E+00 0. -1.
        -12    1    4    4    0    0 -0.76708111799E+02  0.41427765985E+02  0.73261811252E+01  0.87487525627E+02  0.00000000000E+00 0.  1.
</event>
<event>
12    1  0.8728348E-002  0.2069733E+03  0.7818608E-02  0.1144060E+00
         21   -1    0    0  501  502  0.00000000000E+00  0.00000000000E+00  0.21025382240E+03  0.21025382240E+03  0.00000000000E+00 0.  1.
         21   -1    0    0  502  503 -0.00000000000E+00 -0.00000000000E+00 -0.46963414409E+03  0.46963414409E+03  0.00000000000E+00 0. -1.
         -6    2    1    2    0  503 -0.17208253534E+02  0.11461641568E+03 -0.38560246678E+03  0.43746273874E+03  0.17103022737E+03 0.  0.
        -24    2    3    3    0    0 -0.75709083591E+02  0.93713548584E+02 -0.26507243758E+03  0.30178350338E+03  0.79346022101E+02 0.  0.
          6    2    1    2  501    0  0.17208253534E+02 -0.11461641568E+03  0.12622214508E+03  0.24242522775E+03  0.17147861210E+03 0.  0.
         24    2    5    5    0    0  0.83297924267E+01  0.11386301502E+02  0.35003263481E+02  0.86545510759E+02  0.77883654732E+02 0.  0.
          5    1    5    5  501    0  0.88784611077E+01 -0.12600271718E+03  0.91218881603E+02  0.15587971699E+03  0.47000000000E+01 0. -1.
        -11    1    6    6    0    0 -0.17655116184E+01 -0.27595129916E+02  0.37044160790E+02  0.46226378563E+02  0.00000000000E+00 0.  1.
         12    1    6    6    0    0  0.10095304045E+02  0.38981431419E+02 -0.20408973091E+01  0.40319132196E+02  0.00000000000E+00 0. -1.
         -5    1    3    3    0  503  0.58500830057E+02  0.20902867096E+02 -0.12053002920E+03  0.13567923536E+03  0.47000000000E+01 0.  1.
         13    1    4    4    0    0 -0.51048668243E+02  0.60057319647E+01 -0.73989185526E+02  0.90091258847E+02  0.00000000000E+00 0. -1.
        -14    1    4    4    0    0 -0.24660415348E+02  0.87707816620E+02 -0.19108325205E+03  0.21169224454E+03  0.00000000000E+00 0.  1.
</event>
<event>
12    1  0.8728348E-002  0.1796740E+03  0.7818608E-02  0.1168606E+00
         21   -1    0    0  501  502  0.00000000000E+00  0.00000000000E+00  0.24966485879E+03  0.24966485879E+03  0.00000000000E+00 0. -1.
         21   -1    0    0  502  503 -0.00000000000E+00 -0.00000000000E+00 -0.12860028182E+03  0.12860028182E+03  0.00000000000E+00 0. -1.
         -6    2    1    2    0  503  0.16022307038E+02  0.40319204115E+02  0.46637084831E+02  0.18562802046E+03  0.17435708118E+03 0.  0.
        -24    2    3    3    0    0  0.40261246077E+02  0.86108255839E+02  0.15174057795E+02  0.12483184054E+03  0.79480417224E+02 0.  0.
          6    2    1    2  501    0 -0.16022307038E+02 -0.40319204115E+02  0.74427492134E+02  0.19263712015E+03  0.17229990113E+03 0.  0.
         24    2    5    5    0    0 -0.20572741061E+01 -0.17940522085E+01 -0.24790023423E+02  0.85187527933E+02  0.81455010000E+02 0.  0.
          5    1    5    5  501    0 -0.13965032931E+02 -0.38525151906E+02  0.99217515557E+02  0.10744959222E+03  0.47000000000E+01 0. -1.
        -11    1    6    6    0    0 -0.32629546803E+02 -0.25216569248E+02 -0.21573548448E+02  0.46540097571E+02  0.00000000000E+00 0.  1.
         12    1    6    6    0    0  0.30572272697E+02  0.23422517040E+02 -0.32164749745E+01  0.38647430363E+02  0.00000000000E+00 0. -1.
         -5    1    3    3    0  503 -0.24238939040E+02 -0.45789051724E+02  0.31463027035E+02  0.60796179927E+02  0.47000000000E+01 0.  1.
         13    1    4    4    0    0  0.49520298735E+02  0.33889898753E+02 -0.17543800404E+02  0.62518558500E+02  0.00000000000E+00 0. -1.
        -14    1    4    4    0    0 -0.92590526577E+01  0.52218357086E+02  0.32717858199E+02  0.62313282035E+02  0.00000000000E+00 0.  1.
</event>
<event>
12    1  0.8728348E-002  0.2063030E+03  0.7818608E-02  0.1144565E+00
         21   -1    0    0  501  502  0.00000000000E+00  0.00000000000E+00  0.39338575774E+03  0.39338575774E+03  0.00000000000E+00 0. -1.
         21   -1    0    0  502  503 -0.00000000000E+00 -0.00000000000E+00 -0.12319877881E+03  0.12319877881E+03  0.00000000000E+00 0.  1.
         -6    2    1    2    0  503 -0.37769010285E+02  0.10550269005E+03  0.44604756649E+02  0.21089146807E+03  0.17299800937E+03 0.  0.
        -24    2    3    3    0    0 -0.90912835774E+02  0.63951061672E+02  0.41019331396E+02  0.14317330742E+03  0.80381144622E+02 0.  0.
          6    2    1    2  501    0  0.37769010285E+02 -0.10550269005E+03  0.22558222227E+03  0.30569306848E+03  0.17321546515E+03 0.  0.
         24    2    5    5    0    0 -0.30438845352E+02 -0.10689999005E+03  0.13735339720E+03  0.19406565432E+03  0.80258278617E+02 0.  0.
          5    1    5    5  501    0  0.68207855637E+02  0.13972999995E+01  0.88228825071E+02  0.11162741416E+03  0.47000000000E+01 0. -1.
        -13    1    6    6    0    0  0.73594472492E+01 -0.15177603847E+02 -0.75303621692E+01  0.18472343564E+02  0.00000000000E+00 0.  1.
         14    1    6    6    0    0 -0.37798292602E+02 -0.91722386199E+02  0.14488375937E+03  0.17559331076E+03  0.00000000000E+00 0. -1.
         -5    1    3    3    0  503  0.53143825490E+02  0.41551628375E+02  0.35854252529E+01  0.67718160655E+02  0.47000000000E+01 0.  1.
         13    1    4    4    0    0  0.58978282886E+01 -0.31262782563E+01  0.23093511559E+02  0.24038890789E+02  0.00000000000E+00 0. -1.
        -14    1    4    4    0    0 -0.96810664063E+02  0.67077339928E+02  0.17925819837E+02  0.11913441663E+03  0.00000000000E+00 0.  1.
</event>
<event>
12    1  0.8728348E-002  0.1823218E+03  0.7818608E-02  0.1166136E+00
         21   -1    0    0  501  502  0.00000000000E+00  0.00000000000E+00  0.99617448243E+02  0.99617448243E+02  0.00000000000E+00 0. -1.
         21   -1    0    0  502  503 -0.00000000000E+00 -0.00000000000E+00 -0.33176476821E+03  0.33176476821E+03  0.00000000000E+00 0. -1.
         -6    2    1    2    0  503  0.58782657512E+02  0.85683248034E+01 -0.13498284313E+03  0.22685153363E+03  0.17237294844E+03 0.  0.
        -24    2    3    3    0    0 -0.32428542841E+02  0.27075978580E+02 -0.50988732572E+02  0.10139589634E+03  0.76789048296E+02 0.  0.
          6    2    1    2  501    0 -0.58782657512E+02 -0.85683248034E+01 -0.97164476833E+02  0.20453068283E+03  0.16989128184E+03 0.  0.
         24    2    5    5    0    0 -0.90129751892E+01  0.52341834817E+02 -0.25670932983E+02  0.98132912005E+02  0.78423021012E+02 0.  0.
          5    1    5    5  501    0 -0.49769682323E+02 -0.60910159621E+02 -0.71493543850E+02  0.10639777082E+03  0.47000000000E+01 0. -1.
        -11    1    6    6    0    0 -0.34626814483E+02  0.26982621167E+02 -0.39957850231E+02  0.59360828172E+02  0.00000000000E+00 0.  1.
         12    1    6    6    0    0  0.25613839293E+02  0.25359213650E+02  0.14286917248E+02  0.38772083833E+02  0.00000000000E+00 0. -1.
         -5    1    3    3    0  503  0.91211200354E+02 -0.18507653776E+02 -0.83994110563E+02  0.12545563729E+03  0.47000000000E+01 0.  1.
         11    1    4    4    0    0 -0.18352894315E+01  0.99266681046E+01 -0.63395415268E+02  0.64194125152E+02  0.00000000000E+00 0. -1.
        -12    1    4    4    0    0 -0.30593253410E+02  0.17149310475E+02  0.12406682696E+02  0.37201771188E+02  0.00000000000E+00 0.  1.
</event>
<event>
12    1  0.8728348E-002  0.2249769E+03  0.7818608E-02  0.1131671E+00
         21   -1    0    0  503  502  0.00000000000E+00  0.00000000000E+00  0.24926306044E+03  0.24926306044E+03  0.00000000000E+00 0.  1.
         21   -1    0    0  501  503 -0.00000000000E+00 -0.00000000000E+00 -0.19958568464E+03  0.19958568464E+03  0.00000000000E+00 0. -1.
          6    2    1    2  501    0 -0.75758235530E+02 -0.12356975399E+03  0.54269037968E+02  0.22382495556E+03  0.16169009832E+03 0.  0.
         24    2    3    3    0    0 -0.87470431557E+02 -0.52673163412E+02  0.73240104267E+02  0.14935688557E+03  0.80733065423E+02 0.  0.
         -6    2    1    2    0  502  0.75758235530E+02  0.12356975399E+03 -0.45916621649E+01  0.22502378952E+03  0.17206344219E+03 0.  0.
        -24    2    5    5    0    0 -0.18313073454E+02  0.82480842526E+02 -0.22565771653E+02  0.12070280203E+03  0.83195518657E+02 0.  0.
          5    1    3    3  501    0  0.11712196027E+02 -0.70896590581E+02 -0.18971066299E+02  0.74468069991E+02  0.47000000000E+01 0. -1.
        -11    1    4    4    0    0 -0.14737870703E+02 -0.52874383472E+02  0.17145133578E+02  0.57505311631E+02  0.00000000000E+00 0.  1.
         12    1    4    4    0    0 -0.72732560854E+02  0.20122005941E+00  0.56094970689E+02  0.91851573936E+02  0.00000000000E+00 0. -1.
         -5    1    5    5    0  502  0.94071308983E+02  0.41088911467E+02  0.17974109488E+02  0.10432098749E+03  0.47000000000E+01 0.  1.
         13    1    6    6    0    0  0.91710664033E+01 -0.13306489010E+02  0.56714595426E+01  0.17127071031E+02  0.00000000000E+00 0. -1.
        -14    1    6    6    0    0 -0.27484139857E+02  0.95787331536E+02 -0.28237231196E+02  0.10357573100E+03  0.00000000000E+00 0.  1.
</event>
<event>
12    1  0.8728348E-002  0.2029817E+03  0.7818608E-02  0.1147832E+00
         21   -1    0    0  501  502  0.00000000000E+00  0.00000000000E+00  0.32937686420E+03  0.32937686420E+03  0.00000000000E+00 0. -1.
         21   -1    0    0  502  503 -0.00000000000E+00 -0.00000000000E+00 -0.12949505066E+03  0.12949505066E+03  0.00000000000E+00 0. -1.
         -6    2    1    2    0  503  0.23443721836E+02 -0.10369667657E+03  0.50697073824E+02  0.20921704758E+03  0.17291318884E+03 0.  0.
        -24    2    3    3    0    0  0.82666287153E+02 -0.76821449333E+02  0.30653333717E+02  0.14100098202E+03  0.78780708009E+02 0.  0.
          6    2    1    2  501    0 -0.23443721836E+02  0.10369667657E+03  0.14918473972E+03  0.24965486729E+03  0.16961384781E+03 0.  0.
         24    2    5    5    0    0  0.10085416731E+02 -0.70577105777E+01  0.84729097970E+02  0.11711296010E+03  0.79905559709E+02 0.  0.
          5    1    5    5  501    0 -0.33529138568E+02  0.11075438715E+03  0.64455641745E+02  0.13254190718E+03  0.47000000000E+01 0. -1.
        -13    1    6    6    0    0 -0.11875744403E+02  0.15905185249E+02 -0.61974355060E+01  0.20794625022E+02  0.00000000000E+00 0.  1.
         14    1    6    6    0    0  0.21961161135E+02 -0.22962895827E+02  0.90926533476E+02  0.96318335083E+02  0.00000000000E+00 0. -1.
         -5    1    3    3    0  503 -0.59222565317E+02 -0.26875227240E+02  0.20043740107E+02  0.68216065552E+02  0.47000000000E+01 0.  1.
         11    1    4    4    0    0 -0.24311400681E+01 -0.44843309602E+02  0.21018372225E+02  0.49584320395E+02  0.00000000000E+00 0. -1.
        -12    1    4    4    0    0  0.85097427221E+02 -0.31978139732E+02  0.96349614913E+01  0.91416661628E+02  0.00000000000E+00 0.  1.
</event>
<event>
12    1  0.8728348E-002  0.3010266E+03  0.7818608E-02  0.1084784E+00
         21   -1    0    0  503  502  0.00000000000E+00  0.00000000000E+00  0.15109726229E+03  0.15109726229E+03  0.00000000000E+00 0. -1.
         21   -1    0    0  501  503 -0.00000000000E+00 -0.00000000000E+00 -0.59890820882E+03  0.59890820882E+03  0.00000000000E+00 0.  1.
          6    2    1    2  501    0 -0.78540385590E+02 -0.23368043072E+03 -0.21995036428E+03  0.37282054840E+03  0.17274797449E+03 0.  0.
         24    2    3    3    0    0 -0.34728510135E+02 -0.11990499548E+03 -0.20130138775E+03  0.24939362904E+03  0.78049062391E+02 0.  0.
         -6    2    1    2    0  502  0.78540385590E+02  0.23368043072E+03 -0.22786058225E+03  0.37718492271E+03  0.17196768621E+03 0.  0.
        -24    2    5    5    0    0  0.23373212095E+02  0.22933418011E+03 -0.17449180029E+03  0.30016139505E+03  0.80678383081E+02 0.  0.
          5    1    3    3  501    0 -0.43811875455E+02 -0.11377543525E+03 -0.18648976532E+02  0.12342691936E+03  0.47000000000E+01 0. -1.
        -13    1    4    4    0    0  0.18246879421E+02 -0.27462805261E+02 -0.87471823358E+02  0.93479806177E+02  0.00000000000E+00 0.  1.
         14    1    4    4    0    0 -0.52975389556E+02 -0.92442190215E+02 -0.11382956439E+03  0.15591382287E+03  0.00000000000E+00 0. -1.
         -5    1    5    5    0  502  0.55167173495E+02  0.43462506165E+01 -0.53368781960E+02  0.77023527664E+02  0.47000000000E+01 0.  1.
         11    1    6    6    0    0  0.30406354334E+02  0.72487532456E+02 -0.22796090110E+02  0.81845283735E+02  0.00000000000E+00 0. -1.
        -12    1    6    6    0    0 -0.70331422395E+01  0.15684664765E+03 -0.15169571018E+03  0.21831611131E+03  0.00000000000E+00 0.  1.
</event>
<event>
12    1  0.8728348E-002  0.1737588E+03  0.7818608E-02  0.1174044E+00
         21   -1    0    0  501  502  0.00000000000E+00  0.00000000000E+00  0.45797298059E+03  0.45797298059E+03  0.00000000000E+00 0.  1.
         21   -1    0    0  502  503 -0.00000000000E+00 -0.00000000000E+00 -0.99430789456E+02  0.99430789456E+02  0.00000000000E+00 0. -1.
         -6    2    1    2    0  503 -0.23139747493E+02 -0.30812444970E+01  0.17351772847E+02  0.17462303459E+03  0.17218355963E+03 0.  0.
        -24    2    3    3    0    0 -0.79981201689E+02 -0.17104239684E+02  0.10621702682E+02  0.11550468588E+03  0.80863862477E+02 0.  0.
          6    2    1    2  501    0  0.23139747493E+02  0.30812444970E+01  0.34119041829E+03  0.38278073546E+03  0.17194547951E+03 0.  0.
         24    2    5    5    0    0  0.57309089684E+02 -0.24383201096E+02  0.32505689902E+03  0.33583161234E+03  0.56938668663E+02 0.  0.
          5    1    5    5  501    0 -0.34169342191E+02  0.27464445593E+02  0.16133519265E+02  0.46949123116E+02  0.47000000000E+01 0. -1.
        -11    1    6    6    0    0  0.13019808724E+02 -0.36013057577E+02  0.16223759717E+03  0.16669581179E+03  0.00000000000E+00 0.  1.
         12    1    6    6    0    0  0.44289280960E+02  0.11629856481E+02  0.16281930186E+03  0.16913580055E+03  0.00000000000E+00 0. -1.
         -5    1    3    3    0  503  0.56841454196E+02  0.14022995187E+02  0.67300701648E+01  0.59118348705E+02  0.47000000000E+01 0.  1.
         11    1    4    4    0    0 -0.72391686390E+02 -0.85761646873E+01 -0.25805362638E+02  0.77330612308E+02  0.00000000000E+00 0. -1.
        -12    1    4    4    0    0 -0.75895152987E+01 -0.85280749971E+01  0.36427065320E+02  0.38174073577E+02  0.00000000000E+00 0.  1.
</event>
<event>
12    1  0.8728348E-002  0.1854492E+03  0.7818608E-02  0.1162762E+00
         21   -1    0    0  503  502  0.00000000000E+00  0.00000000000E+00  0.10166178149E+04  0.10166178149E+04  0.00000000000E+00 0. -1.
         21   -1    0    0  501  503 -0.00000000000E+00 -0.00000000000E+00 -0.48777765992E+02  0.48777765992E+02  0.00000000000E+00 0. -1.
          6    2    1    2  501    0 -0.42322691367E+02  0.52556444392E+02  0.18852430851E+03  0.26444817274E+03  0.17273688405E+03 0.  0.
         24    2    3    3    0    0  0.24825955612E+02 -0.16350720128E+02  0.11351556466E+03  0.14235992692E+03  0.80603295530E+02 0.  0.
         -6    2    1    2    0  502  0.42322691367E+02 -0.52556444392E+02  0.77931574039E+03  0.80094740814E+03  0.17213464889E+03 0.  0.
        -24    2    5    5    0    0 -0.10793867007E+02 -0.83888216574E+02  0.40391539591E+03  0.42048642807E+03  0.80668759126E+02 0.  0.
          5    1    3    3  501    0 -0.67148646979E+02  0.68907164520E+02  0.75008743846E+02  0.12208824582E+03  0.47000000000E+01 0. -1.
        -13    1    4    4    0    0 -0.53583573701E+00 -0.46504630691E+02  0.61793428075E+02  0.77339482471E+02  0.00000000000E+00 0.  1.
         14    1    4    4    0    0  0.25361791349E+02  0.30153910563E+02  0.51722136590E+02  0.65020444447E+02  0.00000000000E+00 0. -1.
         -5    1    5    5    0  502  0.53116558374E+02  0.31331772182E+02  0.37540034448E+03  0.38046098007E+03  0.47000000000E+01 0.  1.
         13    1    6    6    0    0 -0.42688957570E+01 -0.59810227237E+02  0.10806490701E+03  0.12358604646E+03  0.00000000000E+00 0. -1.
        -14    1    6    6    0    0 -0.65249712498E+01 -0.24077989337E+02  0.29585048890E+03  0.29690038161E+03  0.00000000000E+00 0.  1.
</event>
<event>
12    1  0.8728348E-002  0.3528006E+03  0.7818608E-02  0.1061721E+00
         21   -1    0    0  501  502  0.00000000000E+00  0.00000000000E+00  0.53774174025E+03  0.53774174025E+03  0.00000000000E+00 0. -1.
         21   -1    0    0  502  503 -0.00000000000E+00 -0.00000000000E+00 -0.71982781098E+03  0.71982781098E+03  0.00000000000E+00 0.  1.
         -6    2    1    2    0  503  0.53139692098E+02 -0.30081772729E+03 -0.60970725064E+03  0.70319771692E+03  0.17154872678E+03 0.  0.
        -24    2    3    3    0    0  0.57474747812E+02 -0.27601404255E+03 -0.42265531928E+03  0.51440012554E+03  0.80516283524E+02 0.  0.
          6    2    1    2  501    0 -0.53139692098E+02  0.30081772729E+03  0.42762117991E+03  0.55437183431E+03  0.17650247943E+03 0.  0.
         24    2    5    5    0    0 -0.20754022164E+02  0.22535931184E+03  0.19977824273E+03  0.31213786044E+03  0.79379775634E+02 0.  0.
          5    1    5    5  501    0 -0.32385669934E+02  0.75458415449E+02  0.22784293718E+03  0.24223397388E+03  0.47000000000E+01 0. -1.
        -13    1    6    6    0    0 -0.49988623221E+02  0.15373059955E+03  0.12286479194E+03  0.20304609523E+03  0.00000000000E+00 0.  1.
         14    1    6    6    0    0  0.29234601057E+02  0.71628712294E+02  0.76913450789E+02  0.10909176521E+03  0.00000000000E+00 0. -1.
         -5    1    3    3    0  503 -0.43350557131E+01 -0.24803684738E+02 -0.18705193136E+03  0.18879759138E+03  0.47000000000E+01 0.  1.
         13    1    4    4    0    0 -0.98155237380E+01 -0.22168786136E+01 -0.24869308450E+02  0.26827999549E+02  0.00000000000E+00 0. -1.
        -14    1    4    4    0    0  0.67290271550E+02 -0.27379716394E+03 -0.39778601083E+03  0.48757212599E+03  0.00000000000E+00 0.  1.
</event>
<event>
12    1  0.8728348E-002  0.2601296E+03  0.7818608E-02  0.1107122E+00
         21   -1    0    0  503  502  0.00000000000E+00  0.00000000000E+00  0.13426524309E+03  0.13426524309E+03  0.00000000000E+00 0. -1.
         21   -1    0    0  501  503 -0.00000000000E+00 -0.00000000000E+00 -0.69040062545E+03  0.69040062545E+03  0.00000000000E+00 0.  1.
          6    2    1    2  501    0 -0.17531455360E+02 -0.19395798075E+03 -0.49259723694E+03  0.55688888248E+03  0.17188990478E+03 0.  0.
         24    2    3    3    0    0 -0.53625596563E+02 -0.72702435051E+02 -0.32334296741E+03  0.34552476030E+03  0.81702733951E+02 0.  0.
         -6    2    1    2    0  502  0.17531455360E+02  0.19395798075E+03 -0.63538145423E+02  0.26777698606E+03  0.17245395941E+03 0.  0.
        -24    2    5    5    0    0 -0.21189514855E+02  0.39317297078E+02 -0.56918110679E+02  0.10815565465E+03  0.80393587560E+02 0.  0.
          5    1    3    3  501    0  0.36094141203E+02 -0.12125554570E+03 -0.16925426952E+03  0.21136412218E+03  0.47000000000E+01 0. -1.
        -11    1    4    4    0    0 -0.16521408081E+01 -0.61910482439E+02 -0.11603284875E+03  0.13152664899E+03  0.00000000000E+00 0.  1.
         12    1    4    4    0    0 -0.51973455755E+02 -0.10791952612E+02 -0.20731011867E+03  0.21399811131E+03  0.00000000000E+00 0. -1.
         -5    1    5    5    0  502  0.38720970215E+02  0.15464068367E+03 -0.66200347438E+01  0.15962133141E+03  0.47000000000E+01 0.  1.
         11    1    6    6    0    0 -0.34108773332E+02  0.36689424947E+02 -0.37566915159E+00  0.50096541282E+02  0.00000000000E+00 0. -1.
        -12    1    6    6    0    0  0.12919258476E+02  0.26278721316E+01 -0.56542441528E+02  0.58059113371E+02  0.00000000000E+00 0.  1.
</event>
<event>
12    1  0.8728348E-002  0.2005535E+03  0.7818608E-02  0.1149757E+00
         21   -1    0    0  501  502  0.00000000000E+00  0.00000000000E+00  0.31597389579E+03  0.31597389579E+03  0.00000000000E+00 0.  1.
         21   -1    0    0  502  503 -0.00000000000E+00 -0.00000000000E+00 -0.12949423540E+03  0.12949423540E+03  0.00000000000E+00 0.  1.
         -6    2    1    2    0  503  0.80425624681E+02  0.63563353276E+02  0.13115283641E+03  0.23963050155E+03  0.17237496857E+03 0.  0.
        -24    2    3    3    0    0  0.90607795791E+02 -0.55160980576E+00  0.12637207962E+03  0.17436680004E+03  0.78891073752E+02 0.  0.
          6    2    1    2  501    0 -0.80425624681E+02 -0.63563353276E+02  0.55326823979E+02  0.20583762964E+03  0.16970412882E+03 0.  0.
         24    2    5    5    0    0 -0.15496811166E+01 -0.73979117137E+02  0.62866668406E+02  0.12578238706E+03  0.79960487837E+02 0.  0.
          5    1    5    5  501    0 -0.78875943564E+02  0.10415763861E+02 -0.75398444277E+01  0.80055242577E+02  0.47000000000E+01 0. -1.
        -11    1    6    6    0    0  0.35350988913E+02 -0.59425121627E+02  0.36940024394E+02  0.78393895806E+02  0.00000000000E+00 0.  1.
         12    1    6    6    0    0 -0.36900670030E+02 -0.14553995510E+02  0.25926644012E+02  0.47388491258E+02  0.00000000000E+00 0. -1.
         -5    1    3    3    0  503 -0.10182171110E+02  0.64114963081E+02  0.47807567897E+01  0.65263701511E+02  0.47000000000E+01 0.  1.
         13    1    4    4    0    0  0.83157155819E+02  0.22446717129E+02  0.12270036662E+03  0.14991446776E+03  0.00000000000E+00 0. -1.
        -14    1    4    4    0    0  0.74506399719E+01 -0.22998326935E+02  0.36717129988E+01  0.24452332284E+02  0.00000000000E+00 0.  1.
</event>
<event>
12    1  0.8728348E-002  0.1808460E+03  0.7818608E-02  0.1167062E+00
         21   -1    0    0  503  502  0.00000000000E+00  0.00000000000E+00  0.61567041444E+02  0.61567041444E+02  0.00000000000E+00 0.  1.
         21   -1    0    0  501  503 -0.00000000000E+00 -0.00000000000E+00 -0.13648885875E+04  0.13648885875E+04  0.00000000000E+00 0.  1.
          6    2    1    2  501    0  0.44153067453E+02  0.33713842374E+02 -0.12091628275E+04  0.12225656252E+04  0.17177266372E+03 0.  0.
         24    2    3    3    0    0 -0.58748803271E+01  0.72121287530E+02 -0.54876933106E+03  0.55915053076E+03  0.79155183051E+02 0.  0.
         -6    2    1    2    0  502 -0.44153067453E+02 -0.33713842374E+02 -0.94158718567E+02  0.20389000374E+03  0.17210215807E+03 0.  0.
        -24    2    5    5    0    0 -0.33050301030E+02 -0.69394602910E+02 -0.96602626880E+01  0.11137801998E+03  0.80023804881E+02 0.  0.
          5    1    3    3  501    0  0.50027947780E+02 -0.38407445156E+02 -0.66039349639E+03  0.66341509440E+03  0.47000000000E+01 0. -1.
        -13    1    4    4    0    0  0.34643769360E+02  0.37331466869E+02 -0.20354904991E+03  0.20982384253E+03  0.00000000000E+00 0.  1.
         14    1    4    4    0    0 -0.40518649687E+02  0.34789820662E+02 -0.34522028115E+03  0.34932668823E+03  0.00000000000E+00 0. -1.
         -5    1    5    5    0  502 -0.11102766423E+02  0.35680760536E+02 -0.84498455879E+02  0.92511983767E+02  0.47000000000E+01 0.  1.
         13    1    6    6    0    0 -0.24421667032E+02 -0.97828550454E+01 -0.36862309630E+02  0.45287436941E+02  0.00000000000E+00 0. -1.
        -14    1    6    6    0    0 -0.86286339975E+01 -0.59611747865E+02  0.27202046942E+02  0.66090583036E+02  0.00000000000E+00 0.  1.
</event>
<event>
12    1  0.8728348E-002  0.2072503E+03  0.7818608E-02  0.1144625E+00
         21   -1    0    0  503  502  0.00000000000E+00  0.00000000000E+00  0.49854488888E+03  0.49854488888E+03  0.00000000000E+00 0. -1.
         21   -1    0    0  501  503 -0.00000000000E+00 -0.00000000000E+00 -0.17365556837E+03  0.17365556837E+03  0.00000000000E+00 0.  1.
          6    2    1    2  501    0 -0.10254928000E+03 -0.47497156106E+02 -0.77686614707E+02  0.22133213856E+03  0.17372498608E+03 0.  0.
         24    2    3    3    0    0 -0.10022200568E+03 -0.87941255271E+02 -0.89615722407E+02  0.17884055147E+03  0.78580215994E+02 0.  0.
         -6    2    1    2    0  502  0.10254928000E+03  0.47497156106E+02  0.40257593522E+03  0.45086831869E+03  0.16864911062E+03 0.  0.
        -24    2    5    5    0    0  0.46948726132E+02  0.92983786638E+02  0.26309937012E+03  0.29390890559E+03  0.79441794828E+02 0.  0.
          5    1    3    3  501    0 -0.23272743181E+01  0.40444099165E+02  0.11929107700E+02  0.42491587091E+02  0.47000000000E+01 0. -1.
        -13    1    4    4    0    0 -0.32856629030E+02 -0.19872821378E+02 -0.71809892533E+02  0.81431859652E+02  0.00000000000E+00 0.  1.
         14    1    4    4    0    0 -0.67365376653E+02 -0.68068433892E+02 -0.17805829874E+02  0.97408691818E+02  0.00000000000E+00 0. -1.
         -5    1    5    5    0  502  0.55600553869E+02 -0.45486630532E+02  0.13947656510E+03  0.15695941310E+03  0.47000000000E+01 0.  1.
         13    1    6    6    0    0 -0.14089636077E+02  0.14759016859E+02  0.10711835158E+03  0.10904442979E+03  0.00000000000E+00 0. -1.
        -14    1    6    6    0    0  0.61038362209E+02  0.78224769779E+02  0.15598101854E+03  0.18486447580E+03  0.00000000000E+00 0.  1.
</event>
<event>
12    1  0.8728348E-002  0.1816977E+03  0.7818608E-02  0.1166245E+00
         21   -1    0    0  503  502  0.00000000000E+00  0.00000000000E+00  0.16502754220E+03  0.16502754220E+03  0.00000000000E+00 0. -1.
         21   -1    0    0  501  503 -0.00000000000E+00 -0.00000000000E+00 -0.24340867229E+03  0.24340867229E+03  0.00000000000E+00 0. -1.
          6    2    1    2  501    0  0.46813409380E+02 -0.35762704149E+02 -0.12574999487E+03  0.22096860198E+03  0.17188250506E+03 0.  0.
         24    2    3    3    0    0  0.96730061231E+02 -0.49566080637E+02 -0.65810808170E+02  0.14161495407E+03  0.62531845074E+02 0.  0.
         -6    2    1    2    0  502 -0.46813409380E+02  0.35762704149E+02  0.47368864777E+02  0.18746761252E+03  0.17155124624E+03 0.  0.
        -24    2    5    5    0    0  0.40494630869E+02  0.17127466763E+02  0.18143019234E+02  0.93413340885E+02  0.80397250335E+02 0.  0.
          5    1    3    3  501    0 -0.49916651851E+02  0.13803376489E+02 -0.59939186696E+02  0.79353647908E+02  0.47000000000E+01 0. -1.
        -13    1    4    4    0    0  0.15844889375E+01  0.11949935507E+02 -0.73970829681E+01  0.14143139689E+02  0.00000000000E+00 0.  1.
         14    1    4    4    0    0  0.95145572293E+02 -0.61516016145E+02 -0.58413725202E+02  0.12747181438E+03  0.00000000000E+00 0. -1.
         -5    1    5    5    0  502 -0.87308040249E+02  0.18635237386E+02  0.29225845543E+02  0.94054271632E+02  0.47000000000E+01 0.  1.
         13    1    6    6    0    0  0.80097635501E-01  0.42712750864E+02  0.14017613739E+01  0.42735821473E+02  0.00000000000E+00 0. -1.
        -14    1    6    6    0    0  0.40414533233E+02 -0.25585284101E+02  0.16741257860E+02  0.50677519412E+02  0.00000000000E+00 0.  1.
</event>
<event>
12    1  0.8728348E-002  0.2363265E+03  0.7818608E-02  0.1122295E+00
         21   -1    0    0  501  502  0.00000000000E+00  0.00000000000E+00  0.65479462168E+03  0.65479462168E+03  0.00000000000E+00 0.  1.
         21   -1    0    0  502  503 -0.00000000000E+00 -0.00000000000E+00 -0.90902624281E+02  0.90902624281E+02  0.00000000000E+00 0.  1.
         -6    2    1    2    0  503  0.14713743938E+03  0.68937597075E+02  0.37498917409E+03  0.44315055046E+03  0.17135842941E+03 0.  0.
        -24    2    3    3    0    0  0.16508856876E+03  0.46587226232E+02  0.23941537797E+03  0.30449945484E+03  0.77301937908E+02 0.  0.
          6    2    1    2  501    0 -0.14713743938E+03 -0.68937597075E+02  0.18890282331E+03  0.30254669550E+03  0.17160538437E+03 0.  0.
         24    2    5    5    0    0 -0.14640047671E+03 -0.26422747528E+02  0.19602829869E+03  0.25917714460E+03  0.81329190476E+02 0.  0.
          5    1    5    5  501    0 -0.73696266838E+00 -0.42514849547E+02 -0.71254753882E+01  0.43369550903E+02  0.47000000000E+01 0. -1.
        -11    1    6    6    0    0 -0.41616464461E+02 -0.34128958640E+02  0.11335605777E+03  0.12548430884E+03  0.00000000000E+00 0.  1.
         12    1    6    6    0    0 -0.10478401225E+03  0.77062111129E+01  0.82672240929E+02  0.13369283576E+03  0.00000000000E+00 0. -1.
         -5    1    3    3    0  503 -0.17951129380E+02  0.22350370842E+02  0.13557379612E+03  0.13865109562E+03  0.47000000000E+01 0.  1.
         13    1    4    4    0    0  0.51455874039E+02 -0.11387856310E+02  0.11407168977E+03  0.12565723477E+03  0.00000000000E+00 0. -1.
        -14    1    4    4    0    0  0.11363269472E+03  0.57975082543E+02  0.12534368821E+03  0.17884222007E+03  0.00000000000E+00 0.  1.
</event>
<event>
12    1  0.8728348E-002  0.2585736E+03  0.7818608E-02  0.1108666E+00
         21   -1    0    0  503  502  0.00000000000E+00  0.00000000000E+00  0.53036612312E+03  0.53036612312E+03  0.00000000000E+00 0.  1.
         21   -1    0    0  501  503 -0.00000000000E+00 -0.00000000000E+00 -0.15707604847E+03  0.15707604847E+03  0.00000000000E+00 0.  1.
          6    2    1    2  501    0  0.12273005735E+03 -0.14198934711E+03  0.27569197823E+02  0.25572092853E+03  0.17149195594E+03 0.  0.
         24    2    3    3    0    0  0.12567198634E+03 -0.46102992761E+02  0.71672914445E+01  0.15753143989E+03  0.82739654301E+02 0.  0.
         -6    2    1    2    0  502 -0.12273005735E+03  0.14198934711E+03  0.34572087683E+03  0.43172124307E+03  0.17786698786E+03 0.  0.
        -24    2    5    5    0    0 -0.14497830460E+03  0.11980171548E+03  0.21003629196E+03  0.29236675955E+03  0.77407482305E+02 0.  0.
          5    1    3    3  501    0 -0.29419289920E+01 -0.95886354349E+02  0.20401906378E+02  0.98189488645E+02  0.47000000000E+01 0. -1.
        -13    1    4    4    0    0  0.68050807397E+02 -0.66580836617E+02 -0.43524467982E+01  0.95304060696E+02  0.00000000000E+00 0.  1.
         14    1    4    4    0    0  0.57621178942E+02  0.20477843856E+02  0.11519738243E+02  0.62227379190E+02  0.00000000000E+00 0. -1.
         -5    1    5    5    0  502  0.22248247249E+02  0.22187631629E+02  0.13568458487E+03  0.13935448351E+03  0.47000000000E+01 0.  1.
         13    1    6    6    0    0 -0.93822555859E+01 -0.90972318889E+01  0.31662323865E+01  0.13446612043E+02  0.00000000000E+00 0. -1.
        -14    1    6    6    0    0 -0.13559604901E+03  0.12889894737E+03  0.20687005957E+03  0.27892014751E+03  0.00000000000E+00 0.  1.
</event>
<event>
12    1  0.8728348E-002  0.1742127E+03  0.7818608E-02  0.1173985E+00
         21   -1    0    0  501  502  0.00000000000E+00  0.00000000000E+00  0.14930437227E+03  0.14930437227E+03  0.00000000000E+00 0. -1.
         21   -1    0    0  502  503 -0.00000000000E+00 -0.00000000000E+00 -0.27107922101E+03  0.27107922101E+03  0.00000000000E+00 0. -1.
         -6    2    1    2    0  503  0.18115148288E+02  0.65143804338E+01 -0.16786844773E+03  0.24192946775E+03  0.17314576481E+03 0.  0.
        -24    2    3    3    0    0 -0.51666776498E+02  0.29415516254E+02 -0.11074011509E+03  0.14876447733E+03  0.79578692098E+02 0.  0.
          6    2    1    2  501    0 -0.18115148288E+02 -0.65143804338E+01  0.46093598986E+02  0.17845412554E+03  0.17132034119E+03 0.  0.
         24    2    5    5    0    0 -0.23135976597E+02 -0.70015869202E+02  0.27092329560E+02  0.11181490261E+03  0.79568101476E+02 0.  0.
          5    1    5    5  501    0  0.50208283084E+01  0.63501488768E+02  0.19001269426E+02  0.66639222928E+02  0.47000000000E+01 0. -1.
        -13    1    6    6    0    0 -0.19917884702E+02  0.37326979583E+01  0.31952075935E+02  0.37836362426E+02  0.00000000000E+00 0.  1.
         14    1    6    6    0    0 -0.32180918947E+01 -0.73748567160E+02 -0.48597463751E+01  0.73978540189E+02  0.00000000000E+00 0. -1.
         -5    1    3    3    0  503  0.69781924786E+02 -0.22901135820E+02 -0.57128332639E+02  0.93164990414E+02  0.47000000000E+01 0.  1.
         13    1    4    4    0    0  0.80100555462E+01 -0.77380640623E+00  0.87149971324E+01  0.11862164272E+02  0.00000000000E+00 0. -1.
        -14    1    4    4    0    0 -0.59676832044E+02  0.30189322660E+02 -0.11945511222E+03  0.13690231306E+03  0.00000000000E+00 0.  1.
</event>
<event>
12    1  0.8728348E-002  0.2021657E+03  0.7818608E-02  0.1148092E+00
         21   -1    0    0  503  502  0.00000000000E+00  0.00000000000E+00  0.21042365544E+03  0.21042365544E+03  0.00000000000E+00 0.  1.
         21   -1    0    0  501  503 -0.00000000000E+00 -0.00000000000E+00 -0.19594943090E+03  0.19594943090E+03  0.00000000000E+00 0.  1.
          6    2    1    2  501    0 -0.81592632865E+02 -0.70080880104E+02 -0.15641714138E+02  0.20276987220E+03  0.17117905934E+03 0.  0.
         24    2    3    3    0    0 -0.10994248855E+03 -0.93846983748E+02 -0.13091144622E+02  0.16539157095E+03  0.79299347572E+02 0.  0.
         -6    2    1    2    0  502  0.81592632865E+02  0.70080880104E+02  0.30115938678E+02  0.20360321414E+03  0.17023105342E+03 0.  0.
        -24    2    5    5    0    0  0.14407400706E+02  0.49330449574E+02 -0.40512572945E+02  0.10382890661E+03  0.80610835695E+02 0.  0.
          5    1    3    3  501    0  0.28349855684E+02  0.23766103644E+02 -0.25505695166E+01  0.37378301253E+02  0.47000000000E+01 0. -1.
        -13    1    4    4    0    0 -0.11805590117E+02  0.14361524160E+02 -0.40703806476E+01  0.19031377586E+02  0.00000000000E+00 0.  1.
         14    1    4    4    0    0 -0.98136898431E+02 -0.10820850791E+03 -0.90207639740E+01  0.14636019336E+03  0.00000000000E+00 0. -1.
         -5    1    5    5    0  502  0.67185232159E+02  0.20750430530E+02  0.70628511623E+02  0.99774307522E+02  0.47000000000E+01 0.  1.
         11    1    6    6    0    0 -0.12442331060E+02 -0.35341352505E+01 -0.42579391018E+02  0.44500632059E+02  0.00000000000E+00 0. -1.
        -12    1    6    6    0    0  0.26849731766E+02  0.52864584825E+02  0.20668180734E+01  0.59328274554E+02  0.00000000000E+00 0.  1.
</event>
<event>
12    1  0.8728348E-002  0.2623945E+03  0.7818608E-02  0.1105871E+00
         21   -1    0    0  501  502  0.00000000000E+00  0.00000000000E+00  0.20742030496E+04  0.20742030496E+04  0.00000000000E+00 0. -1.
         21   -1    0    0  502  503 -0.00000000000E+00 -0.00000000000E+00 -0.36612813747E+02  0.36612813747E+02  0.00000000000E+00 0.  1.
         -6    2    1    2    0  503  0.19557668006E+03 -0.32989830143E+02  0.68813887168E+03  0.73609048612E+03  0.17016324622E+03 0.  0.
        -24    2    3    3    0    0  0.20968397877E+03 -0.22788074481E+02  0.67943745236E+03  0.71606808882E+03  0.81434567974E+02 0.  0.
          6    2    1    2  501    0 -0.19557668006E+03  0.32989830143E+02  0.13494513642E+04  0.13747253773E+04  0.17179147781E+03 0.  0.
         24    2    5    5    0    0 -0.22083215210E+02  0.26649118701E+02  0.52398241642E+03  0.53118447088E+03  0.80009533625E+02 0.  0.
          5    1    5    5  501    0 -0.17349346485E+03  0.63407114422E+01  0.82546894779E+03  0.84354090638E+03  0.47000000000E+01 0. -1.
        -11    1    6    6    0    0  0.11191827328E+02 -0.76400824916E+01  0.16031891089E+02  0.20991650514E+02  0.00000000000E+00 0.  1.
         12    1    6    6    0    0 -0.33275042538E+02  0.34289201193E+02  0.50795052533E+03  0.51019282037E+03  0.00000000000E+00 0. -1.
         -5    1    3    3    0  503 -0.14107298711E+02 -0.10201755662E+02  0.87014193161E+01  0.20022397299E+02  0.47000000000E+01 0.  1.
         11    1    4    4    0    0  0.50743351834E+02  0.12436770427E+02  0.27817509916E+03  0.28303877262E+03  0.00000000000E+00 0. -1.
        -12    1    4    4    0    0  0.15894062694E+03 -0.35224844908E+02  0.40126235320E+03  0.43302931620E+03  0.00000000000E+00 0.  1.
</event>
<event>
12    1  0.8728348E-002  0.2105606E+03  0.7818608E-02  0.1141220E+00
         21   -1    0    0  503  502  0.00000000000E+00  0.00000000000E+00  0.42648502815E+02  0.42648502815E+02  0.00000000000E+00 0. -1.
         21   -1    0    0  501  503 -0.00000000000E+00 -0.00000000000E+00 -0.11808524131E+04  0.11808524131E+04  0.00000000000E+00 0. -1.
          6    2    1    2  501    0  0.53389543427E+02  0.10859449384E+03 -0.78193224152E+03  0.80965882392E+03  0.17171538480E+03 0.  0.
         24    2    3    3    0    0  0.10832615201E+02  0.11143062627E+03 -0.38309814710E+03  0.40852311040E+03  0.87136739641E+02 0.  0.
         -6    2    1    2    0  502 -0.53389543427E+02 -0.10859449384E+03 -0.35627166871E+03  0.41384209195E+03  0.17231531476E+03 0.  0.
        -24    2    5    5    0    0 -0.26282601832E+02 -0.13877879737E+03 -0.31740067818E+03  0.35746015896E+03  0.84167956937E+02 0.  0.
          5    1    3    3  501    0  0.42556928226E+02 -0.28361324340E+01 -0.39883409442E+03  0.40113571352E+03  0.47000000000E+01 0. -1.
        -11    1    4    4    0    0 -0.16182024670E+02  0.38087288548E+02 -0.43472215552E+02  0.60019438488E+02  0.00000000000E+00 0.  1.
         12    1    4    4    0    0  0.27014639871E+02  0.73343337724E+02 -0.33962593155E+03  0.34850367191E+03  0.00000000000E+00 0. -1.
         -5    1    5    5    0  502 -0.27106941595E+02  0.30184303534E+02 -0.38870990533E+02  0.56381932988E+02  0.47000000000E+01 0.  1.
         11    1    6    6    0    0 -0.39662908806E+02 -0.24711534023E+02 -0.63977884034E+02  0.79227368341E+02  0.00000000000E+00 0. -1.
        -12    1    6    6    0    0  0.13380306974E+02 -0.11406726335E+03 -0.25342279414E+03  0.27823279062E+03  0.00000000000E+00 0.  1.
</event>
<event>
12    1  0.8728348E-002  0.2567421E+03  0.7818608E-02  0.1109136E+00
         21   -1    0    0  503  502  0.00000000000E+00  0.00000000000E+00  0.74650489058E+02  0.74650489058E+02  0.00000000000E+00 0. -1.
         21   -1    0    0  501  503 -0.00000000000E+00 -0.00000000000E+00 -0.88503581431E+03  0.88503581431E+03  0.00000000000E+00 0.  1.
          6    2    1    2  501    0 -0.74247275231E+02 -0.17501611262E+03 -0.37968591604E+03  0.45826980432E+03  0.17235579815E+03 0.  0.
         24    2    3    3    0    0 -0.63758721660E+02 -0.12440608485E+03 -0.37275010662E+03  0.40590970387E+03  0.79233813322E+02 0.  0.
         -6    2    1    2    0  502  0.74247275231E+02  0.17501611262E+03 -0.43069940921E+03  0.50141649904E+03  0.17254920129E+03 0.  0.
        -24    2    5    5    0    0  0.78752686327E+02  0.46293533007E+02 -0.26498082138E+03  0.29147712307E+03  0.79993754589E+02 0.  0.
          5    1    3    3  501    0 -0.10488553571E+02 -0.50610027767E+02 -0.69358094148E+01  0.52360100447E+02  0.47000000000E+01 0. -1.
        -13    1    4    4    0    0 -0.17049378194E+02  0.52446256293E+01 -0.85141274267E+02  0.86989792382E+02  0.00000000000E+00 0.  1.
         14    1    4    4    0    0 -0.46709343466E+02 -0.12965071048E+03 -0.28760883236E+03  0.31891991149E+03  0.00000000000E+00 0. -1.
         -5    1    5    5    0  502 -0.45054110959E+01  0.12872257961E+03 -0.16571858783E+03  0.20993937597E+03  0.47000000000E+01 0.  1.
         11    1    6    6    0    0 -0.15865759697E+02  0.63367729836E+01 -0.23435454787E+02  0.29001682084E+02  0.00000000000E+00 0. -1.
        -12    1    6    6    0    0  0.94618446024E+02  0.39956760023E+02 -0.24154536659E+03  0.26247544099E+03  0.00000000000E+00 0.  1.
</event>
<event>
12    1  0.8728348E-002  0.2862949E+03  0.7818608E-02  0.1092311E+00
         21   -1    0    0  503  502  0.00000000000E+00  0.00000000000E+00  0.42991239418E+03  0.42991239418E+03  0.00000000000E+00 0. -1.
         21   -1    0    0  501  503 -0.00000000000E+00 -0.00000000000E+00 -0.23019778748E+03  0.23019778748E+03  0.00000000000E+00 0.  1.
          6    2    1    2  501    0 -0.19476313976E+03 -0.12010021959E+03  0.23673959323E+03  0.37143105644E+03  0.17192629621E+03 0.  0.
         24    2    3    3    0    0 -0.65698323580E+02  0.55337622669E+01  0.10220126399E+03  0.14656603869E+03  0.81790054957E+02 0.  0.
         -6    2    1    2    0  502  0.19476313976E+03  0.12010021959E+03 -0.37024986528E+02  0.28867912522E+03  0.17206988219E+03 0.  0.
        -24    2    5    5    0    0  0.70629349609E+02  0.22100805505E+02  0.35867690646E+02  0.11447087225E+03  0.79624988104E+02 0.  0.
          5    1    3    3  501    0 -0.12906481618E+03 -0.12563398186E+03  0.13453832924E+03  0.22486501775E+03  0.47000000000E+01 0. -1.
        -13    1    4    4    0    0 -0.94623965987E+01  0.30893391196E+02  0.68960897573E+01  0.33037775696E+02  0.00000000000E+00 0.  1.
         14    1    4    4    0    0 -0.56235926981E+02 -0.25359628929E+02  0.95305174231E+02  0.11352826299E+03  0.00000000000E+00 0. -1.
         -5    1    5    5    0  502  0.12413379015E+03  0.97999414085E+02 -0.72892677174E+02  0.17420825297E+03  0.47000000000E+01 0.  1.
         11    1    6    6    0    0  0.71767481822E+02  0.68010517103E+01  0.54473169977E+02  0.90355697102E+02  0.00000000000E+00 0. -1.
        -12    1    6    6    0    0 -0.11381322131E+01  0.15299753795E+02 -0.18605479332E+02  0.24115175145E+02  0.00000000000E+00 0.  1.
</event>
<event>
12    1  0.8728348E-002  0.1715346E+03  0.7818608E-02  0.1176638E+00
         21   -1    0    0  501  502  0.00000000000E+00  0.00000000000E+00  0.86886331256E+03  0.86886331256E+03  0.00000000000E+00 0.  1.
         21   -1    0    0  502  503 -0.00000000000E+00 -0.00000000000E+00 -0.35099247290E+02  0.35099247290E+02  0.00000000000E+00 0.  1.
         -6    2    1    2    0  503  0.54197557490E+01 -0.10633306829E+02  0.51279331930E+03  0.54072275821E+03  0.17111888255E+03 0.  0.
        -24    2    3    3    0    0 -0.12256301075E+02 -0.25863836068E+02  0.50967803315E+03  0.51671844582E+03  0.80044361674E+02 0.  0.
          6    2    1    2  501    0 -0.54197557490E+01  0.10633306829E+02  0.32097074597E+03  0.36323980164E+03  0.16964224933E+03 0.  0.
         24    2    5    5    0    0  0.33860218166E+02  0.57280050619E+02  0.15602765081E+03  0.18732178182E+03  0.79481466721E+02 0.  0.
          5    1    5    5  501    0 -0.39279973915E+02 -0.46646743790E+02  0.16494309516E+03  0.17591801982E+03  0.47000000000E+01 0. -1.
        -13    1    6    6    0    0  0.55708227001E+02  0.19186900080E+02  0.10087702673E+03  0.11682344889E+03  0.00000000000E+00 0.  1.
         14    1    6    6    0    0 -0.21848008834E+02  0.38093150539E+02  0.55150624088E+02  0.70498332926E+02  0.00000000000E+00 0. -1.
         -5    1    3    3    0  503  0.17676056824E+02  0.15230529238E+02  0.31152861438E+01  0.24004312394E+02  0.47000000000E+01 0.  1.
         11    1    4    4    0    0  0.24907742129E+02 -0.35594920420E+02  0.19983452644E+03  0.20450240081E+03  0.00000000000E+00 0. -1.
        -12    1    4    4    0    0 -0.37164043204E+02  0.97310843527E+01  0.30984350671E+03  0.31221604501E+03  0.00000000000E+00 0.  1.
</event>
<event>
12    1  0.8728348E-002  0.1734137E+03  0.7818608E-02  0.1174420E+00
         21   -1    0    0  501  502  0.00000000000E+00  0.00000000000E+00  0.85110971456E+03  0.85110971456E+03  0.00000000000E+00 0.  1.
         21   -1    0    0  502  503 -0.00000000000E+00 -0.00000000000E+00 -0.40993503337E+02  0.40993503337E+02  0.00000000000E+00 0.  1.
         -6    2    1    2    0  503 -0.21040918050E+02  0.19033824356E+02  0.57147478048E+03  0.59710820548E+03  0.17073305959E+03 0.  0.
        -24    2    3    3    0    0 -0.44878608078E+02 -0.53864774253E+02  0.27968720015E+03  0.29537235548E+03  0.64065553043E+02 0.  0.
          6    2    1    2  501    0  0.21040918050E+02 -0.19033824356E+02  0.23864143075E+03  0.29499501242E+03  0.17107693643E+03 0.  0.
         24    2    5    5    0    0  0.48517596484E+02 -0.42320863316E+02  0.73965982024E+02  0.12636124517E+03  0.79694323163E+02 0.  0.
          5    1    5    5  501    0 -0.27476678434E+02  0.23287038960E+02  0.16467544873E+03  0.16863376724E+03  0.47000000000E+01 0. -1.
        -13    1    6    6    0    0  0.47078339118E+01 -0.26980978024E+02  0.75090923406E+02  0.79929867092E+02  0.00000000000E+00 0.  1.
         14    1    6    6    0    0  0.43809762572E+02 -0.15339885292E+02 -0.11249413824E+01  0.46431378081E+02  0.00000000000E+00 0. -1.
         -5    1    3    3    0  503  0.23837690028E+02  0.72898598609E+02  0.29178758033E+03  0.30173585000E+03  0.47000000000E+01 0.  1.
         13    1    4    4    0    0 -0.22067107929E+02 -0.18317850010E+02  0.27707779174E+02  0.39877586538E+02  0.00000000000E+00 0. -1.
        -14    1    4    4    0    0 -0.22811500149E+02 -0.35546924242E+02  0.25197942098E+03  0.25549476894E+03  0.00000000000E+00 0.  1.
</event>
<event>
12    1  0.8728348E-002  0.2003886E+03  0.7818608E-02  0.1149454E+00
         21   -1    0    0  503  502  0.00000000000E+00  0.00000000000E+00  0.35962415823E+03  0.35962415823E+03  0.00000000000E+00 0.  1.
         21   -1    0    0  501  503 -0.00000000000E+00 -0.00000000000E+00 -0.35382197349E+03  0.35382197349E+03  0.00000000000E+00 0.  1.
          6    2    1    2  501    0 -0.22777527050E+02 -0.99727389802E+02 -0.29228287954E+03  0.35426608354E+03  0.17207791334E+03 0.  0.
         24    2    3    3    0    0 -0.67295251765E+02 -0.17451419488E+02 -0.17197722126E+03  0.20179738342E+03  0.79453233838E+02 0.  0.
         -6    2    1    2    0  502  0.22777527050E+02  0.99727389802E+02  0.29808506429E+03  0.35918004818E+03  0.17231144315E+03 0.  0.
        -24    2    5    5    0    0  0.78461238584E+02  0.40041209402E+02  0.16002133550E+03  0.19872195686E+03  0.78256781900E+02 0.  0.
          5    1    3    3  501    0  0.44517724715E+02 -0.82275970314E+02 -0.12030565828E+03  0.15246870013E+03  0.47000000000E+01 0. -1.
        -13    1    4    4    0    0 -0.23196057840E+02  0.28371510962E+02 -0.95757291032E+02  0.10253028099E+03  0.00000000000E+00 0.  1.
         14    1    4    4    0    0 -0.44099193925E+02 -0.45822930450E+02 -0.76219930233E+02  0.99267102428E+02  0.00000000000E+00 0. -1.
         -5    1    5    5    0  502 -0.55683711534E+02  0.59686180400E+02  0.13806372879E+03  0.16045809131E+03  0.47000000000E+01 0.  1.
         13    1    6    6    0    0 -0.53445182279E+01 -0.13007683599E+02  0.43427831309E+02  0.45648003679E+02  0.00000000000E+00 0. -1.
        -14    1    6    6    0    0  0.83805756812E+02  0.53048893001E+02  0.11659350419E+03  0.15307395318E+03  0.00000000000E+00 0.  1.
</event>
<event>
12    1  0.8728348E-002  0.2041554E+03  0.7818608E-02  0.1146433E+00
         21   -1    0    0  501  502  0.00000000000E+00  0.00000000000E+00  0.87318715638E+03  0.87318715638E+03  0.00000000000E+00 0.  1.
         21   -1    0    0  502  503 -0.00000000000E+00 -0.00000000000E+00 -0.67034191703E+02  0.67034191703E+02  0.00000000000E+00 0. -1.
         -6    2    1    2    0  503  0.46956917061E+02 -0.10133072939E+03  0.65699194739E+03  0.68798099827E+03  0.17089928692E+03 0.  0.
        -24    2    3    3    0    0 -0.39747470611E+02 -0.45946467866E+02  0.38257307768E+03  0.39487201970E+03  0.76621229745E+02 0.  0.
          6    2    1    2  501    0 -0.46956917061E+02  0.10133072939E+03  0.14916101728E+03  0.25224034981E+03  0.17000975330E+03 0.  0.
         24    2    5    5    0    0 -0.15919607326E+02  0.13096846664E+03  0.14194620247E+03  0.20846988468E+03  0.76842665703E+02 0.  0.
          5    1    5    5  501    0 -0.31037309735E+02 -0.29637737247E+02  0.72148148166E+01  0.43770465129E+02  0.47000000000E+01 0. -1.
        -11    1    6    6    0    0  0.16860804360E+02  0.11734025269E+02  0.50961498162E+02  0.54945867612E+02  0.00000000000E+00 0.  1.
         12    1    6    6    0    0 -0.32780411686E+02  0.11923444137E+03  0.90984704306E+02  0.15352401707E+03  0.00000000000E+00 0. -1.
         -5    1    3    3    0  503  0.86704387672E+02 -0.55384261526E+02  0.27441886971E+03  0.29310897857E+03  0.47000000000E+01 0.  1.
         13    1    4    4    0    0  0.11423597229E+02  0.13770868334E+02  0.49312343767E+02  0.52458008312E+02  0.00000000000E+00 0. -1.
        -14    1    4    4    0    0 -0.51171067840E+02 -0.59717336200E+02  0.33326073391E+03  0.34241401139E+03  0.00000000000E+00 0.  1.
</event>
<event>
12    1  0.8728348E-002  0.1919493E+03  0.7818608E-02  0.1156751E+00
         21   -1    0    0  503  502  0.00000000000E+00  0.00000000000E+00  0.37986406329E+03  0.37986406329E+03  0.00000000000E+00 0.  1.
         21   -1    0    0  501  503 -0.00000000000E+00 -0.00000000000E+00 -0.26965067680E+03  0.26965067680E+03  0.00000000000E+00 0.  1.
          6    2    1    2  501    0 -0.73606558044E+02  0.41657888464E+02 -0.20483048823E+03  0.28060121018E+03  0.17212845549E+03 0.  0.
         24    2    3    3    0    0 -0.10248842553E+03  0.69303066057E+02 -0.18185294973E+03  0.23424956093E+03  0.80595093745E+02 0.  0.
         -6    2    1    2    0  502  0.73606558044E+02 -0.41657888464E+02  0.31504387472E+03  0.36891352991E+03  0.17231147523E+03 0.  0.
        -24    2    5    5    0    0  0.64257405152E+02  0.32355752149E+02  0.12787401817E+03  0.16736931428E+03  0.80528342985E+02 0.  0.
          5    1    3    3  501    0  0.28881867483E+02 -0.27645177593E+02 -0.22977538493E+02  0.46351649255E+02  0.47000000000E+01 0. -1.
        -13    1    4    4    0    0 -0.26803521235E+02  0.58561572411E+02 -0.11889421618E+03  0.13521731086E+03  0.00000000000E+00 0.  1.
         14    1    4    4    0    0 -0.75684904293E+02  0.10741493646E+02 -0.62958733551E+02  0.99032250070E+02  0.00000000000E+00 0. -1.
         -5    1    5    5    0  502  0.93491528922E+01 -0.74013640613E+02  0.18716985654E+03  0.20154421563E+03  0.47000000000E+01 0.  1.
         11    1    6    6    0    0  0.38024564394E+02 -0.10825464545E+02  0.12577200335E+02  0.41487879534E+02  0.00000000000E+00 0. -1.
        -12    1    6    6    0    0  0.26232840758E+02  0.43181216694E+02  0.11529681784E+03  0.12588143474E+03  0.00000000000E+00 0.  1.
</event>
<event>
12    1  0.8728348E-002  0.2691238E+03  0.7818608E-02  0.1101790E+00
         21   -1    0    0  503  502  0.00000000000E+00  0.00000000000E+00  0.10063722563E+03  0.10063722563E+03  0.00000000000E+00 0. -1.
         21   -1    0    0  501  503 -0.00000000000E+00 -0.00000000000E+00 -0.73344745707E+03  0.73344745707E+03  0.00000000000E+00 0. -1.
          6    2    1    2  501    0 -0.91269417924E+02 -0.18619126714E+03 -0.25896351028E+03  0.37344490220E+03  0.17146924131E+03 0.  0.
         24    2    3    3    0    0 -0.13115586332E+03 -0.15621956450E+03 -0.21402003253E+03  0.30613043364E+03  0.79403118725E+02 0.  0.
         -6    2    1    2    0  502  0.91269417924E+02  0.18619126714E+03 -0.37384672116E+03  0.46063978051E+03  0.17155273784E+03 0.  0.
        -24    2    5    5    0    0  0.12081433179E+03  0.13060027866E+03 -0.33112339881E+03  0.38441227754E+03  0.80483279853E+02 0.  0.
          5    1    3    3  501    0  0.39886445391E+02 -0.29971702634E+02 -0.44943477756E+02  0.67314468560E+02  0.47000000000E+01 0. -1.
        -13    1    4    4    0    0 -0.40228152554E+02 -0.17310697680E+02 -0.85902490855E+02  0.96422001883E+02  0.00000000000E+00 0.  1.
         14    1    4    4    0    0 -0.90927710761E+02 -0.13890886682E+03 -0.12811754167E+03  0.20970843176E+03  0.00000000000E+00 0. -1.
         -5    1    5    5    0  502 -0.29544913867E+02  0.55590988482E+02 -0.42723322352E+02  0.76227502967E+02  0.47000000000E+01 0.  1.
         13    1    6    6    0    0  0.10177452818E+03  0.10534391236E+03 -0.19065040209E+03  0.24042248288E+03  0.00000000000E+00 0. -1.
        -14    1    6    6    0    0  0.19039803610E+02  0.25256366300E+02 -0.14047299671E+03  0.14398979466E+03  0.00000000000E+00 0.  1.
</event>
<event>
12    1  0.8728348E-002  0.1920155E+03  0.7818608E-02  0.1156959E+00
         21   -1    0    0  501  502  0.00000000000E+00  0.00000000000E+00  0.18787756435E+04  0.18787756435E+04  0.00000000000E+00 0. -1.
         21   -1    0    0  502  503 -0.00000000000E+00 -0.00000000000E+00 -0.32792872589E+02  0.32792872589E+02  0.00000000000E+00 0. -1.
         -6    2    1    2    0  503  0.72224281561E+02  0.41701801435E+02  0.31609342750E+03  0.36984459400E+03  0.17295832362E+03 0.  0.
        -24    2    3    3    0    0  0.42517732034E+02  0.89862072689E+02  0.17270124936E+03  0.21561976602E+03  0.82360259371E+02 0.  0.
          6    2    1    2  501    0 -0.72224281561E+02 -0.41701801435E+02  0.15298893435E+04  0.15417239221E+04  0.17145221427E+03 0.  0.
         24    2    5    5    0    0 -0.60777274547E+02  0.35197354161E+02  0.10963849525E+04  0.11012779424E+04  0.76291621270E+02 0.  0.
          5    1    5    5  501    0 -0.11447007014E+02 -0.76899155596E+02  0.43350439097E+03  0.44044597976E+03  0.47000000000E+01 0. -1.
        -13    1    6    6    0    0 -0.24282776289E+02 -0.18357518579E+02  0.17591472589E+03  0.17852910826E+03  0.00000000000E+00 0.  1.
         14    1    6    6    0    0 -0.36494498259E+02  0.53554872741E+02  0.92047022660E+03  0.92274883412E+03  0.00000000000E+00 0. -1.
         -5    1    3    3    0  503  0.29706549527E+02 -0.48160271254E+02  0.14339217814E+03  0.15422482798E+03  0.47000000000E+01 0.  1.
         11    1    4    4    0    0 -0.23454910711E+02  0.27250234821E+02  0.32300018566E+02  0.48332177001E+02  0.00000000000E+00 0. -1.
        -12    1    4    4    0    0  0.65972642745E+02  0.62611837868E+02  0.14040123079E+03  0.16728758902E+03  0.00000000000E+00 0.  1.
</event>
<event>
12    1  0.8728348E-002  0.2487076E+03  0.7818608E-02  0.1114159E+00
         21   -1    0    0  503  502  0.00000000000E+00  0.00000000000E+00  0.12286023279E+04  0.12286023279E+04  0.00000000000E+00 0.  1.
         21   -1    0    0  501  503 -0.00000000000E+00 -0.00000000000E+00 -0.50753095931E+02  0.50753095931E+02  0.00000000000E+00 0. -1.
          6    2    1    2  501    0  0.16411382437E+03 -0.70062204086E+02  0.52889932529E+03  0.58445698182E+03  0.17324378062E+03 0.  0.
         24    2    3    3    0    0  0.66229068194E+02 -0.41726678277E+02  0.12146183006E+03  0.16444301773E+03  0.78492832572E+02 0.  0.
         -6    2    1    2    0  502 -0.16411382437E+03  0.70062204086E+02  0.64894990668E+03  0.69489844201E+03  0.17293294520E+03 0.  0.
        -24    2    5    5    0    0 -0.13932506440E+03  0.97323883154E+02  0.61961507972E+03  0.64756659397E+03  0.80846983866E+02 0.  0.
          5    1    3    3  501    0  0.97884756172E+02 -0.28335525809E+02  0.40743749523E+03  0.42001396409E+03  0.47000000000E+01 0. -1.
        -13    1    4    4    0    0  0.49702989123E+02 -0.43544894892E+01  0.11183706110E+03  0.12246173664E+03  0.00000000000E+00 0.  1.
         14    1    4    4    0    0  0.16526079071E+02 -0.37372188788E+02  0.96247689605E+01  0.41981281088E+02  0.00000000000E+00 0. -1.
         -5    1    5    5    0  502 -0.24788759969E+02 -0.27261679069E+02  0.29334826960E+02  0.47331848043E+02  0.47000000000E+01 0.  1.
         13    1    6    6    0    0 -0.43494653012E+02 -0.95265236290E+01  0.15783095016E+03  0.16399130563E+03  0.00000000000E+00 0. -1.
        -14    1    6    6    0    0 -0.95830411385E+02  0.10685040678E+03  0.46178412956E+03  0.48357528834E+03  0.00000000000E+00 0.  1.
</event>
<event>
12    1  0.8728348E-002  0.2619339E+03  0.7818608E-02  0.1106066E+00
         21   -1    0    0  501  502  0.00000000000E+00  0.00000000000E+00  0.17522861452E+04  0.17522861452E+04  0.00000000000E+00 0. -1.
         21   -1    0    0  502  503 -0.00000000000E+00 -0.00000000000E+00 -0.58057422418E+02  0.58057422418E+02  0.00000000000E+00 0. -1.
         -6    2    1    2    0  503 -0.15684400235E+03 -0.11949673996E+03  0.32894787325E+03  0.42016330128E+03  0.17161289139E+03 0.  0.
        -24    2    3    3    0    0 -0.64798345094E+02  0.11489102199E+01  0.17752575735E+03  0.20573726949E+03  0.81315951770E+02 0.  0.
          6    2    1    2  501    0  0.15684400235E+03  0.11949673996E+03  0.13652808495E+04  0.13901802663E+04  0.17242349867E+03 0.  0.
         24    2    5    5    0    0 -0.21363870265E+01  0.36333709010E+02  0.49601381322E+03  0.50257780784E+03  0.72319067104E+02 0.  0.
          5    1    5    5  501    0  0.15898038937E+03  0.83163030946E+02  0.86926703630E+03  0.88760245849E+03  0.47000000000E+01 0. -1.
        -11    1    6    6    0    0 -0.34115151837E+01  0.59407998722E+01  0.42818782495E+03  0.42824262396E+03  0.00000000000E+00 0.  1.
         12    1    6    6    0    0  0.12751281571E+01  0.30392909138E+02  0.67825988262E+02  0.74335183873E+02  0.00000000000E+00 0. -1.
         -5    1    3    3    0  503 -0.92045657252E+02 -0.12064565018E+03  0.15142211590E+03  0.21442603179E+03  0.47000000000E+01 0.  1.
         13    1    4    4    0    0 -0.26898310996E+02 -0.28034322167E+02  0.25769658502E+02  0.46621000130E+02  0.00000000000E+00 0. -1.
        -14    1    4    4    0    0 -0.37900034098E+02  0.29183232387E+02  0.15175609885E+03  0.15911626936E+03  0.00000000000E+00 0.  1.
</event>
<event>
12    1  0.8728348E-002  0.2290284E+03  0.7818608E-02  0.1129960E+00
         21   -1    0    0  503  502  0.00000000000E+00  0.00000000000E+00  0.54537045833E+03  0.54537045833E+03  0.00000000000E+00 0.  1.
         21   -1    0    0  501  503 -0.00000000000E+00 -0.00000000000E+00 -0.14530794941E+03  0.14530794941E+03  0.00000000000E+00 0.  1.
          6    2    1    2  501    0  0.44733980904E+02  0.11860495652E+03 -0.84759186385E+01  0.22918518555E+03  0.19075047396E+03 0.  0.
         24    2    3    3    0    0  0.62820126238E+02  0.15469578943E+03  0.75756876913E+01  0.18548849301E+03  0.80445226505E+02 0.  0.
         -6    2    1    2    0  502 -0.44733980904E+02 -0.11860495652E+03  0.40853842756E+03  0.46149322220E+03  0.17321686576E+03 0.  0.
        -24    2    5    5    0    0 -0.50382343199E+01 -0.38030369203E+02  0.33050388412E+03  0.34241553164E+03  0.80894289690E+02 0.  0.
          5    1    3    3  501    0 -0.18086145334E+02 -0.36090832906E+02 -0.16051606330E+02  0.43696692536E+02  0.47000000000E+01 0. -1.
        -13    1    4    4    0    0  0.34551586903E+01  0.69775864104E+02  0.35240022072E+02  0.78246204309E+02  0.00000000000E+00 0.  1.
         14    1    4    4    0    0  0.59364967548E+02  0.84919925323E+02 -0.27664334381E+02  0.10724228870E+03  0.00000000000E+00 0. -1.
         -5    1    5    5    0  502 -0.39695746584E+02 -0.80574587319E+02  0.78034543439E+02  0.11907769056E+03  0.47000000000E+01 0.  1.
         13    1    6    6    0    0 -0.43964968467E+01  0.34935428263E+01 -0.29790134787E+01  0.63567717679E+01  0.00000000000E+00 0. -1.
        -14    1    6    6    0    0 -0.64173747316E+00 -0.41523912029E+02  0.33348289760E+03  0.33605875987E+03  0.00000000000E+00 0.  1.
</event>
<event>
12    1  0.8728348E-002  0.2388132E+03  0.7818608E-02  0.1120623E+00
         21   -1    0    0  503  502  0.00000000000E+00  0.00000000000E+00  0.50736797463E+03  0.50736797463E+03  0.00000000000E+00 0.  1.
         21   -1    0    0  501  503 -0.00000000000E+00 -0.00000000000E+00 -0.12314940590E+03  0.12314940590E+03  0.00000000000E+00 0. -1.
          6    2    1    2  501    0  0.58758329021E+02  0.15467880939E+03  0.98632889968E+02  0.25837997396E+03  0.17220246414E+03 0.  0.
         24    2    3    3    0    0  0.91389820539E+02  0.13045121563E+03  0.11722956057E+03  0.21343871568E+03  0.80272638683E+02 0.  0.
         -6    2    1    2    0  502 -0.58758329021E+02 -0.15467880939E+03  0.28558567876E+03  0.37213740657E+03  0.17189820869E+03 0.  0.
        -24    2    5    5    0    0  0.22006747169E+02 -0.35229492970E+02  0.64502958891E+02  0.10814726329E+03  0.76221944050E+02 0.  0.
          5    1    3    3  501    0 -0.32631491518E+02  0.24227593757E+02 -0.18596670606E+02  0.44941258278E+02  0.47000000000E+01 0. -1.
        -13    1    4    4    0    0  0.69956996026E+02  0.13741467682E+03  0.11119791279E+03  0.19010983801E+03  0.00000000000E+00 0.  1.
         14    1    4    4    0    0  0.21432824513E+02 -0.69634611937E+01  0.60316477885E+01  0.23328877672E+02  0.00000000000E+00 0. -1.
         -5    1    5    5    0  502 -0.80765076190E+02 -0.11944931642E+03  0.22108271987E+03  0.26399014328E+03  0.47000000000E+01 0.  1.
         11    1    6    6    0    0  0.86864052100E+01 -0.53039419665E+02  0.66858364131E+02  0.85782716955E+02  0.00000000000E+00 0. -1.
        -12    1    6    6    0    0  0.13320341959E+02  0.17809926695E+02 -0.23554052401E+01  0.22364546332E+02  0.00000000000E+00 0.  1.
</event>
<event>
12    1  0.8728348E-002  0.2093292E+03  0.7818608E-02  0.1142278E+00
         21   -1    0    0  503  502  0.00000000000E+00  0.00000000000E+00  0.53262267731E+03  0.53262267731E+03  0.00000000000E+00 0. -1.
         21   -1    0    0  501  503 -0.00000000000E+00 -0.00000000000E+00 -0.90381807256E+02  0.90381807256E+02  0.00000000000E+00 0.  1.
          6    2    1    2  501    0 -0.37606633369E+02 -0.11321829349E+03  0.31602711268E+03  0.37856916788E+03  0.17090593339E+03 0.  0.
         24    2    3    3    0    0 -0.47962773424E+02 -0.12350317967E+03  0.15932222797E+03  0.22111587508E+03  0.77169909067E+02 0.  0.
         -6    2    1    2    0  502  0.37606633369E+02  0.11321829349E+03  0.12621375738E+03  0.24443531669E+03  0.17200601920E+03 0.  0.
        -24    2    5    5    0    0  0.43949908114E+02  0.60327666552E+02  0.15105516691E+03  0.18547057147E+03  0.77528366775E+02 0.  0.
          5    1    3    3  501    0  0.10356140055E+02  0.10284886184E+02  0.15670488471E+03  0.15745329280E+03  0.47000000000E+01 0. -1.
        -11    1    4    4    0    0 -0.27854466655E+01 -0.50528845191E+02  0.11247702674E+03  0.12333695494E+03  0.00000000000E+00 0.  1.
         12    1    4    4    0    0 -0.45177326758E+02 -0.72974334482E+02  0.46845201224E+02  0.97778920140E+02  0.00000000000E+00 0. -1.
         -5    1    5    5    0  502 -0.63432747455E+01  0.52890626937E+02 -0.24841409527E+02  0.58964745226E+02  0.47000000000E+01 0.  1.
         13    1    6    6    0    0  0.53723561883E+02  0.69213081782E+02  0.10102603010E+03  0.13372707486E+03  0.00000000000E+00 0. -1.
        -14    1    6    6    0    0 -0.97736537684E+01 -0.88854152302E+01  0.50029136806E+02  0.51743496609E+02  0.00000000000E+00 0.  1.
</event>
<event>
12    1  0.8728348E-002  0.3850366E+03  0.7818608E-02  0.1049095E+00
         21   -1    0    0  503  502  0.00000000000E+00  0.00000000000E+00  0.25613285484E+03  0.25613285484E+03  0.00000000000E+00 0. -1.
         21   -1    0    0  501  503 -0.00000000000E+00 -0.00000000000E+00 -0.10303900204E+04  0.10303900204E+04  0.00000000000E+00 0.  1.
          6    2    1    2  501    0  0.10950371312E+03  0.32656929710E+03 -0.81300662516E+03  0.89954136824E+03  0.17191954991E+03 0.  0.
         24    2    3    3    0    0  0.12506610458E+03  0.31060891228E+03 -0.80464009298E+03  0.87527182411E+03  0.80843428620E+02 0.  0.
         -6    2    1    2    0  502 -0.10950371312E+03 -0.32656929710E+03  0.38749459576E+02  0.38698150701E+03  0.17208892224E+03 0.  0.
        -24    2    5    5    0    0 -0.12340111866E+03 -0.22812619021E+03  0.72057573268E+02  0.28202578486E+03  0.84124043609E+02 0.  0.
          5    1    3    3  501    0 -0.15562391462E+02  0.15960384823E+02 -0.83665321731E+01  0.24269544131E+02  0.47000000000E+01 0. -1.
        -11    1    4    4    0    0  0.10014014667E+03  0.22106750978E+03 -0.66138219947E+03  0.70450358880E+03  0.00000000000E+00 0.  1.
         12    1    4    4    0    0  0.24925957909E+02  0.89541402495E+02 -0.14325789352E+03  0.17076823532E+03  0.00000000000E+00 0. -1.
         -5    1    5    5    0  502  0.13897405546E+02 -0.98443106894E+02 -0.33308113692E+02  0.10495572216E+03  0.47000000000E+01 0.  1.
         11    1    6    6    0    0 -0.10708587938E+03 -0.23080426411E+03  0.59598712869E+02  0.26132355514E+03  0.00000000000E+00 0. -1.
        -12    1    6    6    0    0 -0.16315239286E+02  0.26780739070E+01  0.12458860400E+02  0.20702229717E+02  0.00000000000E+00 0.  1.
</event>
<event>
12    1  0.8728348E-002  0.2421595E+03  0.7818608E-02  0.1118474E+00
         21   -1    0    0  501  502  0.00000000000E+00  0.00000000000E+00  0.45359475009E+02  0.45359475009E+02  0.00000000000E+00 0. -1.
         21   -1    0    0  502  503 -0.00000000000E+00 -0.00000000000E+00 -0.13145515541E+04  0.13145515541E+04  0.00000000000E+00 0.  1.
         -6    2    1    2    0  503 -0.13178016669E+03 -0.10713944048E+03 -0.72814656571E+03  0.76714506966E+03  0.17166614318E+03 0.  0.
        -24    2    3    3    0    0 -0.61622297860E+02 -0.83414605684E+02 -0.63298674406E+03  0.64646998524E+03  0.80597268092E+02 0.  0.
          6    2    1    2  501    0  0.13178016669E+03  0.10713944048E+03 -0.54104551343E+03  0.59276595950E+03  0.17261623068E+03 0.  0.
         24    2    5    5    0    0  0.15510782400E+03  0.86975735449E+02 -0.51921321599E+03  0.55469374117E+03  0.80495758967E+02 0.  0.
          5    1    5    5  501    0 -0.23327657317E+02  0.20163705033E+02 -0.21832297438E+02  0.38072218322E+02  0.47000000000E+01 0. -1.
        -13    1    6    6    0    0  0.71170234397E+02  0.16453577110E+02 -0.31007518866E+03  0.31856325131E+03  0.00000000000E+00 0.  1.
         14    1    6    6    0    0  0.83937589605E+02  0.70522158339E+02 -0.20913802733E+03  0.23613048986E+03  0.00000000000E+00 0. -1.
         -5    1    3    3    0  503 -0.70157868826E+02 -0.23724834797E+02 -0.95159821648E+02  0.12067508442E+03  0.47000000000E+01 0.  1.
         11    1    4    4    0    0 -0.11962351046E+02  0.16058386755E+02 -0.10780413426E+03  0.10964807792E+03  0.00000000000E+00 0. -1.
        -12    1    4    4    0    0 -0.49659946814E+02 -0.99472992439E+02 -0.52518260980E+03  0.53682190732E+03  0.00000000000E+00 0.  1.
</event>
<event>
12    1  0.8728348E-002  0.1978996E+03  0.7818608E-02  0.1151679E+00
         21   -1    0    0  501  502  0.00000000000E+00  0.00000000000E+00  0.99940794829E+03  0.99940794829E+03  0.00000000000E+00 0. -1.
         21   -1    0    0  502  503 -0.00000000000E+00 -0.00000000000E+00 -0.43157361411E+02  0.43157361411E+02  0.00000000000E+00 0.  1.
         -6    2    1    2    0  503 -0.53172852481E+02 -0.80986626866E+02  0.31797839358E+03  0.37453240717E+03  0.17256326163E+03 0.  0.
        -24    2    3    3    0    0 -0.95484105193E+02 -0.81125319633E+02  0.27966873125E+03  0.31726128382E+03  0.82107193003E+02 0.  0.
          6    2    1    2  501    0  0.53172852481E+02  0.80986626866E+02  0.63827219331E+03  0.66803290254E+03  0.17172763364E+03 0.  0.
         24    2    5    5    0    0  0.66161107641E+02 -0.10387990080E+02  0.34288484872E+03  0.35852718573E+03  0.80538940429E+02 0.  0.
          5    1    5    5  501    0 -0.12988255160E+02  0.91374616945E+02  0.29538734459E+03  0.30950571681E+03  0.47000000000E+01 0. -1.
        -11    1    6    6    0    0  0.53699056508E+02  0.18313947066E+02  0.11219338965E+03  0.12572329143E+03  0.00000000000E+00 0.  1.
         12    1    6    6    0    0  0.12462051134E+02 -0.28701937146E+02  0.23069145907E+03  0.23280389430E+03  0.00000000000E+00 0. -1.
         -5    1    3    3    0  503  0.42311252712E+02  0.13869276784E+00  0.38309662330E+02  0.57271123348E+02  0.47000000000E+01 0.  1.
         11    1    4    4    0    0 -0.40980337900E+02 -0.34066321813E+02  0.21147693185E+03  0.21808804433E+03  0.00000000000E+00 0. -1.
        -12    1    4    4    0    0 -0.54503767293E+02 -0.47058997821E+02  0.68191799395E+02  0.99173239484E+02  0.00000000000E+00 0.  1.
</event>
<event>
12    1  0.8728348E-002  0.1949046E+03  0.7818608E-02  0.1154655E+00
         21   -1    0    0  501  502  0.00000000000E+00  0.00000000000E+00  0.18479533969E+03  0.18479533969E+03  0.00000000000E+00 0. -1.
         21   -1    0    0  502  503 -0.00000000000E+00 -0.00000000000E+00 -0.20972304398E+03  0.20972304398E+03  0.00000000000E+00 0. -1.
         -6    2    1    2    0  503  0.44719511665E+02  0.79097102125E+02 -0.47801574817E+02  0.19827611405E+03  0.16962382073E+03 0.  0.
        -24    2    3    3    0    0 -0.23201938787E+01  0.10377786186E+03 -0.63912156859E+01  0.13075736375E+03  0.79255363380E+02 0.  0.
          6    2    1    2  501    0 -0.44719511665E+02 -0.79097102125E+02  0.22873870529E+02  0.19624226962E+03  0.17242861754E+03 0.  0.
         24    2    5    5    0    0 -0.68467055252E+02 -0.91872157919E+02 -0.24151295599E+02  0.14183083584E+03  0.80027931752E+02 0.  0.
          5    1    5    5  501    0  0.23747543587E+02  0.12775055794E+02  0.47025166128E+02  0.54411433783E+02  0.47000000000E+01 0. -1.
        -13    1    6    6    0    0 -0.82977146007E+01  0.14601488043E+02 -0.75388417194E+01  0.18408955840E+02  0.00000000000E+00 0.  1.
         14    1    6    6    0    0 -0.60169340652E+02 -0.10647364596E+03 -0.16612453879E+02  0.12342188000E+03  0.00000000000E+00 0. -1.
         -5    1    3    3    0  503  0.47039705544E+02 -0.24680759737E+02 -0.41410359131E+02  0.67518750301E+02  0.47000000000E+01 0.  1.
         13    1    4    4    0    0  0.19204854570E+02  0.10515186497E+03 -0.14174842352E+02  0.10782702491E+03  0.00000000000E+00 0. -1.
        -14    1    4    4    0    0 -0.21525048449E+02 -0.13740031050E+01  0.77836266659E+01  0.22930338840E+02  0.00000000000E+00 0.  1.
</event>
<event>
12    1  0.8728348E-002  0.1949783E+03  0.7818608E-02  0.1154427E+00
         21   -1    0    0  503  502  0.00000000000E+00  0.00000000000E+00  0.14390460506E+03  0.14390460506E+03  0.00000000000E+00 0. -1.
         21   -1    0    0  501  503 -0.00000000000E+00 -0.00000000000E+00 -0.49191671669E+03  0.49191671669E+03  0.00000000000E+00 0. -1.
          6    2    1    2  501    0  0.68959429097E+02  0.59612303513E+02 -0.39184231582E+03  0.43767217319E+03  0.17235864098E+03 0.  0.
         24    2    3    3    0    0  0.43998882116E+02  0.37621135211E+02 -0.85820748835E+02  0.12981192916E+03  0.78324227287E+02 0.  0.
         -6    2    1    2    0  502 -0.68959429097E+02 -0.59612303513E+02  0.43830204188E+02  0.19814914856E+03  0.17039063556E+03 0.  0.
        -24    2    5    5    0    0 -0.19764063043E+02 -0.35653779690E+01 -0.36931430793E+02  0.88121999236E+02  0.77448215351E+02 0.  0.
          5    1    3    3  501    0  0.24960546981E+02  0.21991168301E+02 -0.30602156699E+03  0.30786024402E+03  0.47000000000E+01 0. -1.
        -13    1    4    4    0    0 -0.10508318627E+02  0.40050961573E+02 -0.48171444899E+02  0.63521589927E+02  0.00000000000E+00 0.  1.
         14    1    4    4    0    0  0.54507200743E+02 -0.24298263613E+01 -0.37649303936E+02  0.66290339235E+02  0.00000000000E+00 0. -1.
         -5    1    5    5    0  502 -0.49195366054E+02 -0.56046925544E+02  0.80761634981E+02  0.11002714933E+03  0.47000000000E+01 0.  1.
         13    1    6    6    0    0 -0.49816434700E+02 -0.37342100199E+01 -0.23235681128E+02  0.55095538551E+02  0.00000000000E+00 0. -1.
        -14    1    6    6    0    0  0.30052371658E+02  0.16883205091E+00 -0.13695749665E+02  0.33026460685E+02  0.00000000000E+00 0.  1.
</event>
<event>
12    1  0.8728348E-002  0.3031999E+03  0.7818608E-02  0.1083713E+00
         21   -1    0    0  501  502  0.00000000000E+00  0.00000000000E+00  0.14651389497E+04  0.14651389497E+04  0.00000000000E+00 0.  1.
         21   -1    0    0  502  503 -0.00000000000E+00 -0.00000000000E+00 -0.66233214716E+02  0.66233214716E+02  0.00000000000E+00 0. -1.
         -6    2    1    2    0  503  0.19922742607E+03 -0.15060728631E+03  0.52170538201E+03  0.60341255571E+03  0.17191883197E+03 0.  0.
        -24    2    3    3    0    0  0.19944901492E+03 -0.83521424833E+02  0.35149054443E+03  0.42039413356E+03  0.80186574660E+02 0.  0.
          6    2    1    2  501    0 -0.19922742607E+03  0.15060728631E+03  0.87720035294E+03  0.92795960867E+03  0.17103933506E+03 0.  0.
         24    2    5    5    0    0 -0.17065726135E+03  0.15382658562E+03  0.86082764673E+03  0.89454144432E+03  0.79960233471E+02 0.  0.
          5    1    5    5  501    0 -0.28570164718E+02 -0.32192993058E+01  0.16372706215E+02  0.33418164355E+02  0.47000000000E+01 0. -1.
        -13    1    6    6    0    0 -0.22277365821E+02  0.68351708745E+02  0.24084278742E+03  0.25134336149E+03  0.00000000000E+00 0.  1.
         14    1    6    6    0    0 -0.14837989553E+03  0.85474876873E+02  0.61998485931E+03  0.64319808282E+03  0.00000000000E+00 0. -1.
         -5    1    3    3    0  503 -0.22158885435E+00 -0.67085861479E+02  0.17021483758E+03  0.18301842215E+03  0.47000000000E+01 0.  1.
         13    1    4    4    0    0  0.11163269707E+03 -0.88422087557E+02  0.22685855381E+03  0.26785281044E+03  0.00000000000E+00 0. -1.
        -14    1    4    4    0    0  0.87816317853E+02  0.49006627244E+01  0.12463199061E+03  0.15254132312E+03  0.00000000000E+00 0.  1.
</event>
<event>
12    1  0.8728348E-002  0.1859617E+03  0.7818608E-02  0.1162477E+00
         21   -1    0    0  503  502  0.00000000000E+00  0.00000000000E+00  0.29088176720E+03  0.29088176720E+03  0.00000000000E+00 0.  1.
         21   -1    0    0  501  503 -0.00000000000E+00 -0.00000000000E+00 -0.12441832186E+03  0.12441832186E+03  0.00000000000E+00 0.  1.
          6    2    1    2  501    0  0.34442645922E+02  0.60767597988E+02  0.36378882580E+02  0.18948663925E+03  0.17234490574E+03 0.  0.
         24    2    3    3    0    0 -0.51489692222E+01  0.28157056282E+02 -0.42178953678E+02  0.95548536983E+02  0.80815388903E+02 0.  0.
         -6    2    1    2    0  502 -0.34442645922E+02 -0.60767597988E+02  0.13008456276E+03  0.22581344981E+03  0.17085293039E+03 0.  0.
        -24    2    5    5    0    0 -0.69359831356E+02 -0.44758131691E+02  0.30687930903E+02  0.11914905428E+03  0.80253794145E+02 0.  0.
          5    1    3    3  501    0  0.39591615144E+02  0.32610541706E+02  0.78557836258E+02  0.93938102267E+02  0.47000000000E+01 0. -1.
        -11    1    4    4    0    0 -0.26832649090E+02  0.47071069523E+02 -0.15613321749E+02  0.56386633693E+02  0.00000000000E+00 0.  1.
         12    1    4    4    0    0  0.21683679868E+02 -0.18914013240E+02 -0.26565631929E+02  0.39161903290E+02  0.00000000000E+00 0. -1.
         -5    1    5    5    0  502  0.34917185434E+02 -0.16009466297E+02  0.99396631855E+02  0.10666439553E+03  0.47000000000E+01 0.  1.
         11    1    6    6    0    0 -0.42081867073E+02 -0.97129212266E+01  0.53876114829E+02  0.69049693150E+02  0.00000000000E+00 0. -1.
        -12    1    6    6    0    0 -0.27277964283E+02 -0.35045210464E+02 -0.23188183926E+02  0.50099361131E+02  0.00000000000E+00 0.  1.
</event>
<event>
12    1  0.8728348E-002  0.1930880E+03  0.7818608E-02  0.1156066E+00
         21   -1    0    0  501  502  0.00000000000E+00  0.00000000000E+00  0.11703888654E+03  0.11703888654E+03  0.00000000000E+00 0. -1.
         21   -1    0    0  502  503 -0.00000000000E+00 -0.00000000000E+00 -0.69374522770E+03  0.69374522770E+03  0.00000000000E+00 0. -1.
         -6    2    1    2    0  503  0.29384704308E+02 -0.85125743182E+02 -0.58809855495E+03  0.61898538320E+03  0.17080146747E+03 0.  0.
        -24    2    3    3    0    0  0.22764858946E+02 -0.10604816701E+02 -0.11749203000E+03  0.14244600166E+03  0.76523103283E+02 0.  0.
          6    2    1    2  501    0 -0.29384704308E+02  0.85125743182E+02  0.11392213788E+02  0.19179873104E+03  0.16895892310E+03 0.  0.
         24    2    5    5    0    0 -0.44142582353E+02  0.41960970295E+02  0.64920554831E+02  0.12131209488E+03  0.82417566813E+02 0.  0.
          5    1    5    5  501    0  0.14757878046E+02  0.43164772887E+02 -0.53528341043E+02  0.70486636163E+02  0.47000000000E+01 0.  1.
        -13    1    6    6    0    0 -0.68495920406E+02  0.25529792397E+02  0.45966930167E+02  0.86350565031E+02  0.00000000000E+00 0.  1.
         14    1    6    6    0    0  0.24353338053E+02  0.16431177898E+02  0.18953624664E+02  0.34961529848E+02  0.00000000000E+00 0. -1.
         -5    1    3    3    0  503  0.66198453617E+01 -0.74520926481E+02 -0.47060652495E+03  0.47653938155E+03  0.47000000000E+01 0.  1.
         11    1    4    4    0    0  0.13688873269E+02 -0.40837146604E+02 -0.40032592581E+02  0.58801923973E+02  0.00000000000E+00 0. -1.
        -12    1    4    4    0    0  0.90759856776E+01  0.30232329903E+02 -0.77459437414E+02  0.83644077686E+02  0.00000000000E+00 0.  1.
</event>
<event>
12    1  0.8728348E-002  0.1796449E+03  0.7818608E-02  0.1168989E+00
         21   -1    0    0  501  502  0.00000000000E+00  0.00000000000E+00  0.14615357015E+03  0.14615357015E+03  0.00000000000E+00 0. -1.
         21   -1    0    0  502  503 -0.00000000000E+00 -0.00000000000E+00 -0.39646567361E+03  0.39646567361E+03  0.00000000000E+00 0. -1.
         -6    2    1    2    0  503  0.39396638094E+02 -0.23131981135E+02 -0.30722754852E+03  0.35417385703E+03  0.17018569501E+03 0.  0.
        -24    2    3    3    0    0  0.68138104586E+02 -0.29713261380E+02 -0.11187192593E+03  0.15654973293E+03  0.80416490047E+02 0.  0.
          6    2    1    2  501    0 -0.39396638094E+02  0.23131981135E+02  0.56915445066E+02  0.18844538674E+03  0.17373863201E+03 0.  0.
         24    2    5    5    0    0 -0.16431200064E+02  0.74389902958E+02  0.20540392611E+01  0.10979012792E+03  0.79030444214E+02 0.  0.
          5    1    5    5  501    0 -0.22965438030E+02 -0.51257921824E+02  0.54861405805E+02  0.78655258823E+02  0.47000000000E+01 0. -1.
        -13    1    6    6    0    0  0.26933547700E+02  0.55785825181E+01  0.67419072021E+01  0.28319425971E+02  0.00000000000E+00 0.  1.
         14    1    6    6    0    0 -0.43364747765E+02  0.68811320440E+02 -0.46878679410E+01  0.81470701944E+02  0.00000000000E+00 0. -1.
         -5    1    3    3    0  503 -0.28741466491E+02  0.65812802453E+01 -0.19535562259E+03  0.19762412410E+03  0.47000000000E+01 0.  1.
         11    1    4    4    0    0  0.85775244116E+02 -0.17143347233E+02 -0.94646626547E+02  0.12887695983E+03  0.00000000000E+00 0. -1.
        -12    1    4    4    0    0 -0.17637139531E+02 -0.12569914147E+02 -0.17225299382E+02  0.27672773104E+02  0.00000000000E+00 0.  1.
</event>
<event>
12    1  0.8728348E-002  0.2360225E+03  0.7818608E-02  0.1122685E+00
         21   -1    0    0  501  502  0.00000000000E+00  0.00000000000E+00  0.22119131168E+03  0.22119131168E+03  0.00000000000E+00 0.  1.
         21   -1    0    0  502  503 -0.00000000000E+00 -0.00000000000E+00 -0.30207634842E+03  0.30207634842E+03  0.00000000000E+00 0.  1.
         -6    2    1    2    0  503 -0.88097115047E+02  0.13243574771E+03  0.67742087174E+02  0.24434715047E+03  0.17267371143E+03 0.  0.
        -24    2    3    3    0    0 -0.58965231471E+02  0.40011165810E+02 -0.25106469952E+02  0.11005673927E+03  0.80027239820E+02 0.  0.
          6    2    1    2  501    0  0.88097115047E+02 -0.13243574771E+03 -0.14862712391E+03  0.27892050963E+03  0.17437402265E+03 0.  0.
         24    2    5    5    0    0  0.74303660465E+02 -0.16401182340E+03 -0.14282629865E+03  0.24366363060E+03  0.80942579118E+02 0.  0.
          5    1    5    5  501    0  0.13793454581E+02  0.31576075689E+02 -0.58008252579E+01  0.35256879029E+02  0.47000000000E+01 0. -1.
        -13    1    6    6    0    0  0.41678830526E+02 -0.14829278489E+03 -0.13858045114E+03  0.20720139093E+03  0.00000000000E+00 0.  1.
         14    1    6    6    0    0  0.32624829939E+02 -0.15719038511E+02 -0.42458475079E+01  0.36462239664E+02  0.00000000000E+00 0. -1.
         -5    1    3    3    0  503 -0.29131883575E+02  0.92424581903E+02  0.92848557126E+02  0.13429041120E+03  0.47000000000E+01 0.  1.
         11    1    4    4    0    0  0.14337346803E+02  0.14694983738E+02  0.12323648545E+02  0.23945236977E+02  0.00000000000E+00 0. -1.
        -12    1    4    4    0    0 -0.73302578275E+02  0.25316182072E+02 -0.37430118497E+02  0.86111502293E+02  0.00000000000E+00 0.  1.
</event>
<event>
12    1  0.8728348E-002  0.1974143E+03  0.7818608E-02  0.1155600E+00
         21   -1    0    0  501  502  0.00000000000E+00  0.00000000000E+00  0.11463479702E+03  0.11463479702E+03  0.00000000000E+00 0.  1.
         21   -1    0    0  502  503 -0.00000000000E+00 -0.00000000000E+00 -0.47774001552E+03  0.47774001552E+03  0.00000000000E+00 0.  1.
         -6    2    1    2    0  503  0.44462210563E+02  0.25879978723E+02 -0.36076299807E+03  0.41124487092E+03  0.19059313107E+03 0.  0.
        -24    2    3    3    0    0  0.77979172462E+02 -0.26265067668E+02 -0.13479301943E+03  0.17687974159E+03  0.79666051620E+02 0.  0.
          6    2    1    2  501    0 -0.44462210563E+02 -0.25879978723E+02 -0.23422204231E+01  0.18112994162E+03  0.17365456599E+03 0.  0.
         24    2    5    5    0    0 -0.46771019835E+02  0.17957115026E+02  0.55455754492E+02  0.10839949894E+03  0.78518306064E+02 0.  0.
          5    1    5    5  501    0  0.23088092717E+01 -0.43837093749E+02 -0.57797974915E+02  0.72730442683E+02  0.47000000000E+01 0. -1.
        -13    1    6    6    0    0 -0.35872466989E+01  0.42909094995E+02  0.22099409138E+02  0.48398787758E+02  0.00000000000E+00 0.  1.
         14    1    6    6    0    0 -0.43183773136E+02 -0.24951979969E+02  0.33356345354E+02  0.60000711179E+02  0.00000000000E+00 0. -1.
         -5    1    3    3    0  503 -0.33516961899E+02  0.52145046390E+02 -0.22596997864E+03  0.23436512933E+03  0.47000000000E+01 0.  1.
         13    1    4    4    0    0  0.60875510554E+02  0.17690038809E+02 -0.53760297962E+02  0.83120002979E+02  0.00000000000E+00 0. -1.
        -14    1    4    4    0    0  0.17103661908E+02 -0.43955106476E+02 -0.81032721470E+02  0.93759738614E+02  0.00000000000E+00 0.  1.
</event>
<event>
12    1  0.8728348E-002  0.1916294E+03  0.7818608E-02  0.1157309E+00
         21   -1    0    0  501  502  0.00000000000E+00  0.00000000000E+00  0.61307946326E+03  0.61307946326E+03  0.00000000000E+00 0. -1.
         21   -1    0    0  502  503 -0.00000000000E+00 -0.00000000000E+00 -0.61005277468E+02  0.61005277468E+02  0.00000000000E+00 0. -1.
         -6    2    1    2    0  503  0.81623377016E+02  0.14868317262E+02  0.33053335458E+03  0.38206558142E+03  0.17273785770E+03 0.  0.
        -24    2    3    3    0    0  0.96434503635E+02  0.26058496707E+02  0.33803480079E+03  0.36149980201E+03  0.80224195645E+02 0.  0.
          6    2    1    2  501    0 -0.81623377016E+02 -0.14868317262E+02  0.22154083121E+03  0.29201915930E+03  0.17120574457E+03 0.  0.
         24    2    5    5    0    0  0.14091394974E+02  0.17484687429E+02  0.13931747699E+03  0.16167037922E+03  0.78890242847E+02 0.  0.
          5    1    5    5  501    0 -0.95714771990E+02 -0.32353004692E+02  0.82223354226E+02  0.13034878009E+03  0.47000000000E+01 0. -1.
        -13    1    6    6    0    0 -0.34519555427E+01  0.33047501151E+02  0.13341103891E+03  0.13748657619E+03  0.00000000000E+00 0.  1.
         14    1    6    6    0    0  0.17543350517E+02 -0.15562813722E+02  0.59064380778E+01  0.24183803031E+02  0.00000000000E+00 0. -1.
         -5    1    3    3    0  503 -0.14811126619E+02 -0.11190179445E+02 -0.75014462062E+01  0.20565779415E+02  0.47000000000E+01 0.  1.
         11    1    4    4    0    0  0.14627888150E+02 -0.22652151652E+02  0.37109152515E+02  0.45871388539E+02  0.00000000000E+00 0. -1.
        -12    1    4    4    0    0  0.81806615486E+02  0.48710648359E+02  0.30092564827E+03  0.31562841347E+03  0.00000000000E+00 0.  1.
</event>
<event>
12    1  0.8728348E-002  0.2348975E+03  0.7818608E-02  0.1124076E+00
         21   -1    0    0  503  502  0.00000000000E+00  0.00000000000E+00  0.67432865116E+03  0.67432865116E+03  0.00000000000E+00 0. -1.
         21   -1    0    0  501  503 -0.00000000000E+00 -0.00000000000E+00 -0.81517607335E+02  0.81517607335E+02  0.00000000000E+00 0. -1.
          6    2    1    2  501    0 -0.67835790973E+02  0.14127328883E+03  0.34233197452E+03  0.41245638026E+03  0.16843173146E+03 0.  0.
         24    2    3    3    0    0 -0.64410842726E+02  0.92346245088E+02  0.11230129985E+03  0.17720802815E+03  0.78195381258E+02 0.  0.
         -6    2    1    2    0  502  0.67835790973E+02 -0.14127328883E+03  0.25047906931E+03  0.34338987824E+03  0.17497716320E+03 0.  0.
        -24    2    5    5    0    0  0.78048306618E+01 -0.36172416364E+02  0.35660502773E+02  0.96774760865E+02  0.82001974337E+02 0.  0.
          5    1    3    3  501    0 -0.34249482468E+01  0.48927043745E+02  0.23003067467E+03  0.23524835211E+03  0.47000000000E+01 0. -1.
        -11    1    4    4    0    0 -0.65255816973E+02  0.28703741053E+02  0.74812712048E+02  0.10334006137E+03  0.00000000000E+00 0.  1.
         12    1    4    4    0    0  0.84497424655E+00  0.63642504034E+02  0.37488587801E+02  0.73867966782E+02  0.00000000000E+00 0. -1.
         -5    1    5    5    0  502  0.60030960311E+02 -0.10510087247E+03  0.21481856654E+03  0.24661511738E+03  0.47000000000E+01 0.  1.
         11    1    6    6    0    0  0.45243579133E+01 -0.61527399606E+02  0.13989974738E+02  0.63259861761E+02  0.00000000000E+00 0. -1.
        -12    1    6    6    0    0  0.32804727485E+01  0.25354983242E+02  0.21670528034E+02  0.33514899104E+02  0.00000000000E+00 0.  1.
</event>
<event>
12    1  0.8728348E-002  0.1932431E+03  0.7818608E-02  0.1156254E+00
         21   -1    0    0  501  502  0.00000000000E+00  0.00000000000E+00  0.58496119211E+02  0.58496119211E+02  0.00000000000E+00 0.  1.
         21   -1    0    0  502  503 -0.00000000000E+00 -0.00000000000E+00 -0.95864460441E+03  0.95864460441E+03  0.00000000000E+00 0.  1.
         -6    2    1    2    0  503 -0.80273342818E+02 -0.23889200069E+02 -0.74626535469E+03  0.77011257130E+03  0.17072460110E+03 0.  0.
        -24    2    3    3    0    0 -0.92117470168E+02 -0.68608155921E+02 -0.48410331925E+03  0.50385876158E+03  0.79529369063E+02 0.  0.
          6    2    1    2  501    0  0.80273342818E+02  0.23889200069E+02 -0.15388313051E+03  0.24702815232E+03  0.17415047153E+03 0.  0.
         24    2    5    5    0    0  0.70184497477E+02  0.26875888818E+02 -0.17835904311E+02  0.11049375055E+03  0.79009950908E+02 0.  0.
          5    1    5    5  501    0  0.10088845341E+02 -0.29866887486E+01 -0.13604722620E+03  0.13653440177E+03  0.47000000000E+01 0. -1.
        -13    1    6    6    0    0  0.68687623035E+02 -0.68897279719E+01  0.57617265297E+01  0.69272327825E+02  0.00000000000E+00 0.  1.
         14    1    6    6    0    0  0.14968744426E+01  0.33765616790E+02 -0.23597630841E+02  0.41221422727E+02  0.00000000000E+00 0. -1.
         -5    1    3    3    0  503  0.11844127350E+02  0.44718955852E+02 -0.26216203544E+03  0.26625380972E+03  0.47000000000E+01 0.  1.
         13    1    4    4    0    0  0.11151078244E+02 -0.92419565808E+01 -0.19876475398E+02  0.24593384917E+02  0.00000000000E+00 0. -1.
        -14    1    4    4    0    0 -0.10326854841E+03 -0.59366199341E+02 -0.46422684385E+03  0.47926537667E+03  0.00000000000E+00 0.  1.
</event>
<event>
12    1  0.8728348E-002  0.1760426E+03  0.7818608E-02  0.1171741E+00
         21   -1    0    0  501  502  0.00000000000E+00  0.00000000000E+00  0.74355810909E+02  0.74355810909E+02  0.00000000000E+00 0.  1.
         21   -1    0    0  502  503 -0.00000000000E+00 -0.00000000000E+00 -0.60900095146E+03  0.60900095146E+03  0.00000000000E+00 0.  1.
         -6    2    1    2    0  503  0.35655579654E+02 -0.86824292134E+01 -0.75014268403E+02  0.19116621940E+03  0.17196126900E+03 0.  0.
        -24    2    3    3    0    0  0.47694456404E+00 -0.42809554254E+02 -0.10080959131E+03  0.13558127796E+03  0.79917606466E+02 0.  0.
          6    2    1    2  501    0 -0.35655579654E+02  0.86824292134E+01 -0.45963087215E+03  0.49219054297E+03  0.17217516378E+03 0.  0.
         24    2    5    5    0    0 -0.30644940594E+02 -0.50627263483E+02 -0.16569321257E+03  0.19225024246E+03  0.77483435929E+02 0.  0.
          5    1    5    5  501    0 -0.50106390601E+01  0.59309692697E+02 -0.29393765958E+03  0.29994030051E+03  0.47000000000E+01 0. -1.
        -11    1    6    6    0    0 -0.13033137836E+02 -0.58375551082E+02 -0.16195844603E+03  0.17265024149E+03  0.00000000000E+00 0.  1.
         12    1    6    6    0    0 -0.17611802758E+02  0.77482875991E+01 -0.37347665422E+01  0.19600000975E+02  0.00000000000E+00 0. -1.
         -5    1    3    3    0  503  0.35178635090E+02  0.34127125041E+02  0.25795322904E+02  0.55584941433E+02  0.47000000000E+01 0.  1.
         11    1    4    4    0    0 -0.36222990768E+02 -0.11191835600E+02 -0.65339719929E+02  0.75542314266E+02  0.00000000000E+00 0. -1.
        -12    1    4    4    0    0  0.36699935332E+02 -0.31617718654E+02 -0.35469871378E+02  0.60038963697E+02  0.00000000000E+00 0.  1.
</event>
<event>
12    1  0.8728348E-002  0.1785241E+03  0.7818608E-02  0.1169261E+00
         21   -1    0    0  503  502  0.00000000000E+00  0.00000000000E+00  0.13400183607E+04  0.13400183607E+04  0.00000000000E+00 0. -1.
         21   -1    0    0  501  503 -0.00000000000E+00 -0.00000000000E+00 -0.46088276049E+02  0.46088276049E+02  0.00000000000E+00 0. -1.
          6    2    1    2  501    0 -0.44016379706E+02  0.19483294068E+02  0.16478786390E+03  0.24295248143E+03  0.17191226750E+03 0.  0.
         24    2    3    3    0    0  0.35488539745E+02  0.40199958342E+02  0.95284961620E+02  0.13523546411E+03  0.79586014719E+02 0.  0.
         -6    2    1    2    0  502  0.44016379706E+02 -0.19483294068E+02  0.11291422208E+04  0.11431541553E+04  0.17182033551E+03 0.  0.
        -24    2    5    5    0    0  0.95128559965E+02 -0.32549761414E+01  0.75040263254E+03  0.76060797646E+03  0.79751772057E+02 0.  0.
          5    1    3    3  501    0 -0.79504919451E+02 -0.20716664274E+02  0.69502902275E+02  0.10771701732E+03  0.47000000000E+01 0. -1.
        -13    1    4    4    0    0  0.36908163567E+02  0.23110268461E+01  0.89554392268E+02  0.96889331494E+02  0.00000000000E+00 0.  1.
         14    1    4    4    0    0 -0.14196238215E+01  0.37888931496E+02  0.57305693522E+01  0.38346132618E+02  0.00000000000E+00 0. -1.
         -5    1    5    5    0  502 -0.51112180258E+02 -0.16228317927E+02  0.37873958823E+03  0.38254617886E+03  0.47000000000E+01 0.  1.
         11    1    6    6    0    0  0.24914855502E+02  0.20970712760E+02  0.84210266125E+02  0.90287816117E+02  0.00000000000E+00 0. -1.
        -12    1    6    6    0    0  0.70213704463E+02 -0.24225688902E+02  0.66619236641E+03  0.67032016034E+03  0.00000000000E+00 0.  1.
</event>
<event>
12    1  0.8728348E-002  0.2913466E+03  0.7818608E-02  0.1089709E+00
         21   -1    0    0  501  502  0.00000000000E+00  0.00000000000E+00  0.50460225813E+02  0.50460225813E+02  0.00000000000E+00 0. -1.
         21   -1    0    0  502  503 -0.00000000000E+00 -0.00000000000E+00 -0.18999624065E+04  0.18999624065E+04  0.00000000000E+00 0.  1.
         -6    2    1    2    0  503  0.23219290818E+03  0.39047307275E+02 -0.12576090947E+04  0.12909157474E+04  0.17159426891E+03 0.  0.
        -24    2    3    3    0    0  0.21018447048E+03  0.40868825497E+02 -0.12433328929E+04  0.12642026571E+04  0.80522687210E+02 0.  0.
          6    2    1    2  501    0 -0.23219290818E+03 -0.39047307275E+02 -0.59189308602E+03  0.65950688489E+03  0.17080300680E+03 0.  0.
         24    2    5    5    0    0 -0.67423363019E+02  0.36871411714E+02 -0.21486809309E+03  0.24107816910E+03  0.77749439278E+02 0.  0.
          5    1    5    5  501    0 -0.16476954516E+03 -0.75918718990E+02 -0.37702499293E+03  0.41842871579E+03  0.47000000000E+01 0. -1.
        -11    1    6    6    0    0 -0.65935764696E+02  0.34706736113E+02 -0.22163199019E+03  0.23382220099E+03  0.00000000000E+00 0.  1.
         12    1    6    6    0    0 -0.14875983225E+01  0.21646756016E+01  0.67638971055E+01  0.72559681148E+01  0.00000000000E+00 0. -1.
         -5    1    3    3    0  503  0.22008437697E+02 -0.18215182214E+01 -0.14276201844E+02  0.26713090379E+02  0.47000000000E+01 0.  1.
         11    1    4    4    0    0  0.12504680141E+03  0.14177508632E+02 -0.50263424765E+03  0.51814948732E+03  0.00000000000E+00 0. -1.
        -12    1    4    4    0    0  0.85137669069E+02  0.26691316865E+02 -0.74069864520E+03  0.74605316975E+03  0.00000000000E+00 0.  1.
</event>
<event>
12    1  0.8728348E-002  0.2546704E+03  0.7818608E-02  0.1111249E+00
         21   -1    0    0  501  502  0.00000000000E+00  0.00000000000E+00  0.67118058910E+02  0.67118058910E+02  0.00000000000E+00 0.  1.
         21   -1    0    0  502  503 -0.00000000000E+00 -0.00000000000E+00 -0.11973908070E+04  0.11973908070E+04  0.00000000000E+00 0. -1.
         -6    2    1    2    0  503  0.12700868260E+03  0.13943678357E+03 -0.85999758581E+03  0.89691294778E+03  0.17112324867E+03 0.  0.
        -24    2    3    3    0    0  0.36190083106E+02  0.57978975580E+02 -0.60889355935E+03  0.61770206941E+03  0.78314725405E+02 0.  0.
          6    2    1    2  501    0 -0.12700868260E+03 -0.13943678357E+03 -0.27027516229E+03  0.36759591814E+03  0.16280133172E+03 0.  0.
         24    2    5    5    0    0 -0.20066508621E+02 -0.83471542687E+02 -0.76756793689E+02  0.13947273705E+03  0.78682118658E+02 0.  0.
          5    1    5    5  501    0 -0.10694217397E+03 -0.55965240885E+02 -0.19351836860E+03  0.22812318108E+03  0.47000000000E+01 0. -1.
        -11    1    6    6    0    0 -0.36816959440E+02 -0.58669200450E+02 -0.83806506678E+02  0.10872485523E+03  0.00000000000E+00 0.  1.
         12    1    6    6    0    0  0.16750450819E+02 -0.24802342237E+02  0.70497129893E+01  0.30747881819E+02  0.00000000000E+00 0. -1.
         -5    1    3    3    0  503  0.90818599489E+02  0.81457807992E+02 -0.25110402646E+03  0.27921087837E+03  0.47000000000E+01 0.  1.
         13    1    4    4    0    0 -0.16074017342E+02 -0.87762537515E+01 -0.14166415275E+03  0.14284302166E+03  0.00000000000E+00 0. -1.
        -14    1    4    4    0    0  0.52264100449E+02  0.66755229331E+02 -0.46722940660E+03  0.47485904775E+03  0.00000000000E+00 0.  1.
</event>
<event>
12    1  0.8728348E-002  0.1722888E+03  0.7818608E-02  0.1180760E+00
         21   -1    0    0  501  502  0.00000000000E+00  0.00000000000E+00  0.33523076793E+03  0.33523076793E+03  0.00000000000E+00 0. -1.
         21   -1    0    0  502  503 -0.00000000000E+00 -0.00000000000E+00 -0.94013705880E+02  0.94013705880E+02  0.00000000000E+00 0. -1.
         -6    2    1    2    0  503  0.18444009773E+01  0.11192191377E+02  0.28631808538E+02  0.15560984354E+03  0.15253188514E+03 0.  0.
        -24    2    3    3    0    0 -0.91025624804E+01  0.60068559856E+02  0.16252963777E+02  0.10380191748E+03  0.82580813238E+02 0.  0.
          6    2    1    2  501    0 -0.18444009773E+01 -0.11192191377E+02  0.21258525351E+03  0.27363463027E+03  0.17191496127E+03 0.  0.
         24    2    5    5    0    0 -0.37414552737E+02 -0.67537428224E+01  0.22073549312E+03  0.23657451792E+03  0.76143829718E+02 0.  0.
          5    1    5    5  501    0  0.35570151760E+02 -0.44384485542E+01 -0.81502396117E+01  0.37060112352E+02  0.47000000000E+01 0. -1.
        -13    1    6    6    0    0 -0.17478473315E+02 -0.40825134980E+02  0.96725883903E+02  0.10643347825E+03  0.00000000000E+00 0.  1.
         14    1    6    6    0    0 -0.19936079422E+02  0.34071392158E+02  0.12400960922E+03  0.13014103967E+03  0.00000000000E+00 0. -1.
         -5    1    3    3    0  503  0.10946963458E+02 -0.48876368480E+02  0.12378844761E+02  0.51807926057E+02  0.47000000000E+01 0.  1.
         13    1    4    4    0    0 -0.38872483178E+02  0.41496379326E+02 -0.12758490888E+02  0.58273480549E+02  0.00000000000E+00 0. -1.
        -14    1    4    4    0    0  0.29769920698E+02  0.18572180531E+02  0.29011454665E+02  0.45528436936E+02  0.00000000000E+00 0.  1.
</event>
<event>
12    1  0.8728348E-002  0.1929665E+03  0.7818608E-02  0.1156408E+00
         21   -1    0    0  503  502  0.00000000000E+00  0.00000000000E+00  0.38444524099E+03  0.38444524099E+03  0.00000000000E+00 0. -1.
         21   -1    0    0  501  503 -0.00000000000E+00 -0.00000000000E+00 -0.11052646208E+03  0.11052646208E+03  0.00000000000E+00 0. -1.
          6    2    1    2  501    0 -0.80426908880E+02  0.29418458854E+02  0.44938061528E+02  0.19552517211E+03  0.16993154551E+03 0.  0.
         24    2    3    3    0    0 -0.39145316501E+02  0.70447945979E+02  0.67400231912E+02  0.13296138241E+03  0.81490300363E+02 0.  0.
         -6    2    1    2    0  502  0.80426908880E+02 -0.29418458854E+02  0.22898071738E+03  0.29944653096E+03  0.17292230216E+03 0.  0.
        -24    2    5    5    0    0  0.33925514685E+02 -0.10930417999E+02  0.20651346661E+02  0.85139732147E+02  0.74510947430E+02 0.  0.
          5    1    3    3  501    0 -0.41281592378E+02 -0.41029487125E+02 -0.22462170384E+02  0.62563789698E+02  0.47000000000E+01 0. -1.
        -11    1    4    4    0    0 -0.27339333174E+02 -0.11169528740E+02  0.31007717366E+02  0.42821443774E+02  0.00000000000E+00 0.  1.
         12    1    4    4    0    0 -0.11805983328E+02  0.81617474719E+02  0.36392514546E+02  0.90139938634E+02  0.00000000000E+00 0. -1.
         -5    1    5    5    0  502  0.46501394195E+02 -0.18488040856E+02  0.20832937071E+03  0.21430679882E+03  0.47000000000E+01 0.  1.
         11    1    6    6    0    0  0.32560904239E+02 -0.28467550718E+02  0.40055337741E+02  0.58949503902E+02  0.00000000000E+00 0. -1.
        -12    1    6    6    0    0  0.13646104462E+01  0.17537132720E+02 -0.19403991080E+02  0.26190228245E+02  0.00000000000E+00 0.  1.
</event>
<event>
12    1  0.8728348E-002  0.1940174E+03  0.7818608E-02  0.1155112E+00
         21   -1    0    0  503  502  0.00000000000E+00  0.00000000000E+00  0.12870513948E+04  0.12870513948E+04  0.00000000000E+00 0. -1.
         21   -1    0    0  501  503 -0.00000000000E+00 -0.00000000000E+00 -0.17188202569E+03  0.17188202569E+03  0.00000000000E+00 0. -1.
          6    2    1    2  501    0 -0.88865738078E+02 -0.12869874232E+02 -0.10753381175E+03  0.22093268939E+03  0.17083611885E+03 0.  0.
         24    2    3    3    0    0 -0.11502914711E+02  0.15173038197E+02  0.28783442431E+01  0.83148998163E+02  0.80888397777E+02 0.  0.
         -6    2    1    2    0  502  0.88865738078E+02  0.12869874232E+02  0.12227031809E+04  0.12380007311E+04  0.17198833871E+03 0.  0.
        -24    2    5    5    0    0  0.25457935472E+02  0.58732838195E+02  0.90387630246E+03  0.90967676109E+03  0.80136051512E+02 0.  0.
          5    1    3    3  501    0 -0.77362823367E+02 -0.28042912429E+02 -0.11041215600E+03  0.13778369123E+03  0.47000000000E+01 0. -1.
        -11    1    4    4    0    0  0.12990031080E+02  0.39893672076E+02  0.17426902143E+02  0.45430638312E+02  0.00000000000E+00 0.  1.
         12    1    4    4    0    0 -0.24492945791E+02 -0.24720633878E+02 -0.14548557900E+02  0.37718359851E+02  0.00000000000E+00 0. -1.
         -5    1    5    5    0  502  0.63407802606E+02 -0.45862963963E+02  0.31882687842E+03  0.32832397004E+03  0.47000000000E+01 0.  1.
         13    1    6    6    0    0 -0.20815751049E+02  0.30410254684E+02  0.17794536404E+03  0.18172130218E+03  0.00000000000E+00 0. -1.
        -14    1    6    6    0    0  0.46273686521E+02  0.28322583511E+02  0.72593093842E+03  0.72795545891E+03  0.00000000000E+00 0.  1.
</event>
<event>
12    1  0.8728348E-002  0.2328121E+03  0.7818608E-02  0.1125353E+00
         21   -1    0    0  503  502  0.00000000000E+00  0.00000000000E+00  0.63251664773E+03  0.63251664773E+03  0.00000000000E+00 0.  1.
         21   -1    0    0  501  503 -0.00000000000E+00 -0.00000000000E+00 -0.22740817410E+03  0.22740817410E+03  0.00000000000E+00 0.  1.
          6    2    1    2  501    0  0.14472635875E+03 -0.64917652017E+02 -0.13918637127E+03  0.26792959479E+03  0.16508604228E+03 0.  0.
         24    2    3    3    0    0  0.17117465640E+02 -0.18784381025E+02 -0.81354434217E+02  0.12035272927E+03  0.84972789029E+02 0.  0.
         -6    2    1    2    0  502 -0.14472635875E+03  0.64917652017E+02  0.54429484490E+03  0.59199522704E+03  0.17041552217E+03 0.  0.
        -24    2    5    5    0    0 -0.58054169961E+02  0.60017632331E+02  0.45048047095E+03  0.46409172724E+03  0.74000498267E+02 0.  0.
          5    1    3    3  501    0  0.12760889311E+03 -0.46133270993E+02 -0.57831937054E+02  0.14757686552E+03  0.47000000000E+01 0. -1.
        -13    1    4    4    0    0  0.47876212633E+02 -0.27210499090E+02 -0.39678608611E+02  0.67874405913E+02  0.00000000000E+00 0.  1.
         14    1    4    4    0    0 -0.30758746993E+02  0.84261180651E+01 -0.41675825606E+02  0.52478323355E+02  0.00000000000E+00 0. -1.
         -5    1    5    5    0  502 -0.86672188789E+02  0.49000196858E+01  0.93814373952E+02  0.12790349981E+03  0.47000000000E+01 0.  1.
         11    1    6    6    0    0  0.13093270862E+02 -0.10093262771E+01  0.23278572378E+02  0.26727222328E+02  0.00000000000E+00 0. -1.
        -12    1    6    6    0    0 -0.71147440823E+02  0.61026958608E+02  0.42720189857E+03  0.43736450491E+03  0.00000000000E+00 0.  1.
</event>
<event>
12    1  0.8728348E-002  0.2941080E+03  0.7818608E-02  0.1088340E+00
         21   -1    0    0  501  502  0.00000000000E+00  0.00000000000E+00  0.31050108580E+03  0.31050108580E+03  0.00000000000E+00 0.  1.
         21   -1    0    0  502  503 -0.00000000000E+00 -0.00000000000E+00 -0.28067172085E+03  0.28067172085E+03  0.00000000000E+00 0.  1.
         -6    2    1    2    0  503 -0.15274247183E+03 -0.18299354819E+03 -0.15422076458E+02  0.29360398122E+03  0.17072948183E+03 0.  0.
        -24    2    3    3    0    0 -0.60816849776E+01 -0.82423216175E+02 -0.16523681551E+02  0.11570771477E+03  0.79275909010E+02 0.  0.
          6    2    1    2  501    0  0.15274247183E+03  0.18299354819E+03  0.45251441406E+02  0.29756882542E+03  0.17228642296E+03 0.  0.
         24    2    5    5    0    0  0.80599042234E+02  0.45460081802E+02 -0.28622793657E+02  0.12552342032E+03  0.79837585671E+02 0.  0.
          5    1    5    5  501    0  0.72143429592E+02  0.13753346639E+03  0.73874235063E+02  0.17204540510E+03  0.47000000000E+01 0. -1.
        -13    1    6    6    0    0  0.83344791454E+02  0.62654423001E+02 -0.28567237500E+02  0.10811113746E+03  0.00000000000E+00 0.  1.
         14    1    6    6    0    0 -0.27457492192E+01 -0.17194341199E+02 -0.55556157241E-01  0.17412282864E+02  0.00000000000E+00 0. -1.
         -5    1    3    3    0  503 -0.14666078685E+03 -0.10057033202E+03  0.11016050931E+01  0.17789626645E+03  0.47000000000E+01 0.  1.
         11    1    4    4    0    0 -0.11715291589E+02 -0.84252955980E+02  0.12596543091E+02  0.85991171327E+02  0.00000000000E+00 0. -1.
        -12    1    4    4    0    0  0.56336066113E+01  0.18297398049E+01 -0.29120224642E+02  0.29716543446E+02  0.00000000000E+00 0.  1.
</event>
<event>
12    1  0.8728348E-002  0.2124910E+03  0.7818608E-02  0.1140331E+00
         21   -1    0    0  503  502  0.00000000000E+00  0.00000000000E+00  0.36979378736E+03  0.36979378736E+03  0.00000000000E+00 0. -1.
         21   -1    0    0  501  503 -0.00000000000E+00 -0.00000000000E+00 -0.16428764494E+03  0.16428764494E+03  0.00000000000E+00 0.  1.
          6    2    1    2  501    0 -0.37315463795E+02 -0.11865544631E+03 -0.35237799208E+02  0.21539294922E+03  0.17228134345E+03 0.  0.
         24    2    3    3    0    0 -0.88877528922E+02 -0.73371848060E+02 -0.42230214716E+02  0.14625370779E+03  0.79524290449E+02 0.  0.
         -6    2    1    2    0  502  0.37315463795E+02  0.11865544631E+03  0.24074394163E+03  0.31868848309E+03  0.16772938038E+03 0.  0.
        -24    2    5    5    0    0  0.49700188543E+02  0.10265440347E+03  0.25700223052E+03  0.29230976559E+03  0.79917565494E+02 0.  0.
          5    1    3    3  501    0  0.51562065127E+02 -0.45283598251E+02  0.69924155078E+01  0.69139241429E+02  0.47000000000E+01 0. -1.
        -13    1    4    4    0    0 -0.98181938492E+01 -0.28469858802E+02 -0.46310857122E+02  0.55241517702E+02  0.00000000000E+00 0.  1.
         14    1    4    4    0    0 -0.79059335073E+02 -0.44901989258E+02  0.40806424065E+01  0.91012190084E+02  0.00000000000E+00 0. -1.
         -5    1    5    5    0  502 -0.12384724748E+02  0.16001042839E+02 -0.16258288890E+02  0.26378717495E+02  0.47000000000E+01 0.  1.
         11    1    6    6    0    0 -0.16076386821E+02  0.10810140888E+02  0.80133408646E+02  0.82441934357E+02  0.00000000000E+00 0. -1.
        -12    1    6    6    0    0  0.65776575364E+02  0.91844262584E+02  0.17686882188E+03  0.20986783124E+03  0.00000000000E+00 0.  1.
</event>
<event>
12    1  0.8728348E-002  0.2172472E+03  0.7818608E-02  0.1138929E+00
         21   -1    0    0  501  502  0.00000000000E+00  0.00000000000E+00  0.80807599596E+03  0.80807599596E+03  0.00000000000E+00 0. -1.
         21   -1    0    0  502  503 -0.00000000000E+00 -0.00000000000E+00 -0.83759341176E+02  0.83759341176E+02  0.00000000000E+00 0. -1.
         -6    2    1    2    0  503  0.70617899154E+02 -0.78335547519E+02  0.10679921583E+03  0.24207940316E+03  0.18992898474E+03 0.  0.
        -24    2    3    3    0    0 -0.31008737698E+02 -0.59857263712E+02  0.19089779842E+02  0.10649011356E+03  0.80195328791E+02 0.  0.
          6    2    1    2  501    0 -0.70617899154E+02  0.78335547519E+02  0.61751743895E+03  0.64975593398E+03  0.17242865378E+03 0.  0.
         24    2    5    5    0    0  0.22928879339E+02  0.57099238231E+01  0.25098036047E+03  0.26453262097E+03  0.80174992847E+02 0.  0.
          5    1    5    5  501    0 -0.93546778493E+02  0.72625623696E+02  0.36653707848E+03  0.38522331301E+03  0.47000000000E+01 0. -1.
        -13    1    6    6    0    0 -0.12501575651E+02 -0.23985367710E+02  0.38312158311E+02  0.46897854240E+02  0.00000000000E+00 0.  1.
         14    1    6    6    0    0  0.35430454991E+02  0.29695291533E+02  0.21266820216E+03  0.21763476673E+03  0.00000000000E+00 0. -1.
         -5    1    3    3    0  503  0.10162663685E+03 -0.18478283807E+02  0.87709435989E+02  0.13558928959E+03  0.47000000000E+01 0.  1.
         11    1    4    4    0    0  0.15429737682E+02  0.11391804151E+02  0.77688434036E+01  0.20693113216E+02  0.00000000000E+00 0. -1.
        -12    1    4    4    0    0 -0.46438475380E+02 -0.71249067863E+02  0.11320936438E+02  0.85797000349E+02  0.00000000000E+00 0.  1.
</event>
<event>
12    1  0.8728348E-002  0.1795067E+03  0.7818608E-02  0.1168299E+00
         21   -1    0    0  501  502  0.00000000000E+00  0.00000000000E+00  0.16228333799E+03  0.16228333799E+03  0.00000000000E+00 0.  1.
         21   -1    0    0  502  503 -0.00000000000E+00 -0.00000000000E+00 -0.22109276957E+03  0.22109276957E+03  0.00000000000E+00 0.  1.
         -6    2    1    2    0  503 -0.48745802333E+01 -0.52700799979E+02  0.31905888917E+02  0.18224942747E+03  0.17145183643E+03 0.  0.
        -24    2    3    3    0    0  0.13764532943E+02  0.35890981074E+02  0.20634674576E+02  0.90898179628E+02  0.79743741919E+02 0.  0.
          6    2    1    2  501    0  0.48745802333E+01  0.52700799979E+02 -0.90715320497E+02  0.20112668009E+03  0.17152707140E+03 0.  0.
         24    2    5    5    0    0 -0.83684452807E+01 -0.28286247939E+02 -0.15403452472E+02  0.89644631671E+02  0.83239119052E+02 0.  0.
          5    1    5    5  501    0  0.13243025514E+02  0.80987047918E+02 -0.75311868025E+02  0.11148204842E+03  0.47000000000E+01 0. -1.
        -11    1    6    6    0    0  0.10629542719E+02  0.15281648754E+02 -0.33874155821E+02  0.38651965017E+02  0.00000000000E+00 0.  1.
         12    1    6    6    0    0 -0.18997987999E+02 -0.43567896693E+02  0.18470703349E+02  0.50992666654E+02  0.00000000000E+00 0. -1.
         -5    1    3    3    0  503 -0.18639113177E+02 -0.88591781053E+02  0.11271214341E+02  0.91351247845E+02  0.47000000000E+01 0.  1.
         13    1    4    4    0    0  0.24391067400E+02  0.14059271299E+02 -0.25999387025E+02  0.38321735400E+02  0.00000000000E+00 0. -1.
        -14    1    4    4    0    0 -0.10626534457E+02  0.21831709775E+02  0.46634061602E+02  0.52576444229E+02  0.00000000000E+00 0.  1.
</event>
<event>
12    1  0.8728348E-002  0.2041938E+03  0.7818608E-02  0.1146501E+00
         21   -1    0    0  503  502  0.00000000000E+00  0.00000000000E+00  0.41237303944E+02  0.41237303944E+02  0.00000000000E+00 0. -1.
         21   -1    0    0  501  503 -0.00000000000E+00 -0.00000000000E+00 -0.10681084020E+04  0.10681084020E+04  0.00000000000E+00 0. -1.
          6    2    1    2  501    0 -0.65885003224E+02 -0.85409078024E+02 -0.38011051877E+03  0.43148479577E+03  0.17337698303E+03 0.  0.
         24    2    3    3    0    0 -0.68395495499E+02 -0.70179334139E+02 -0.39167898775E+03  0.41163115266E+03  0.80154186776E+02 0.  0.
         -6    2    1    2    0  502  0.65885003224E+02  0.85409078024E+02 -0.64676057930E+03  0.67786091018E+03  0.17193202832E+03 0.  0.
        -24    2    5    5    0    0  0.92297964353E+02  0.97294418067E+02 -0.61512318095E+03  0.63471092991E+03  0.80599744361E+02 0.  0.
          5    1    3    3  501    0  0.25104922745E+01 -0.15229743885E+02  0.11568468975E+02  0.19853643108E+02  0.47000000000E+01 0. -1.
        -13    1    4    4    0    0 -0.31827410080E+02 -0.33388176389E+02 -0.58797416143E+02  0.74732124953E+02  0.00000000000E+00 0.  1.
         14    1    4    4    0    0 -0.36568085419E+02 -0.36791157750E+02 -0.33288157160E+03  0.33689902771E+03  0.00000000000E+00 0. -1.
         -5    1    5    5    0  502 -0.26412961129E+02 -0.11885340043E+02 -0.31637398341E+02  0.43149980270E+02  0.47000000000E+01 0.  1.
         13    1    6    6    0    0 -0.12744577194E+02  0.34136837028E+01 -0.28465130929E+02  0.31374211752E+02  0.00000000000E+00 0. -1.
        -14    1    6    6    0    0  0.10504254155E+03  0.93880734364E+02 -0.58665805003E+03  0.60333671816E+03  0.00000000000E+00 0.  1.
</event>
<event>
12    1  0.8728348E-002  0.1808069E+03  0.7818608E-02  0.1167583E+00
         21   -1    0    0  501  502  0.00000000000E+00  0.00000000000E+00  0.68254096810E+02  0.68254096810E+02  0.00000000000E+00 0.  1.
         21   -1    0    0  502  503 -0.00000000000E+00 -0.00000000000E+00 -0.64273926237E+03  0.64273926237E+03  0.00000000000E+00 0. -1.
         -6    2    1    2    0  503  0.68149088366E+01 -0.56241788957E+02 -0.47134923755E+03  0.50483782359E+03  0.17170190032E+03 0.  0.
        -24    2    3    3    0    0 -0.45319439831E+02 -0.53846355845E+02 -0.41210547021E+03  0.42574520459E+03  0.80466011400E+02 0.  0.
          6    2    1    2  501    0 -0.68149088366E+01  0.56241788957E+02 -0.10313592801E+03  0.20615553560E+03  0.16927345747E+03 0.  0.
         24    2    5    5    0    0 -0.18124218121E+02  0.44353075231E+02  0.80295652295E+01  0.93687322853E+02  0.80107165601E+02 0.  0.
          5    1    5    5  501    0  0.11309309285E+02  0.11888713726E+02 -0.11116549324E+03  0.11246821274E+03  0.47000000000E+01 0. -1.
        -13    1    6    6    0    0 -0.38082756570E+02  0.28737961122E+02 -0.23543702065E+02  0.53202186650E+02  0.00000000000E+00 0.  1.
         14    1    6    6    0    0  0.19958538449E+02  0.15615114110E+02  0.31573267295E+02  0.40485136203E+02  0.00000000000E+00 0. -1.
         -5    1    3    3    0  503  0.52134348667E+02 -0.23954331118E+01 -0.59243767348E+02  0.79092619000E+02  0.47000000000E+01 0.  1.
         13    1    4    4    0    0 -0.67351674326E+02 -0.30238725771E+02 -0.26184337796E+03  0.27205253749E+03  0.00000000000E+00 0. -1.
        -14    1    4    4    0    0  0.22032234496E+02 -0.23607630075E+02 -0.15026209225E+03  0.15369266710E+03  0.00000000000E+00 0.  1.
</event>
<event>
12    1  0.8728348E-002  0.2027369E+03  0.7818608E-02  0.1147751E+00
         21   -1    0    0  503  502  0.00000000000E+00  0.00000000000E+00  0.55130412278E+03  0.55130412278E+03  0.00000000000E+00 0. -1.
         21   -1    0    0  501  503 -0.00000000000E+00 -0.00000000000E+00 -0.90498853752E+02  0.90498853752E+02  0.00000000000E+00 0. -1.
          6    2    1    2  501    0 -0.95609925466E+01  0.89438559810E+02  0.92814508869E+02  0.22166079576E+03  0.18007861272E+03 0.  0.
         24    2    3    3    0    0  0.25782003455E+02  0.98396668381E+02  0.11919213155E+03  0.17641431463E+03  0.81047085896E+02 0.  0.
         -6    2    1    2    0  502  0.95609925466E+01 -0.89438559810E+02  0.36799076015E+03  0.42014218077E+03  0.18169090221E+03 0.  0.
        -24    2    5    5    0    0  0.43941419901E+02  0.42160952932E+01  0.10794552554E+03  0.14157652917E+03  0.80268632009E+02 0.  0.
          5    1    3    3  501    0 -0.35342996002E+02 -0.89581085708E+01 -0.26377622685E+02  0.45246481124E+02  0.47000000000E+01 0. -1.
        -13    1    4    4    0    0  0.37415184774E+02  0.10289275154E+02  0.21563492386E+02  0.44393123778E+02  0.00000000000E+00 0.  1.
         14    1    4    4    0    0 -0.11633181319E+02  0.88107393227E+02  0.97628639168E+02  0.13202119085E+03  0.00000000000E+00 0. -1.
         -5    1    5    5    0  502 -0.34380427355E+02 -0.93654655103E+02  0.26004523462E+03  0.27856565161E+03  0.47000000000E+01 0.  1.
         13    1    6    6    0    0 -0.12117224766E+02  0.11587976051E+02  0.73458516355E+02  0.75347607461E+02  0.00000000000E+00 0. -1.
        -14    1    6    6    0    0  0.56058644667E+02 -0.73718807576E+01  0.34487009182E+02  0.66228921705E+02  0.00000000000E+00 0.  1.
</event>
<event>
12    1  0.8728348E-002  0.1751864E+03  0.7818608E-02  0.1173038E+00
         21   -1    0    0  501  502  0.00000000000E+00  0.00000000000E+00  0.13802230851E+03  0.13802230851E+03  0.00000000000E+00 0. -1.
         21   -1    0    0  502  503 -0.00000000000E+00 -0.00000000000E+00 -0.40248210248E+03  0.40248210248E+03  0.00000000000E+00 0. -1.
         -6    2    1    2    0  503 -0.27951589563E+02 -0.18650277896E+02 -0.31466466184E+03  0.36014458811E+03  0.17193356480E+03 0.  0.
        -24    2    3    3    0    0 -0.10939328041E+02 -0.25273741465E+02 -0.32804799713E+03  0.33702552725E+03  0.72196168145E+02 0.  0.
          6    2    1    2  501    0  0.27951589563E+02  0.18650277896E+02  0.50204867874E+02  0.18035982289E+03  0.16994120374E+03 0.  0.
         24    2    5    5    0    0 -0.23918665061E+02 -0.33710548278E+02  0.55822628074E+02  0.10629344278E+03  0.80458850165E+02 0.  0.
          5    1    5    5  501    0  0.51870254624E+02  0.52360826174E+02 -0.56177601997E+01  0.74066380106E+02  0.47000000000E+01 0. -1.
        -13    1    6    6    0    0 -0.40315039117E+02 -0.48884755061E+01 -0.86517326650E+00  0.40619553131E+02  0.00000000000E+00 0.  1.
         14    1    6    6    0    0  0.16396374057E+02 -0.28822072772E+02  0.56687801340E+02  0.65673889651E+02  0.00000000000E+00 0. -1.
         -5    1    3    3    0  503 -0.17012261522E+02  0.66234635684E+01  0.13383335281E+02  0.23119060859E+02  0.47000000000E+01 0.  1.
         13    1    4    4    0    0 -0.39710201697E+00  0.14705302550E+02 -0.23188143297E+03  0.23234758998E+03  0.00000000000E+00 0. -1.
        -14    1    4    4    0    0 -0.10542226024E+02 -0.39979044014E+02 -0.96166564157E+02  0.10467793727E+03  0.00000000000E+00 0.  1.
</event>
<event>
12    1  0.8728348E-002  0.1797195E+03  0.7818608E-02  0.1168792E+00
         21   -1    0    0  503  502  0.00000000000E+00  0.00000000000E+00  0.63859543363E+03  0.63859543363E+03  0.00000000000E+00 0.  1.
         21   -1    0    0  501  503 -0.00000000000E+00 -0.00000000000E+00 -0.14640260186E+03  0.14640260186E+03  0.00000000000E+00 0.  1.
          6    2    1    2  501    0  0.40128441832E+02  0.27019248915E+02 -0.72113261276E+02  0.19364767774E+03  0.17308601615E+03 0.  0.
         24    2    3    3    0    0 -0.10501574238E+02 -0.19702025449E+02 -0.96448191300E+02  0.12043186781E+03  0.68579357756E+02 0.  0.
         -6    2    1    2    0  502 -0.40128441832E+02 -0.27019248915E+02  0.56430609305E+03  0.59135035774E+03  0.17003984031E+03 0.  0.
        -24    2    5    5    0    0  0.14522570744E+02 -0.67230924769E+02  0.34485219031E+03  0.36159871470E+03  0.84259687922E+02 0.  0.
          5    1    3    3  501    0  0.50630016070E+02  0.46721274363E+02  0.24334930023E+02  0.73215809937E+02  0.47000000000E+01 0. -1.
        -11    1    4    4    0    0 -0.11990464727E+02  0.21810838466E+02 -0.15154555801E+02  0.29140083741E+02  0.00000000000E+00 0.  1.
         12    1    4    4    0    0  0.14888904886E+01 -0.41512863914E+02 -0.81293635499E+02  0.91291784066E+02  0.00000000000E+00 0. -1.
         -5    1    5    5    0  502 -0.54651012577E+02  0.40211675854E+02  0.21945390274E+03  0.22975164304E+03  0.47000000000E+01 0.  1.
         13    1    6    6    0    0 -0.77964973705E+01 -0.50685271129E+02  0.78274441621E+02  0.93577082086E+02  0.00000000000E+00 0. -1.
        -14    1    6    6    0    0  0.22319068115E+02 -0.16545653640E+02  0.26657774869E+03  0.26802163262E+03  0.00000000000E+00 0.  1.
</event>
<event>
12    1  0.8728348E-002  0.1867148E+03  0.7818608E-02  0.1161491E+00
         21   -1    0    0  503  502  0.00000000000E+00  0.00000000000E+00  0.11670888829E+03  0.11670888829E+03  0.00000000000E+00 0.  1.
         21   -1    0    0  501  503 -0.00000000000E+00 -0.00000000000E+00 -0.92016746528E+03  0.92016746528E+03  0.00000000000E+00 0. -1.
          6    2    1    2  501    0 -0.64991660196E+02  0.35944650449E+02 -0.82781534607E+03  0.84857956011E+03  0.17115223886E+03 0.  0.
         24    2    3    3    0    0 -0.81999757154E+02 -0.27957436797E+02 -0.44813781896E+03  0.46315788622E+03  0.78626613436E+02 0.  0.
         -6    2    1    2    0  502  0.64991660196E+02 -0.35944650449E+02  0.24356769073E+02  0.18829679346E+03  0.17130819139E+03 0.  0.
        -24    2    5    5    0    0  0.43052300894E+02  0.43981104558E+02  0.17028143974E+01  0.10224591628E+03  0.81630200597E+02 0.  0.
          5    1    3    3  501    0  0.17008096958E+02  0.63902087246E+02 -0.37967752711E+03  0.38542167389E+03  0.47000000000E+01 0. -1.
        -13    1    4    4    0    0 -0.81039314847E+02  0.75284101870E+01 -0.30274840853E+03  0.31349744238E+03  0.00000000000E+00 0.  1.
         14    1    4    4    0    0 -0.96044230702E+00 -0.35485846984E+02 -0.14538941043E+03  0.14966044384E+03  0.00000000000E+00 0. -1.
         -5    1    5    5    0  502  0.21939359302E+02 -0.79925755007E+02  0.22653954675E+02  0.86050877174E+02  0.47000000000E+01 0.  1.
         13    1    6    6    0    0 -0.20669208490E+02  0.15308464019E+02 -0.15833536197E+02  0.30203743456E+02  0.00000000000E+00 0. -1.
        -14    1    6    6    0    0  0.63721509384E+02  0.28672640539E+02  0.17536350595E+02  0.72042172828E+02  0.00000000000E+00 0.  1.
</event>
<event>
12    1  0.8728348E-002  0.1990984E+03  0.7818608E-02  0.1150866E+00
         21   -1    0    0  501  502  0.00000000000E+00  0.00000000000E+00  0.35579686464E+03  0.35579686464E+03  0.00000000000E+00 0.  1.
         21   -1    0    0  502  503 -0.00000000000E+00 -0.00000000000E+00 -0.18316014509E+03  0.18316014509E+03  0.00000000000E+00 0. -1.
         -6    2    1    2    0  503  0.61223591925E+02  0.79720772059E+02 -0.83234577476E+02  0.21579661921E+03  0.17186173590E+03 0.  0.
        -24    2    3    3    0    0  0.38634742092E+02  0.10039982664E+03 -0.78919366825E+01  0.13433200752E+03  0.80062707269E+02 0.  0.
          6    2    1    2  501    0 -0.61223591925E+02 -0.79720772059E+02  0.25587129703E+03  0.32316039052E+03  0.16987874397E+03 0.  0.
         24    2    5    5    0    0 -0.18142244767E+02 -0.11490355211E+03  0.20157180546E+03  0.24528642009E+03  0.77474304086E+02 0.  0.
          5    1    5    5  501    0 -0.43081347158E+02  0.35182780056E+02  0.54299491574E+02  0.77873970431E+02  0.47000000000E+01 0. -1.
        -13    1    6    6    0    0  0.29794070483E+02 -0.30630508662E+02  0.57850043021E+02  0.71920387751E+02  0.00000000000E+00 0.  1.
         14    1    6    6    0    0 -0.47936315249E+02 -0.84273043453E+02  0.14372176244E+03  0.17336603234E+03  0.00000000000E+00 0. -1.
         -5    1    3    3    0  503  0.22588849833E+02 -0.20679054579E+02 -0.75342640794E+02  0.81464611684E+02  0.47000000000E+01 0.  1.
         11    1    4    4    0    0  0.50239872278E+02  0.23796947447E+02  0.48990858673E+01  0.55806276678E+02  0.00000000000E+00 0. -1.
        -12    1    4    4    0    0 -0.11605130186E+02  0.76602879191E+02 -0.12791022550E+02  0.78525730846E+02  0.00000000000E+00 0.  1.
</event>
<event>
12    1  0.8728348E-002  0.2074805E+03  0.7818608E-02  0.1143659E+00
         21   -1    0    0  501  502  0.00000000000E+00  0.00000000000E+00  0.14388514246E+04  0.14388514246E+04  0.00000000000E+00 0.  1.
         21   -1    0    0  502  503 -0.00000000000E+00 -0.00000000000E+00 -0.32276840063E+02  0.32276840063E+02  0.00000000000E+00 0.  1.
         -6    2    1    2    0  503 -0.11418665675E+03  0.23610285477E+02  0.50262867250E+03  0.54376810262E+03  0.17161622547E+03 0.  0.
        -24    2    3    3    0    0 -0.11643363440E+02 -0.70597377498E+01  0.33660297915E+03  0.34617660943E+03  0.79694865172E+02 0.  0.
          6    2    1    2  501    0  0.11418665675E+03 -0.23610285477E+02  0.90394591207E+03  0.92736016208E+03  0.17112165294E+03 0.  0.
         24    2    5    5    0    0  0.83404727912E+02 -0.25723133060E+02  0.28626403059E+03  0.30889028571E+03  0.76472774134E+02 0.  0.
          5    1    5    5  501    0  0.30781928839E+02  0.21128475826E+01  0.61768188148E+03  0.61846987637E+03  0.47000000000E+01 0. -1.
        -11    1    6    6    0    0  0.15416495173E+02 -0.27849773235E+01  0.17993382457E+03  0.18061452225E+03  0.00000000000E+00 0.  1.
         12    1    6    6    0    0  0.67988232739E+02 -0.22938155736E+02  0.10633020602E+03  0.12827576346E+03  0.00000000000E+00 0. -1.
         -5    1    3    3    0  503 -0.10254329331E+03  0.30670023227E+02  0.16602569335E+03  0.19759149319E+03  0.47000000000E+01 0.  1.
         13    1    4    4    0    0  0.16292883195E+02 -0.36677509590E+02  0.16831967097E+03  0.17303817321E+03  0.00000000000E+00 0. -1.
        -14    1    4    4    0    0 -0.27936246635E+02  0.29617771840E+02  0.16828330817E+03  0.17313843621E+03  0.00000000000E+00 0.  1.
</event>
<event>
12    1  0.8728348E-002  0.1881729E+03  0.7818608E-02  0.1160250E+00
         21   -1    0    0  503  502  0.00000000000E+00  0.00000000000E+00  0.55065826492E+03  0.55065826492E+03  0.00000000000E+00 0. -1.
         21   -1    0    0  501  503 -0.00000000000E+00 -0.00000000000E+00 -0.75744446874E+02  0.75744446874E+02  0.00000000000E+00 0. -1.
          6    2    1    2  501    0  0.74302541175E+02 -0.84948407818E+01  0.35991195365E+03  0.40587049121E+03  0.17205002560E+03 0.  0.
         24    2    3    3    0    0  0.18285761469E+02  0.34653356478E+02  0.79503282364E+02  0.11664608099E+03  0.75830812438E+02 0.  0.
         -6    2    1    2    0  502 -0.74302541175E+02  0.84948407818E+01  0.11500186439E+03  0.22053222059E+03  0.17267310606E+03 0.  0.
        -24    2    5    5    0    0 -0.47652069216E+02 -0.17907460485E+02  0.14523474142E+03  0.17212306834E+03  0.77083225791E+02 0.  0.
          5    1    3    3  501    0  0.56016779706E+02 -0.43148197259E+02  0.28040867129E+03  0.28922441022E+03  0.47000000000E+01 0. -1.
        -13    1    4    4    0    0  0.48064677806E+02  0.19121474742E+02  0.49957413805E+02  0.71913748637E+02  0.00000000000E+00 0.  1.
         14    1    4    4    0    0 -0.29778916337E+02  0.15531881736E+02  0.29545868559E+02  0.44732332349E+02  0.00000000000E+00 0. -1.
         -5    1    5    5    0  502 -0.26650471959E+02  0.26402301267E+02 -0.30232877025E+02  0.48409152244E+02  0.47000000000E+01 0.  1.
         13    1    6    6    0    0 -0.67049312217E+01 -0.35472156006E+02  0.25036053901E+02  0.43932151659E+02  0.00000000000E+00 0. -1.
        -14    1    6    6    0    0 -0.40947137994E+02  0.17564695521E+02  0.12019868752E+03  0.12819091668E+03  0.00000000000E+00 0.  1.
</event>
<event>
12    1  0.8728348E-002  0.1811907E+03  0.7818608E-02  0.1167254E+00
         21   -1    0    0  501  502  0.00000000000E+00  0.00000000000E+00  0.11088898645E+04  0.11088898645E+04  0.00000000000E+00 0. -1.
         21   -1    0    0  502  503 -0.00000000000E+00 -0.00000000000E+00 -0.65457058806E+02  0.65457058806E+02  0.00000000000E+00 0. -1.
         -6    2    1    2    0  503  0.46030935281E+02  0.32905778733E+01  0.86337732365E+02  0.20070946682E+03  0.17521532791E+03 0.  0.
        -24    2    3    3    0    0  0.65802528464E+02  0.49261900608E+02  0.19180711850E+02  0.11682601305E+03  0.80769486907E+02 0.  0.
          6    2    1    2  501    0 -0.46030935281E+02 -0.32905778733E+01  0.95709507334E+03  0.97363745650E+03  0.17265353278E+03 0.  0.
         24    2    5    5    0    0 -0.50689092936E+02  0.57432678373E+02  0.45460227100E+03  0.46744567596E+03  0.77293845087E+02 0.  0.
          5    1    5    5  501    0  0.46581576552E+01 -0.60723256246E+02  0.50249280234E+03  0.50619178054E+03  0.47000000000E+01 0. -1.
        -13    1    6    6    0    0 -0.67977214900E+02  0.44750314008E+02  0.40946619380E+03  0.41747581513E+03  0.00000000000E+00 0.  1.
         14    1    6    6    0    0  0.17288121964E+02  0.12682364365E+02  0.45136077199E+02  0.49969860834E+02  0.00000000000E+00 0. -1.
         -5    1    3    3    0  503 -0.19771593183E+02 -0.45971322734E+02  0.67157020515E+02  0.83883453764E+02  0.47000000000E+01 0.  1.
         13    1    4    4    0    0  0.51034413985E+02 -0.11793641080E+02  0.10349209439E+02  0.53392017351E+02  0.00000000000E+00 0. -1.
        -14    1    4    4    0    0  0.14768114479E+02  0.61055541688E+02  0.88315024109E+01  0.63433995703E+02  0.00000000000E+00 0.  1.
</event>
<event>
12    1  0.8728348E-002  0.1972675E+03  0.7818608E-02  0.1152387E+00
         21   -1    0    0  503  502  0.00000000000E+00  0.00000000000E+00  0.40342574422E+03  0.40342574422E+03  0.00000000000E+00 0.  1.
         21   -1    0    0  501  503 -0.00000000000E+00 -0.00000000000E+00 -0.11127325529E+03  0.11127325529E+03  0.00000000000E+00 0.  1.
          6    2    1    2  501    0 -0.94464173203E+02 -0.20103917377E+02  0.50372765587E+02  0.20359733025E+03  0.17200816800E+03 0.  0.
         24    2    3    3    0    0 -0.61965190899E+02 -0.52964745598E+01 -0.38175897454E+02  0.10800235161E+03  0.79620168813E+02 0.  0.
         -6    2    1    2    0  502  0.94464173203E+02  0.20103917377E+02  0.24177972334E+03  0.31110166926E+03  0.17029141635E+03 0.  0.
        -24    2    5    5    0    0  0.10245315096E+03 -0.16470934109E+02  0.23946107953E+03  0.27329942546E+03  0.81135858497E+02 0.  0.
          5    1    3    3  501    0 -0.32498982304E+02 -0.14807442818E+02  0.88548663040E+02  0.95594978633E+02  0.47000000000E+01 0. -1.
        -11    1    4    4    0    0 -0.51269637015E+02 -0.36202950272E+02 -0.75838942091E+01  0.63219812870E+02  0.00000000000E+00 0.  1.
         12    1    4    4    0    0 -0.10695553885E+02  0.30906475712E+02 -0.30592003244E+02  0.44782538744E+02  0.00000000000E+00 0. -1.
         -5    1    5    5    0  502 -0.79889777621E+01  0.36574851486E+02  0.23186438100E+01  0.37802243797E+02  0.47000000000E+01 0.  1.
         13    1    6    6    0    0  0.67171244492E+02 -0.49443608008E+02  0.14904305540E+03  0.17079367325E+03  0.00000000000E+00 0. -1.
        -14    1    6    6    0    0  0.35281906473E+02  0.32972673899E+02  0.90418024128E+02  0.10250575221E+03  0.00000000000E+00 0.  1.
</event>
<event>
12    1  0.8728348E-002  0.2696282E+03  0.7818608E-02  0.1102484E+00
         21   -1    0    0  503  502  0.00000000000E+00  0.00000000000E+00  0.15845967102E+04  0.15845967102E+04  0.00000000000E+00 0.  1.
         21   -1    0    0  501  503 -0.00000000000E+00 -0.00000000000E+00 -0.44733034214E+02  0.44733034214E+02  0.00000000000E+00 0. -1.
          6    2    1    2  501    0 -0.93054625571E+02 -0.17547597770E+03  0.77048704796E+03  0.81407531785E+03  0.17209692031E+03 0.  0.
         24    2    3    3    0    0 -0.10981739327E+03 -0.19281504882E+03  0.65849441196E+03  0.69941898665E+03  0.79589731668E+02 0.  0.
         -6    2    1    2    0  502  0.93054625571E+02  0.17547597770E+03  0.76937662798E+03  0.81525442651E+03  0.18234144393E+03 0.  0.
        -24    2    5    5    0    0  0.12609085858E+03  0.11434190256E+03  0.65385759659E+03  0.68036371353E+03  0.79950301902E+02 0.  0.
          5    1    3    3  501    0  0.16762767695E+02  0.17339071120E+02  0.11199263599E+03  0.11465633120E+03  0.47000000000E+01 0. -1.
        -11    1    4    4    0    0  0.70199813248E+01 -0.32399760388E+02  0.14889447009E+03  0.15254044656E+03  0.00000000000E+00 0.  1.
         12    1    4    4    0    0 -0.11683737459E+03 -0.16041528843E+03  0.50959994187E+03  0.54687854010E+03  0.00000000000E+00 0. -1.
         -5    1    5    5    0  502 -0.33036233011E+02  0.61134075137E+02  0.11551903139E+03  0.13489071298E+03  0.47000000000E+01 0.  1.
         11    1    6    6    0    0  0.10630324055E+03  0.87337186623E+02  0.37384614770E+03  0.39835801143E+03  0.00000000000E+00 0. -1.
        -12    1    6    6    0    0  0.19787618033E+02  0.27004715937E+02  0.28001144889E+03  0.28200570210E+03  0.00000000000E+00 0.  1.
</event>
<event>
12    1  0.8728348E-002  0.2185092E+03  0.7818608E-02  0.1135373E+00
         21   -1    0    0  501  502  0.00000000000E+00  0.00000000000E+00  0.25166887562E+03  0.25166887562E+03  0.00000000000E+00 0.  1.
         21   -1    0    0  502  503 -0.00000000000E+00 -0.00000000000E+00 -0.33012468028E+03  0.33012468028E+03  0.00000000000E+00 0.  1.
         -6    2    1    2    0  503  0.12642770689E+03 -0.40536418310E+02 -0.22998936998E+03  0.31588253683E+03  0.17105408645E+03 0.  0.
        -24    2    3    3    0    0  0.67412386890E+02 -0.52409364358E+02 -0.50154610574E+02  0.12618170517E+03  0.78199529272E+02 0.  0.
          6    2    1    2  501    0 -0.12642770689E+03  0.40536418310E+02  0.15153356531E+03  0.26591101907E+03  0.17354850148E+03 0.  0.
         24    2    5    5    0    0 -0.14904953340E+03  0.68796347252E+02  0.12355245293E+03  0.21991750574E+03  0.78420659940E+02 0.  0.
          5    1    5    5  501    0  0.22621826502E+02 -0.28259928942E+02  0.27981112380E+02  0.45993513326E+02  0.47000000000E+01 0. -1.
        -13    1    6    6    0    0 -0.69389805104E+02  0.38707301479E+01  0.85846967351E+02  0.11045193257E+03  0.00000000000E+00 0.  1.
         14    1    6    6    0    0 -0.79659728292E+02  0.64925617104E+02  0.37705485583E+02  0.10946557318E+03  0.00000000000E+00 0. -1.
         -5    1    3    3    0  503  0.59015320005E+02  0.11872946048E+02 -0.17983475941E+03  0.18970083166E+03  0.47000000000E+01 0.  1.
         11    1    4    4    0    0  0.79782429383E+02 -0.57614783273E+02 -0.53957827000E+02  0.11223255492E+03  0.00000000000E+00 0. -1.
        -12    1    4    4    0    0 -0.12370042493E+02  0.52054189149E+01  0.38032164251E+01  0.13949150244E+02  0.00000000000E+00 0.  1.
</event>
<event>
12    1  0.8728348E-002  0.2177740E+03  0.7818608E-02  0.1135579E+00
         21   -1    0    0  503  502  0.00000000000E+00  0.00000000000E+00  0.75139104317E+03  0.75139104317E+03  0.00000000000E+00 0.  1.
         21   -1    0    0  501  503 -0.00000000000E+00 -0.00000000000E+00 -0.15028539096E+03  0.15028539096E+03  0.00000000000E+00 0.  1.
          6    2    1    2  501    0 -0.72628219921E+02 -0.11187011348E+03 -0.42915924574E+02  0.22183136868E+03  0.17198139124E+03 0.  0.
         24    2    3    3    0    0 -0.89681727734E+02 -0.59116959248E+02 -0.79908121940E+02  0.15501647457E+03  0.78148399060E+02 0.  0.
         -6    2    1    2    0  502  0.72628219921E+02  0.11187011348E+03  0.64402157679E+03  0.67984506545E+03  0.17215034428E+03 0.  0.
        -24    2    5    5    0    0 -0.20139411469E+02  0.14978438398E+02  0.23793018173E+03  0.25214640837E+03  0.79605843776E+02 0.  0.
          5    1    3    3  501    0  0.17053507813E+02 -0.52753154229E+02  0.36992197366E+02  0.66814894116E+02  0.47000000000E+01 0. -1.
        -11    1    4    4    0    0 -0.32757612280E+02 -0.14641701046E+02 -0.74361207975E+02  0.82565306414E+02  0.00000000000E+00 0.  1.
         12    1    4    4    0    0 -0.56924115454E+02 -0.44475258202E+02 -0.55469139648E+01  0.72451168154E+02  0.00000000000E+00 0. -1.
         -5    1    5    5    0  502  0.92767631389E+02  0.96891675078E+02  0.40609139506E+03  0.42769865708E+03  0.47000000000E+01 0.  1.
         11    1    6    6    0    0 -0.56759411630E+01 -0.22695326777E+02  0.18018742276E+03  0.18169975643E+03  0.00000000000E+00 0. -1.
        -12    1    6    6    0    0 -0.14463470306E+02  0.37673765176E+02  0.57742758972E+02  0.70446651939E+02  0.00000000000E+00 0.  1.
</event>
<event>
12    1  0.8728348E-002  0.2482950E+03  0.7818608E-02  0.1116692E+00
         21   -1    0    0  501  502  0.00000000000E+00  0.00000000000E+00  0.10422152408E+03  0.10422152408E+03  0.00000000000E+00 0.  1.
         21   -1    0    0  502  503 -0.00000000000E+00 -0.00000000000E+00 -0.71305102012E+03  0.71305102012E+03  0.00000000000E+00 0.  1.
         -6    2    1    2    0  503  0.63709309097E+02 -0.14466234668E+03 -0.48760588779E+03  0.54096549620E+03  0.17291065801E+03 0.  0.
        -24    2    3    3    0    0  0.10469672035E+03 -0.77349813021E+02 -0.27790852169E+03  0.31689849635E+03  0.79038685065E+02 0.  0.
          6    2    1    2  501    0 -0.63709309097E+02  0.14466234668E+03 -0.12122360824E+03  0.27630704800E+03  0.19147937478E+03 0.  0.
         24    2    5    5    0    0 -0.85380000311E+02  0.15133330484E+03 -0.43995367760E+02  0.19568191750E+03  0.78513099824E+02 0.  0.
          5    1    5    5  501    0  0.21670691214E+02 -0.66709581616E+01 -0.77228240485E+02  0.80625130504E+02  0.47000000000E+01 0. -1.
        -11    1    6    6    0    0 -0.78507386855E+02  0.12186401045E+03 -0.64977121211E+02  0.15885928715E+03  0.00000000000E+00 0.  1.
         12    1    6    6    0    0 -0.68726134560E+01  0.29469294398E+02  0.20981753451E+02  0.36822630350E+02  0.00000000000E+00 0. -1.
         -5    1    3    3    0  503 -0.40987411252E+02 -0.67312533662E+02 -0.20969736611E+03  0.22406699985E+03  0.47000000000E+01 0.  1.
         11    1    4    4    0    0  0.27287454472E+02 -0.60512102148E+02 -0.81477726830E+02  0.10509490781E+03  0.00000000000E+00 0. -1.
        -12    1    4    4    0    0  0.77409265877E+02 -0.16837710873E+02 -0.19643079486E+03  0.21180358854E+03  0.00000000000E+00 0.  1.
</event>
<event>
12    1  0.8728348E-002  0.1724849E+03  0.7818608E-02  0.1175513E+00
         21   -1    0    0  501  502  0.00000000000E+00  0.00000000000E+00  0.28768276616E+02  0.28768276616E+02  0.00000000000E+00 0. -1.
         21   -1    0    0  502  503 -0.00000000000E+00 -0.00000000000E+00 -0.11795486094E+04  0.11795486094E+04  0.00000000000E+00 0. -1.
         -6    2    1    2    0  503  0.51708023119E+00 -0.87684229707E+01 -0.36068317132E+03  0.39980421212E+03  0.17226115448E+03 0.  0.
        -24    2    3    3    0    0  0.50691178458E+02 -0.10391208100E+02 -0.11355298857E+03  0.14758309724E+03  0.78796678861E+02 0.  0.
          6    2    1    2  501    0 -0.51708023119E+00  0.87684229707E+01 -0.79009716146E+03  0.80851267389E+03  0.17135363049E+03 0.  0.
         24    2    5    5    0    0  0.14044579716E+02 -0.24720843057E+02 -0.74586054085E+03  0.75095799135E+03  0.82592905703E+02 0.  0.
          5    1    5    5  501    0 -0.14561659947E+02  0.33489266027E+02 -0.44236620610E+02  0.57554682541E+02  0.47000000000E+01 0. -1.
        -13    1    6    6    0    0  0.94093298201E+01 -0.54792880525E+02 -0.41630045829E+03  0.41999627001E+03  0.00000000000E+00 0.  1.
         14    1    6    6    0    0  0.46352498955E+01  0.30072037469E+02 -0.32956008256E+03  0.33096172135E+03  0.00000000000E+00 0. -1.
         -5    1    3    3    0  503 -0.50174098227E+02  0.16227851292E+01 -0.24713018275E+03  0.25222111488E+03  0.47000000000E+01 0.  1.
         13    1    4    4    0    0  0.19743801283E+01 -0.23520789621E+02 -0.30665711978E+00  0.23605502746E+02  0.00000000000E+00 0. -1.
        -14    1    4    4    0    0  0.48716798329E+02  0.13129581521E+02 -0.11324633145E+03  0.12397759450E+03  0.00000000000E+00 0.  1.
</event>
<event>
12    1  0.8728348E-002  0.2461203E+03  0.7818608E-02  0.1116082E+00
         21   -1    0    0  501  502  0.00000000000E+00  0.00000000000E+00  0.51710727081E+02  0.51710727081E+02  0.00000000000E+00 0.  1.
         21   -1    0    0  502  503 -0.00000000000E+00 -0.00000000000E+00 -0.11627110654E+04  0.11627110654E+04  0.00000000000E+00 0.  1.
         -6    2    1    2    0  503  0.60423345896E+02  0.16300074142E+03 -0.55207913540E+03  0.60445558116E+03  0.17422673568E+03 0.  0.
        -24    2    3    3    0    0  0.36860686104E+02  0.15096377557E+03 -0.27943298006E+03  0.33048824095E+03  0.83611693846E+02 0.  0.
          6    2    1    2  501    0 -0.60423345896E+02 -0.16300074142E+03 -0.55892120292E+03  0.60996621132E+03  0.17159733517E+03 0.  0.
         24    2    5    5    0    0 -0.92336152870E-01 -0.93391008494E+02 -0.45446542762E+03  0.47061613184E+03  0.78859556533E+02 0.  0.
          5    1    5    5  501    0 -0.60331009743E+02 -0.69609732930E+02 -0.10445577530E+03  0.13935007947E+03  0.47000000000E+01 0. -1.
        -13    1    6    6    0    0  0.38521488403E+02 -0.34416784527E+02 -0.20088406997E+03  0.20741945351E+03  0.00000000000E+00 0.  1.
         14    1    6    6    0    0 -0.38613824556E+02 -0.58974223967E+02 -0.25358135765E+03  0.26319667834E+03  0.00000000000E+00 0. -1.
         -5    1    3    3    0  503  0.23562659792E+02  0.12036965855E+02 -0.27264615533E+03  0.27396734021E+03  0.47000000000E+01 0.  1.
         13    1    4    4    0    0  0.12161962362E+02 -0.86235477872E+01 -0.26263406190E+02  0.30200089563E+02  0.00000000000E+00 0. -1.
        -14    1    4    4    0    0  0.24698723742E+02  0.15958732336E+03 -0.25316957387E+03  0.30028815139E+03  0.00000000000E+00 0.  1.
</event>
<event>
12    1  0.8728348E-002  0.3316950E+03  0.7818608E-02  0.1070900E+00
         21   -1    0    0  501  502  0.00000000000E+00  0.00000000000E+00  0.37493667450E+03  0.37493667450E+03  0.00000000000E+00 0. -1.
         21   -1    0    0  502  503 -0.00000000000E+00 -0.00000000000E+00 -0.35016392054E+03  0.35016392054E+03  0.00000000000E+00 0.  1.
         -6    2    1    2    0  503  0.11022430777E+03 -0.26167835227E+03 -0.13874074459E+03  0.35529223299E+03  0.16235337551E+03 0.  0.
        -24    2    3    3    0    0  0.13127029692E+03 -0.22216345278E+03 -0.71872442629E+02  0.27468317178E+03  0.60800544771E+02 0.  0.
          6    2    1    2  501    0 -0.11022430777E+03  0.26167835227E+03  0.16351349855E+03  0.36980836206E+03  0.17145437402E+03 0.  0.
         24    2    5    5    0    0 -0.31920648116E+02  0.23281832518E+03  0.12124873902E+03  0.27614532679E+03  0.79571882444E+02 0.  0.
          5    1    5    5  501    0 -0.78303659651E+02  0.28860027092E+02  0.42264759527E+02  0.93663035272E+02  0.47000000000E+01 0. -1.
        -11    1    6    6    0    0 -0.41590376012E+02  0.78546016213E+02  0.19214977852E+02  0.90931025583E+02  0.00000000000E+00 0.  1.
         12    1    6    6    0    0  0.96697278961E+01  0.15427230897E+03  0.10203376117E+03  0.18521430121E+03  0.00000000000E+00 0. -1.
         -5    1    3    3    0  503 -0.21045989157E+02 -0.39514899492E+02 -0.66868301960E+02  0.80609061206E+02  0.47000000000E+01 0.  1.
         11    1    4    4    0    0  0.16279622498E+02 -0.81194855990E+02 -0.15681682327E+02  0.84282536201E+02  0.00000000000E+00 0. -1.
        -12    1    4    4    0    0  0.11499067443E+03 -0.14096859679E+03 -0.56190760302E+02  0.19040063558E+03  0.00000000000E+00 0.  1.
</event>
<event>
12    1  0.8728348E-002  0.1934885E+03  0.7818608E-02  0.1156336E+00
         21   -1    0    0  501  502  0.00000000000E+00  0.00000000000E+00  0.50995958669E+03  0.50995958669E+03  0.00000000000E+00 0.  1.
         21   -1    0    0  502  503 -0.00000000000E+00 -0.00000000000E+00 -0.10733296795E+03  0.10733296795E+03  0.00000000000E+00 0. -1.
         -6    2    1    2    0  503 -0.12822930077E+02 -0.79615113117E+02  0.22054011300E+02  0.19035776691E+03  0.17101668409E+03 0.  0.
        -24    2    3    3    0    0 -0.52468009495E+02 -0.10516809956E+03  0.28895385934E+02  0.14246641231E+03  0.75156597328E+02 0.  0.
          6    2    1    2  501    0  0.12822930077E+02  0.79615113117E+02  0.38057260744E+03  0.42693478772E+03  0.17588294307E+03 0.  0.
         24    2    5    5    0    0  0.77581207752E+02  0.59470298241E+02  0.25030224603E+03  0.27999294496E+03  0.78671943474E+02 0.  0.
          5    1    5    5  501    0 -0.64758277675E+02  0.20144814876E+02  0.13027036140E+03  0.14694184276E+03  0.47000000000E+01 0. -1.
        -13    1    6    6    0    0  0.17184384249E+02 -0.16632927411E+02  0.84523446757E+02  0.87841734887E+02  0.00000000000E+00 0.  1.
         14    1    6    6    0    0  0.60396823503E+02  0.76103225652E+02  0.16577879928E+03  0.19215121008E+03  0.00000000000E+00 0. -1.
         -5    1    3    3    0  503  0.39645079418E+02  0.25552986448E+02 -0.68413746343E+01  0.47891354599E+02  0.47000000000E+01 0.  1.
         13    1    4    4    0    0  0.18670775021E+02 -0.14428823035E+02 -0.13826098972E-01  0.23596376103E+02  0.00000000000E+00 0. -1.
        -14    1    4    4    0    0 -0.71138784516E+02 -0.90739276530E+02  0.28909212033E+02  0.11887003621E+03  0.00000000000E+00 0.  1.
</event>
<event>
12    1  0.8728348E-002  0.1844286E+03  0.7818608E-02  0.1163619E+00
         21   -1    0    0  501  502  0.00000000000E+00  0.00000000000E+00  0.12400175125E+03  0.12400175125E+03  0.00000000000E+00 0. -1.
         21   -1    0    0  502  503 -0.00000000000E+00 -0.00000000000E+00 -0.34937220807E+03  0.34937220807E+03  0.00000000000E+00 0.  1.
         -6    2    1    2    0  503  0.20747770547E+01  0.66317657488E+02 -0.22252527442E+03  0.28892337981E+03  0.17192116000E+03 0.  0.
        -24    2    3    3    0    0 -0.65647603071E+02  0.52892159989E+02 -0.13633207509E+03  0.17838866869E+03  0.78287253379E+02 0.  0.
          6    2    1    2  501    0 -0.20747770547E+01 -0.66317657488E+02 -0.28451824059E+01  0.18445057950E+03  0.17208016975E+03 0.  0.
         24    2    5    5    0    0 -0.40365870092E+02 -0.10092283465E+03 -0.68443926919E+01  0.13247164362E+03  0.75412655629E+02 0.  0.
          5    1    5    5  501    0  0.38291093037E+02  0.34605177167E+02  0.39992102860E+01  0.51978935884E+02  0.47000000000E+01 0. -1.
        -13    1    6    6    0    0 -0.29914083166E+02 -0.16377967060E+02 -0.28644993706E+02  0.44537914647E+02  0.00000000000E+00 0.  1.
         14    1    6    6    0    0 -0.10451786926E+02 -0.84544867595E+02  0.21800601014E+02  0.87933728973E+02  0.00000000000E+00 0. -1.
         -5    1    3    3    0  503  0.67722380126E+02  0.13425497499E+02 -0.86193199328E+02  0.11053471112E+03  0.47000000000E+01 0.  1.
         13    1    4    4    0    0 -0.44646230091E+02 -0.62840845555E+01 -0.27703887185E+02  0.52917680837E+02  0.00000000000E+00 0. -1.
        -14    1    4    4    0    0 -0.21001372980E+02  0.59176244545E+02 -0.10862818790E+03  0.12547098785E+03  0.00000000000E+00 0.  1.
</event>
<event>
12    1  0.8728348E-002  0.1842089E+03  0.7818608E-02  0.1164185E+00
         21   -1    0    0  503  502  0.00000000000E+00  0.00000000000E+00  0.14243191348E+03  0.14243191348E+03  0.00000000000E+00 0. -1.
         21   -1    0    0  501  503 -0.00000000000E+00 -0.00000000000E+00 -0.24675043217E+03  0.24675043217E+03  0.00000000000E+00 0. -1.
          6    2    1    2  501    0 -0.59948411938E+02 -0.11824225970E+02 -0.92851218335E+02  0.20628689239E+03  0.17377948329E+03 0.  0.
         24    2    3    3    0    0 -0.22402112686E+02  0.26617912576E+02  0.11998013869E+02  0.88376018855E+02  0.80349240502E+02 0.  0.
         -6    2    1    2    0  502  0.59948411938E+02  0.11824225970E+02 -0.11467300348E+02  0.18289545326E+03  0.17200471922E+03 0.  0.
        -24    2    5    5    0    0 -0.37488336330E+02  0.13102679466E+02  0.15953226433E+01  0.84466410415E+02  0.74531697043E+02 0.  0.
          5    1    3    3  501    0 -0.37546299252E+02 -0.38442138547E+02 -0.10484923220E+03  0.11791087353E+03  0.47000000000E+01 0. -1.
        -13    1    4    4    0    0 -0.12334971802E-01  0.45837952119E+02 -0.15152869466E+02  0.48277608264E+02  0.00000000000E+00 0.  1.
         14    1    4    4    0    0 -0.22389777714E+02 -0.19220039543E+02  0.27150883335E+02  0.40098410592E+02  0.00000000000E+00 0. -1.
         -5    1    5    5    0  502  0.97436748268E+02 -0.12784534953E+01 -0.13062622992E+02  0.98429042847E+02  0.47000000000E+01 0.  1.
         13    1    6    6    0    0 -0.21855068999E+02  0.42103286571E+02  0.13685274542E+02  0.49372234305E+02  0.00000000000E+00 0. -1.
        -14    1    6    6    0    0 -0.15633267331E+02 -0.29000607105E+02 -0.12089951899E+02  0.35094176110E+02  0.00000000000E+00 0.  1.
</event>
<event>
12    1  0.8728348E-002  0.2066432E+03  0.7818608E-02  0.1144527E+00
         21   -1    0    0  501  502  0.00000000000E+00  0.00000000000E+00  0.66698224695E+03  0.66698224695E+03  0.00000000000E+00 0. -1.
         21   -1    0    0  502  503 -0.00000000000E+00 -0.00000000000E+00 -0.13395867973E+03  0.13395867973E+03  0.00000000000E+00 0.  1.
         -6    2    1    2    0  503  0.10084614734E+03  0.49213128274E+02 -0.23296338357E+02  0.20795222232E+03  0.17352097844E+03 0.  0.
        -24    2    3    3    0    0  0.66782416206E+02  0.73498263824E+02  0.19318587669E+02  0.14805040675E+03  0.10809176292E+03 0.  0.
          6    2    1    2  501    0 -0.10084614734E+03 -0.49213128274E+02  0.55631990557E+03  0.59298870437E+03  0.17190662798E+03 0.  0.
         24    2    5    5    0    0 -0.23405214118E+02 -0.39671625709E+02  0.46027605504E+03  0.46915555196E+03  0.78302255146E+02 0.  0.
          5    1    5    5  501    0 -0.77440933220E+02 -0.95415025648E+01  0.96043850535E+02  0.12383315241E+03  0.47000000000E+01 0. -1.
        -11    1    6    6    0    0  0.35750306083E+01 -0.22629917806E+02  0.30248483805E+02  0.37945550414E+02  0.00000000000E+00 0.  1.
         12    1    6    6    0    0 -0.26980244726E+02 -0.17041707903E+02  0.43002757124E+03  0.43121000155E+03  0.00000000000E+00 0. -1.
         -5    1    3    3    0  503  0.34063731132E+02 -0.24285135550E+02 -0.42614926026E+02  0.59901815561E+02  0.47000000000E+01 0.  1.
         11    1    4    4    0    0 -0.30083130310E+02  0.15445591689E+02  0.30243366534E+01  0.33951548478E+02  0.00000000000E+00 0. -1.
        -12    1    4    4    0    0  0.96865546516E+02  0.58052672135E+02  0.16294251016E+02  0.11409885828E+03  0.00000000000E+00 0.  1.
</event>
<event>
12    1  0.8728348E-002  0.2265990E+03  0.7818608E-02  0.1129523E+00
         21   -1    0    0  503  502  0.00000000000E+00  0.00000000000E+00  0.21836647942E+03  0.21836647942E+03  0.00000000000E+00 0. -1.
         21   -1    0    0  501  503 -0.00000000000E+00 -0.00000000000E+00 -0.30871482074E+03  0.30871482074E+03  0.00000000000E+00 0. -1.
          6    2    1    2  501    0  0.14321452249E+03 -0.33552645464E+02 -0.17595080733E+03  0.28485227987E+03  0.16895548312E+03 0.  0.
         24    2    3    3    0    0  0.16215593024E+03 -0.39023318031E+01 -0.17085056329E+03  0.24899115165E+03  0.80603379096E+02 0.  0.
         -6    2    1    2    0  502 -0.14321452249E+03  0.33552645464E+02  0.85602466009E+02  0.24222902029E+03  0.17236860681E+03 0.  0.
        -24    2    5    5    0    0 -0.13133466623E+03  0.66458545055E+02  0.10851508022E+03  0.20014568508E+03  0.81346418809E+02 0.  0.
          5    1    3    3  501    0 -0.18941407745E+02 -0.29650313661E+02 -0.51002440420E+01  0.35861128215E+02  0.47000000000E+01 0. -1.
        -13    1    4    4    0    0  0.34622276786E+01  0.16406158491E+02 -0.36149281403E+02  0.39848708924E+02  0.00000000000E+00 0.  1.
         14    1    4    4    0    0  0.15869370256E+03 -0.20308490294E+02 -0.13470128188E+03  0.20914244273E+03  0.00000000000E+00 0. -1.
         -5    1    5    5    0  502 -0.11879856258E+02 -0.32905899591E+02 -0.22912614215E+02  0.42083335214E+02  0.47000000000E+01 0.  1.
         13    1    6    6    0    0 -0.42562532778E+02  0.14606120727E+02  0.82696499667E+02  0.94146795041E+02  0.00000000000E+00 0. -1.
        -14    1    6    6    0    0 -0.88772133454E+02  0.51852424328E+02  0.25818580557E+02  0.10599889003E+03  0.00000000000E+00 0.  1.
</event>
<event>
12    1  0.8728348E-002  0.1916459E+03  0.7818608E-02  0.1157122E+00
         21   -1    0    0  503  502  0.00000000000E+00  0.00000000000E+00  0.38856430910E+03  0.38856430910E+03  0.00000000000E+00 0.  1.
         21   -1    0    0  501  503 -0.00000000000E+00 -0.00000000000E+00 -0.10984258690E+03  0.10984258690E+03  0.00000000000E+00 0.  1.
          6    2    1    2  501    0  0.28400684072E+02  0.81533882587E+02  0.45186189946E+02  0.19630263382E+03  0.17040704040E+03 0.  0.
         24    2    3    3    0    0  0.92273338017E+01  0.49228100217E+02 -0.39581302816E+02  0.10346460948E+03  0.81422947266E+02 0.  0.
         -6    2    1    2    0  502 -0.28400684072E+02 -0.81533882587E+02  0.23353553225E+03  0.30210426217E+03  0.17109578467E+03 0.  0.
        -24    2    5    5    0    0 -0.74242416214E+02 -0.14434668460E+02  0.12599306059E+03  0.16722934919E+03  0.79819220071E+02 0.  0.
          5    1    3    3  501    0  0.19173350271E+02  0.32305782369E+02  0.84767492762E+02  0.92838024345E+02  0.47000000000E+01 0. -1.
        -11    1    4    4    0    0  0.17809052513E+01 -0.25755504923E+01 -0.50003007537E+02  0.50100956544E+02  0.00000000000E+00 0.  1.
         12    1    4    4    0    0  0.74464285503E+01  0.51803650709E+02  0.10421704722E+02  0.53363652932E+02  0.00000000000E+00 0. -1.
         -5    1    5    5    0  502  0.45841732142E+02 -0.67099214127E+02  0.10754247166E+03  0.13487491299E+03  0.47000000000E+01 0.  1.
         13    1    6    6    0    0 -0.40613517091E+02 -0.62762079009E+01  0.50161691270E+01  0.41400610005E+02  0.00000000000E+00 0. -1.
        -14    1    6    6    0    0 -0.33628899123E+02 -0.81584605586E+01  0.12097689147E+03  0.12582873918E+03  0.00000000000E+00 0.  1.
</event>
<event>
12    1  0.8728348E-002  0.2680280E+03  0.7818608E-02  0.1102419E+00
         21   -1    0    0  501  502  0.00000000000E+00  0.00000000000E+00  0.42090210438E+03  0.42090210438E+03  0.00000000000E+00 0.  1.
         21   -1    0    0  502  503 -0.00000000000E+00 -0.00000000000E+00 -0.17065422537E+03  0.17065422537E+03  0.00000000000E+00 0. -1.
         -6    2    1    2    0  503  0.20243010348E+02 -0.20439207659E+03  0.12545256858E+03  0.29593467995E+03  0.17220071834E+03 0.  0.
        -24    2    3    3    0    0  0.38404138310E+02 -0.50708653148E+02  0.90010968006E+02  0.13710578378E+03  0.81546160186E+02 0.  0.
          6    2    1    2  501    0 -0.20243010348E+02  0.20439207659E+03  0.12479531043E+03  0.29562164980E+03  0.17214061079E+03 0.  0.
         24    2    5    5    0    0  0.51298012312E+02  0.95708728729E+02  0.64096832518E+02  0.15196726161E+03  0.84817438304E+02 0.  0.
          5    1    5    5  501    0 -0.71541022660E+02  0.10868334786E+03  0.60698477915E+02  0.14365438819E+03  0.47000000000E+01 0. -1.
        -13    1    6    6    0    0  0.50445200635E+02  0.11128601591E+03  0.56560846282E+02  0.13464183947E+03  0.00000000000E+00 0.  1.
         14    1    6    6    0    0  0.85281167631E+00 -0.15577287182E+02  0.75359862361E+01  0.17325422138E+02  0.00000000000E+00 0. -1.
         -5    1    3    3    0  503 -0.18161127961E+02 -0.15368342344E+03  0.35441600575E+02  0.15882889617E+03  0.47000000000E+01 0.  1.
         13    1    4    4    0    0  0.25850107433E+02 -0.21174231356E+02 -0.76734171807E+01  0.34284945079E+02  0.00000000000E+00 0. -1.
        -14    1    4    4    0    0  0.12554030877E+02 -0.29534421791E+02  0.97684385187E+02  0.10282083870E+03  0.00000000000E+00 0.  1.
</event>
<event>
12    1  0.8728348E-002  0.2731795E+03  0.7818608E-02  0.1099485E+00
         21   -1    0    0  503  502  0.00000000000E+00  0.00000000000E+00  0.32364406459E+03  0.32364406459E+03  0.00000000000E+00 0.  1.
         21   -1    0    0  501  503 -0.00000000000E+00 -0.00000000000E+00 -0.25705706143E+03  0.25705706143E+03  0.00000000000E+00 0.  1.
          6    2    1    2  501    0  0.19278795995E+03 -0.89254024706E+02  0.12658737226E+03  0.30101004995E+03  0.17160771814E+03 0.  0.
         24    2    3    3    0    0  0.76995664458E+02 -0.43755534449E+02  0.13079561637E+03  0.17643971789E+03  0.78616802565E+02 0.  0.
         -6    2    1    2    0  502 -0.19278795995E+03  0.89254024706E+02 -0.60000369096E+02  0.27969107607E+03  0.17173693637E+03 0.  0.
        -24    2    5    5    0    0 -0.95007135095E+02  0.10281298057E+03 -0.94770234802E+01  0.16869723189E+03  0.93659368890E+02 0.  0.
          5    1    3    3  501    0  0.11579229549E+03 -0.45498490257E+02 -0.42082441131E+01  0.12457033206E+03  0.47000000000E+01 0. -1.
        -13    1    4    4    0    0  0.56369400763E+02 -0.38819259569E+02  0.32291326385E+02  0.75678094687E+02  0.00000000000E+00 0.  1.
         14    1    4    4    0    0  0.20626263695E+02 -0.49362748802E+01  0.98504289990E+02  0.10076162320E+03  0.00000000000E+00 0. -1.
         -5    1    5    5    0  502 -0.97780824853E+02 -0.13558955867E+02 -0.50523345615E+02  0.11099384418E+03  0.47000000000E+01 0.  1.
         13    1    6    6    0    0 -0.34267201669E+02  0.28016256082E+02 -0.47670136898E+02  0.65050700741E+02  0.00000000000E+00 0. -1.
        -14    1    6    6    0    0 -0.60739933426E+02  0.74796724491E+02  0.38193113418E+02  0.10364653115E+03  0.00000000000E+00 0.  1.
</event>
<event>
12    1  0.8728348E-002  0.1940451E+03  0.7818608E-02  0.1155210E+00
         21   -1    0    0  501  502  0.00000000000E+00  0.00000000000E+00  0.37393678339E+03  0.37393678339E+03  0.00000000000E+00 0. -1.
         21   -1    0    0  502  503 -0.00000000000E+00 -0.00000000000E+00 -0.15231850205E+03  0.15231850205E+03  0.00000000000E+00 0.  1.
         -6    2    1    2    0  503 -0.16717142729E+02 -0.86819821202E+02  0.26549654932E+03  0.32884938464E+03  0.17273203484E+03 0.  0.
        -24    2    3    3    0    0  0.40604772218E+02 -0.90954734945E+02  0.22651136633E+03  0.25924454330E+03  0.77322847967E+02 0.  0.
          6    2    1    2  501    0  0.16717142729E+02  0.86819821202E+02 -0.43878267982E+02  0.19740590080E+03  0.17095801548E+03 0.  0.
         24    2    5    5    0    0  0.41367193162E+02 -0.89348665404E+01 -0.34902233326E+01  0.90495333685E+02  0.79913373410E+02 0.  0.
          5    1    5    5  501    0 -0.24650050433E+02  0.95754687742E+02 -0.40388044650E+02  0.10691056712E+03  0.47000000000E+01 0. -1.
        -13    1    6    6    0    0 -0.30203236556E+01 -0.31602436194E+02 -0.20548707598E+02  0.37816474086E+02  0.00000000000E+00 0.  1.
         14    1    6    6    0    0  0.44387516817E+02  0.22667569654E+02  0.17058484265E+02  0.52678859599E+02  0.00000000000E+00 0. -1.
         -5    1    3    3    0  503 -0.57321914947E+02  0.41349137437E+01  0.38985182985E+02  0.69604841334E+02  0.47000000000E+01 0.  1.
         11    1    4    4    0    0  0.32298989967E+02 -0.41359815660E+01  0.10314277392E+03  0.10816081965E+03  0.00000000000E+00 0. -1.
        -12    1    4    4    0    0  0.83057822511E+01 -0.86818753379E+02  0.12336859241E+03  0.15108372365E+03  0.00000000000E+00 0.  1.
</event>
<event>
12    1  0.8728348E-002  0.3159774E+03  0.7818608E-02  0.1078228E+00
         21   -1    0    0  503  502  0.00000000000E+00  0.00000000000E+00  0.35904804992E+03  0.35904804992E+03  0.00000000000E+00 0. -1.
         21   -1    0    0  501  503 -0.00000000000E+00 -0.00000000000E+00 -0.37396954379E+03  0.37396954379E+03  0.00000000000E+00 0.  1.
          6    2    1    2  501    0 -0.70732444340E+02  0.25145638110E+03 -0.19803867258E+03  0.36781405974E+03  0.16683667588E+03 0.  0.
         24    2    3    3    0    0  0.79400569461E+01  0.69978238974E+02 -0.36616215159E+02  0.11246532116E+03  0.79672472143E+02 0.  0.
         -6    2    1    2    0  502  0.70732444340E+02 -0.25145638110E+03  0.18311717871E+03  0.36520353397E+03  0.17778731621E+03 0.  0.
        -24    2    5    5    0    0  0.73363186212E+02 -0.26640264891E+03  0.14085517738E+03  0.32005402146E+03  0.79005488543E+02 0.  0.
          5    1    3    3  501    0 -0.78672501286E+02  0.18147814213E+03 -0.16142245742E+03  0.25534873857E+03  0.47000000000E+01 0. -1.
        -11    1    4    4    0    0  0.36043743912E+02  0.67819273282E+02 -0.34512407121E+02  0.84200424874E+02  0.00000000000E+00 0.  1.
         12    1    4    4    0    0 -0.28103686966E+02  0.21589656920E+01 -0.21038080375E+01  0.28264896288E+02  0.00000000000E+00 0. -1.
         -5    1    5    5    0  502 -0.26307418717E+01  0.14946267801E+02  0.42262001330E+02  0.45149512516E+02  0.47000000000E+01 0.  1.
         13    1    6    6    0    0  0.31858698292E+02 -0.89343473141E+02  0.87070224057E+01  0.95252533242E+02  0.00000000000E+00 0. -1.
        -14    1    6    6    0    0  0.41504487920E+02 -0.17705917576E+03  0.13214815497E+03  0.22480148821E+03  0.00000000000E+00 0.  1.
</event>
<event>
12    1  0.8728348E-002  0.1903675E+03  0.7818608E-02  0.1159089E+00
         21   -1    0    0  503  502  0.00000000000E+00  0.00000000000E+00  0.33196656236E+02  0.33196656236E+02  0.00000000000E+00 0. -1.
         21   -1    0    0  501  503 -0.00000000000E+00 -0.00000000000E+00 -0.11234077505E+04  0.11234077505E+04  0.00000000000E+00 0. -1.
          6    2    1    2  501    0  0.77545737671E+02 -0.20883232846E+02 -0.66813951679E+03  0.69358798907E+03  0.16794175728E+03 0.  0.
         24    2    3    3    0    0 -0.55956044522E+01  0.32519745561E+02 -0.34291203192E+03  0.35364774757E+03  0.79932615924E+02 0.  0.
         -6    2    1    2    0  502 -0.77545737671E+02  0.20883232846E+02 -0.42207157749E+03  0.46301641768E+03  0.17259877078E+03 0.  0.
        -24    2    5    5    0    0 -0.79777987523E+02  0.64522592283E+02 -0.21003571859E+03  0.24647387662E+03  0.78145227385E+02 0.  0.
          5    1    3    3  501    0  0.83141342124E+02 -0.53402978406E+02 -0.32522748487E+03  0.33994024150E+03  0.47000000000E+01 0. -1.
        -13    1    4    4    0    0 -0.13675458969E+02 -0.60494434909E+01 -0.90729120493E+01  0.17490902710E+02  0.00000000000E+00 0.  1.
         14    1    4    4    0    0  0.80798545167E+01  0.38569189052E+02 -0.33383911987E+03  0.33615684486E+03  0.00000000000E+00 0. -1.
         -5    1    5    5    0  502  0.22322498510E+01 -0.43639359437E+02 -0.21203585890E+03  0.21654254106E+03  0.47000000000E+01 0.  1.
         13    1    6    6    0    0 -0.57402724434E+02 -0.29810555712E+01 -0.10333386965E+03  0.11824486493E+03  0.00000000000E+00 0. -1.
        -14    1    6    6    0    0 -0.22375263089E+02  0.67503647854E+02 -0.10670184894E+03  0.12822901169E+03  0.00000000000E+00 0.  1.
</event>
<event>
12    1  0.8728348E-002  0.2260635E+03  0.7818608E-02  0.1129472E+00
         21   -1    0    0  501  502  0.00000000000E+00  0.00000000000E+00  0.10816419032E+03  0.10816419032E+03  0.00000000000E+00 0.  1.
         21   -1    0    0  502  503 -0.00000000000E+00 -0.00000000000E+00 -0.81457953786E+03  0.81457953786E+03  0.00000000000E+00 0. -1.
         -6    2    1    2    0  503  0.12924924154E+03 -0.68997850308E+02 -0.65228133547E+03  0.69028905299E+03  0.17193593661E+03 0.  0.
        -24    2    3    3    0    0  0.31279563357E+01 -0.38183619528E+02 -0.19123005090E+03  0.21128334071E+03  0.81264658878E+02 0.  0.
          6    2    1    2  501    0 -0.12924924154E+03  0.68997850308E+02 -0.54134012074E+02  0.23245467520E+03  0.17215869125E+03 0.  0.
         24    2    5    5    0    0 -0.92404312516E+02  0.64990302652E+01  0.24953641760E+02  0.12502749851E+03  0.80177283447E+02 0.  0.
          5    1    5    5  501    0 -0.36844929025E+02  0.62498820042E+02 -0.79087653833E+02  0.10742717668E+03  0.47000000000E+01 0. -1.
        -13    1    6    6    0    0 -0.86656594476E+02  0.33960153845E+02  0.11086447003E+02  0.93731353999E+02  0.00000000000E+00 0.  1.
         14    1    6    6    0    0 -0.57477180400E+01 -0.27461123579E+02  0.13867194757E+02  0.31296144512E+02  0.00000000000E+00 0. -1.
         -5    1    3    3    0  503  0.12612128520E+03 -0.30814230780E+02 -0.46105128456E+03  0.47900571228E+03  0.47000000000E+01 0.  1.
         11    1    4    4    0    0  0.34938092263E+02 -0.13414226562E+02 -0.14587773178E+03  0.15060187381E+03  0.00000000000E+00 0. -1.
        -12    1    4    4    0    0 -0.31810135927E+02 -0.24769392966E+02 -0.45352319121E+02  0.60681466901E+02  0.00000000000E+00 0.  1.
</event>
<event>
12    1  0.8728348E-002  0.1779457E+03  0.7818608E-02  0.1170248E+00
         21   -1    0    0  503  502  0.00000000000E+00  0.00000000000E+00  0.12199861171E+04  0.12199861171E+04  0.00000000000E+00 0.  1.
         21   -1    0    0  501  503 -0.00000000000E+00 -0.00000000000E+00 -0.93293637153E+02  0.93293637153E+02  0.00000000000E+00 0.  1.
          6    2    1    2  501    0  0.34670751036E+02  0.22209268180E+02  0.51839706522E+01  0.17802122720E+03  0.17311664048E+03 0.  0.
         24    2    3    3    0    0  0.40550127261E+01  0.64769782314E+02 -0.40403986191E+02  0.10838594444E+03  0.76833996529E+02 0.  0.
         -6    2    1    2    0  502 -0.34670751036E+02 -0.22209268180E+02  0.11215085093E+04  0.11352585271E+04  0.17127543391E+03 0.  0.
        -24    2    5    5    0    0 -0.62980922085E+02  0.27590308277E+02  0.49541415654E+03  0.50653148600E+03  0.80069583197E+02 0.  0.
          5    1    3    3  501    0  0.30615738310E+02 -0.42560514134E+02  0.45587956843E+02  0.69635282758E+02  0.47000000000E+01 0. -1.
        -11    1    4    4    0    0 -0.18748993185E+02  0.60166843101E+02 -0.14777837233E+01  0.63037747413E+02  0.00000000000E+00 0.  1.
         12    1    4    4    0    0  0.22804005912E+02  0.46029392138E+01 -0.38926202468E+02  0.45348197027E+02  0.00000000000E+00 0. -1.
         -5    1    5    5    0  502  0.28310171049E+02 -0.49799576457E+02  0.62609435277E+03  0.62872704106E+03  0.47000000000E+01 0.  1.
         13    1    6    6    0    0 -0.41215540506E+02 -0.25171171577E+02  0.21269903328E+03  0.21811278600E+03  0.00000000000E+00 0. -1.
        -14    1    6    6    0    0 -0.21765381579E+02  0.52761479854E+02  0.28271512326E+03  0.28841870000E+03  0.00000000000E+00 0.  1.
</event>
<event>
12    1  0.8728348E-002  0.2641443E+03  0.7818608E-02  0.1104697E+00
         21   -1    0    0  501  502  0.00000000000E+00  0.00000000000E+00  0.10308977219E+03  0.10308977219E+03  0.00000000000E+00 0.  1.
         21   -1    0    0  502  503 -0.00000000000E+00 -0.00000000000E+00 -0.15581177233E+04  0.15581177233E+04  0.00000000000E+00 0.  1.
         -6    2    1    2    0  503 -0.37450908657E+02  0.19664399526E+03 -0.13522324908E+04  0.13777659510E+04  0.17214782949E+03 0.  0.
        -24    2    3    3    0    0  0.26970391455E+02  0.38874493436E+02 -0.54954164200E+03  0.55717103978E+03  0.78771333760E+02 0.  0.
          6    2    1    2  501    0  0.37450908657E+02 -0.19664399526E+03 -0.10279546037E+03  0.28344154451E+03  0.17233911643E+03 0.  0.
         24    2    5    5    0    0  0.48279293681E+01 -0.20960274227E+02 -0.15902314065E+02  0.84691607436E+02  0.80356348721E+02 0.  0.
          5    1    5    5  501    0  0.32622979289E+02 -0.17568372103E+03 -0.86893146304E+02  0.19874993708E+03  0.47000000000E+01 0. -1.
        -13    1    6    6    0    0 -0.19167733216E+02 -0.44089719079E+02 -0.17908391564E+02  0.51303175473E+02  0.00000000000E+00 0.  1.
         14    1    6    6    0    0  0.23995662584E+02  0.23129444853E+02  0.20060774991E+01  0.33388431963E+02  0.00000000000E+00 0. -1.
         -5    1    3    3    0  503 -0.64421300113E+02  0.15776950182E+03 -0.80269084878E+03  0.82059491123E+03  0.47000000000E+01 0.  1.
         11    1    4    4    0    0 -0.24312125685E+02  0.27650818347E+02 -0.16469679374E+03  0.16876220276E+03  0.00000000000E+00 0. -1.
        -12    1    4    4    0    0  0.51282517140E+02  0.11223675089E+02 -0.38484484825E+03  0.38840883702E+03  0.00000000000E+00 0.  1.
</event>
<event>
12    1  0.8728348E-002  0.2776998E+03  0.7818608E-02  0.1097252E+00
         21   -1    0    0  503  502  0.00000000000E+00  0.00000000000E+00  0.11682658255E+04  0.11682658255E+04  0.00000000000E+00 0.  1.
         21   -1    0    0  501  503 -0.00000000000E+00 -0.00000000000E+00 -0.75665153508E+02  0.75665153508E+02  0.00000000000E+00 0. -1.
          6    2    1    2  501    0 -0.12697308944E+03 -0.17413510343E+03  0.31642850609E+03  0.41957644973E+03  0.17167468656E+03 0.  0.
         24    2    3    3    0    0 -0.12589547706E+03 -0.14109756829E+03  0.16050150502E+03  0.26011498215E+03  0.78363741017E+02 0.  0.
         -6    2    1    2    0  502  0.12697308944E+03  0.17413510343E+03  0.77617216586E+03  0.82435452924E+03  0.17513411757E+03 0.  0.
        -24    2    5    5    0    0  0.51985567009E+02  0.13156750603E+03  0.65829045249E+03  0.67822678644E+03  0.81441673521E+02 0.  0.
          5    1    3    3  501    0 -0.10776123868E+01 -0.33037535146E+02  0.15592700107E+03  0.15946146757E+03  0.47000000000E+01 0. -1.
        -11    1    4    4    0    0 -0.24213703015E+02 -0.43748167514E+02  0.48300475141E+01  0.50234798034E+02  0.00000000000E+00 0.  1.
         12    1    4    4    0    0 -0.10168177404E+03 -0.97349400774E+02  0.15567145751E+03  0.20988018412E+03  0.00000000000E+00 0. -1.
         -5    1    5    5    0  502  0.74987522434E+02  0.42567597409E+02  0.11788171337E+03  0.14612774280E+03  0.47000000000E+01 0.  1.
         13    1    6    6    0    0  0.18480073440E+02  0.65125644618E+02  0.15064834116E+03  0.16515987828E+03  0.00000000000E+00 0. -1.
        -14    1    6    6    0    0  0.33505493569E+02  0.66441861408E+02  0.50764211133E+03  0.51306690815E+03  0.00000000000E+00 0.  1.
</event>
<event>
12    1  0.8728348E-002  0.2010168E+03  0.7818608E-02  0.1149128E+00
         21   -1    0    0  503  502  0.00000000000E+00  0.00000000000E+00  0.67237199015E+02  0.67237199015E+02  0.00000000000E+00 0. -1.
         21   -1    0    0  501  503 -0.00000000000E+00 -0.00000000000E+00 -0.68827763126E+03  0.68827763126E+03  0.00000000000E+00 0.  1.
          6    2    1    2  501    0 -0.57452742675E+02  0.86991777229E+02 -0.44692003997E+03  0.48957182378E+03  0.17051293665E+03 0.  0.
         24    2    3    3    0    0  0.23555291439E+02  0.30930690034E+02 -0.15644647724E+03  0.18281112269E+03  0.86213960570E+02 0.  0.
         -6    2    1    2    0  502  0.57452742675E+02 -0.86991777229E+02 -0.17412039227E+03  0.26594300649E+03  0.17187025557E+03 0.  0.
        -24    2    5    5    0    0  0.45369822309E+02 -0.16963629372E+02 -0.17045955312E+03  0.19463080417E+03  0.80489161912E+02 0.  0.
          5    1    3    3  501    0 -0.81008034115E+02  0.56061087195E+02 -0.29047356272E+03  0.30676070109E+03  0.47000000000E+01 0. -1.
        -11    1    4    4    0    0 -0.30829832432E+02  0.21419194660E+02 -0.46338478375E+02  0.59636524427E+02  0.00000000000E+00 0.  1.
         12    1    4    4    0    0  0.54385123872E+02  0.95114953734E+01 -0.11010799887E+03  0.12317459826E+03  0.00000000000E+00 0. -1.
         -5    1    5    5    0  502  0.12082920366E+02 -0.70028147856E+02 -0.36608391550E+01  0.71312202322E+02  0.47000000000E+01 0.  1.
         13    1    6    6    0    0  0.18265908811E+02  0.26801787356E+02 -0.26956845015E+02  0.42174052726E+02  0.00000000000E+00 0. -1.
        -14    1    6    6    0    0  0.27103913498E+02 -0.43765416728E+02 -0.14350270810E+03  0.15245675145E+03  0.00000000000E+00 0.  1.
</event>
<event>
12    1  0.8728348E-002  0.2085710E+03  0.7818608E-02  0.1142952E+00
         21   -1    0    0  503  502  0.00000000000E+00  0.00000000000E+00  0.36903858134E+03  0.36903858134E+03  0.00000000000E+00 0.  1.
         21   -1    0    0  501  503 -0.00000000000E+00 -0.00000000000E+00 -0.11954791788E+03  0.11954791788E+03  0.00000000000E+00 0.  1.
          6    2    1    2  501    0  0.11011229326E+03  0.38120509154E+02  0.90704727181E+02  0.22744059737E+03  0.17298551226E+03 0.  0.
         24    2    3    3    0    0  0.12362869085E+03  0.47555843186E+02  0.17846156365E+02  0.15259288616E+03  0.73623991914E+02 0.  0.
         -6    2    1    2    0  502 -0.11011229326E+03 -0.38120509154E+02  0.15878593629E+03  0.26114590186E+03  0.17148270510E+03 0.  0.
        -24    2    5    5    0    0 -0.16919013352E+02 -0.34789082680E+02  0.13947878274E+03  0.16579947035E+03  0.80861611695E+02 0.  0.
          5    1    3    3  501    0 -0.13516397589E+02 -0.94353340322E+01  0.72858570816E+02  0.74847711210E+02  0.47000000000E+01 0. -1.
        -11    1    4    4    0    0  0.23929658559E+02  0.94967353287E+01  0.36086435367E+02  0.44328854690E+02  0.00000000000E+00 0.  1.
         12    1    4    4    0    0  0.99699032294E+02  0.38059107858E+02 -0.18240279002E+02  0.10826403147E+03  0.00000000000E+00 0. -1.
         -5    1    5    5    0  502 -0.93193279912E+02 -0.33314264744E+01  0.19307153542E+02  0.95346431507E+02  0.47000000000E+01 0.  1.
         13    1    6    6    0    0  0.84147101407E+01 -0.55296688195E+02  0.10023939997E+03  0.11478879901E+03  0.00000000000E+00 0. -1.
        -14    1    6    6    0    0 -0.25333723492E+02  0.20507605515E+02  0.39239382777E+02  0.51010671341E+02  0.00000000000E+00 0.  1.
</event>
<event>
12    1  0.8728348E-002  0.2295989E+03  0.7818608E-02  0.1127246E+00
         21   -1    0    0  503  502  0.00000000000E+00  0.00000000000E+00  0.64441200483E+03  0.64441200483E+03  0.00000000000E+00 0.  1.
         21   -1    0    0  501  503 -0.00000000000E+00 -0.00000000000E+00 -0.87077863702E+02  0.87077863702E+02  0.00000000000E+00 0.  1.
          6    2    1    2  501    0 -0.95361249724E+02  0.11885871846E+03  0.18223685071E+03  0.29170170106E+03  0.16928806733E+03 0.  0.
         24    2    3    3    0    0  0.11689728394E+02  0.48141440539E+02  0.46788599970E+02  0.10507596880E+03  0.79984611546E+02 0.  0.
         -6    2    1    2    0  502  0.95361249724E+02 -0.11885871846E+03  0.37509729041E+03  0.43978816747E+03  0.17173960542E+03 0.  0.
        -24    2    5    5    0    0 -0.27183542735E+01 -0.86793092186E+02  0.25860147326E+03  0.28409237908E+03  0.79330495891E+02 0.  0.
          5    1    3    3  501    0 -0.10705097812E+03  0.70717277921E+02  0.13544825074E+03  0.18662573226E+03  0.47000000000E+01 0. -1.
        -11    1    4    4    0    0 -0.93067229540E+01 -0.19752792862E+02  0.42327997712E+01  0.22241953869E+02  0.00000000000E+00 0.  1.
         12    1    4    4    0    0  0.20996451348E+02  0.67894233401E+02  0.42555800199E+02  0.82834014927E+02  0.00000000000E+00 0. -1.
         -5    1    5    5    0  502  0.98079603997E+02 -0.32065626274E+02  0.11649581714E+03  0.15569578838E+03  0.47000000000E+01 0.  1.
         13    1    6    6    0    0 -0.27274700646E+02 -0.82848822136E+01  0.31154499980E+02  0.42227377820E+02  0.00000000000E+00 0. -1.
        -14    1    6    6    0    0  0.24556346372E+02 -0.78508209972E+02  0.22744697328E+03  0.24186500126E+03  0.00000000000E+00 0.  1.
</event>
<event>
12    1  0.8728348E-002  0.2062364E+03  0.7818608E-02  0.1145594E+00
         21   -1    0    0  501  502  0.00000000000E+00  0.00000000000E+00  0.10760244025E+03  0.10760244025E+03  0.00000000000E+00 0.  1.
         21   -1    0    0  502  503 -0.00000000000E+00 -0.00000000000E+00 -0.77050523717E+03  0.77050523717E+03  0.00000000000E+00 0. -1.
         -6    2    1    2    0  503 -0.19898270203E+02  0.10181240249E+03 -0.64364816987E+03  0.67588195565E+03  0.17824630413E+03 0.  0.
        -24    2    3    3    0    0 -0.42410479586E+02  0.12481388248E+03 -0.60955036272E+03  0.62875852087E+03  0.80052975142E+02 0.  0.
          6    2    1    2  501    0  0.19898270203E+02 -0.10181240249E+03 -0.19254627041E+02  0.20222572176E+03  0.17251897120E+03 0.  0.
         24    2    5    5    0    0 -0.51975474973E+02 -0.84766339604E+02 -0.13093598342E+02  0.12795290184E+03  0.79458922987E+02 0.  0.
          5    1    5    5  501    0  0.71873745176E+02 -0.17046062882E+02 -0.61610286992E+01  0.74272819928E+02  0.47000000000E+01 0. -1.
        -13    1    6    6    0    0  0.96584822165E+00 -0.72968361411E+02 -0.54653207166E+01  0.73179125168E+02  0.00000000000E+00 0.  1.
         14    1    6    6    0    0 -0.52941323195E+02 -0.11797978193E+02 -0.76282776257E+01  0.54773776669E+02  0.00000000000E+00 0. -1.
         -5    1    3    3    0  503  0.22512209383E+02 -0.23001479994E+02 -0.34097807150E+02  0.47123434782E+02  0.47000000000E+01 0.  1.
         11    1    4    4    0    0 -0.63386493401E+02  0.71034551189E+02 -0.33875148680E+03  0.35187543935E+03  0.00000000000E+00 0. -1.
        -12    1    4    4    0    0  0.20976013814E+02  0.53779331291E+02 -0.27079887592E+03  0.27688308152E+03  0.00000000000E+00 0.  1.
</event>
<event>
12    1  0.8728348E-002  0.1824907E+03  0.7818608E-02  0.1165505E+00
         21   -1    0    0  501  502  0.00000000000E+00  0.00000000000E+00  0.38763591094E+03  0.38763591094E+03  0.00000000000E+00 0.  1.
         21   -1    0    0  502  503 -0.00000000000E+00 -0.00000000000E+00 -0.15819170214E+03  0.15819170214E+03  0.00000000000E+00 0.  1.
         -6    2    1    2    0  503  0.51152376178E+02 -0.34666679771E+02 -0.69918359441E+02  0.19542632698E+03  0.17171059378E+03 0.  0.
        -24    2    3    3    0    0 -0.75230468022E+01  0.19363111508E+02 -0.79334748088E+02  0.11497272555E+03  0.80580388721E+02 0.  0.
          6    2    1    2  501    0 -0.51152376178E+02  0.34666679771E+02  0.29936256824E+03  0.35040128610E+03  0.17130315164E+03 0.  0.
         24    2    5    5    0    0  0.10436834143E+02  0.67493187645E+02  0.21828680889E+03  0.24332103955E+03  0.83016501174E+02 0.  0.
          5    1    5    5  501    0 -0.61589210320E+02 -0.32826507874E+02  0.81075759344E+02  0.10708024655E+03  0.47000000000E+01 0. -1.
        -13    1    6    6    0    0 -0.24785844908E+02  0.53095627988E+02  0.75611455837E+02  0.95658643483E+02  0.00000000000E+00 0.  1.
         14    1    6    6    0    0  0.35222679050E+02  0.14397559657E+02  0.14267535306E+03  0.14766239607E+03  0.00000000000E+00 0. -1.
         -5    1    3    3    0  503  0.58675422980E+02 -0.54029791279E+02  0.94163886462E+01  0.80453601428E+02  0.47000000000E+01 0.  1.
         11    1    4    4    0    0 -0.10687610795E+02  0.20895970202E+02 -0.95544976509E+02  0.98385512812E+02  0.00000000000E+00 0. -1.
        -12    1    4    4    0    0  0.31645639926E+01 -0.15328586940E+01  0.16210228421E+02  0.16587212741E+02  0.00000000000E+00 0.  1.
</event>
<event>
12    1  0.8728348E-002  0.1845954E+03  0.7818608E-02  0.1163964E+00
         21   -1    0    0  503  502  0.00000000000E+00  0.00000000000E+00  0.94159785776E+02  0.94159785776E+02  0.00000000000E+00 0. -1.
         21   -1    0    0  501  503 -0.00000000000E+00 -0.00000000000E+00 -0.42571445796E+03  0.42571445796E+03  0.00000000000E+00 0. -1.
          6    2    1    2  501    0 -0.60342933095E+02  0.12305646517E+02 -0.27073319237E+03  0.32767656268E+03  0.17401945228E+03 0.  0.
         24    2    3    3    0    0 -0.51887807499E+01 -0.24157916325E+01 -0.25618359300E+03  0.26857933683E+03  0.80449160063E+02 0.  0.
         -6    2    1    2    0  502  0.60342933095E+02 -0.12305646517E+02 -0.60821479816E+02  0.19219768105E+03  0.17160418901E+03 0.  0.
        -24    2    5    5    0    0  0.10148646019E+03  0.18767456833E+02 -0.46920220308E+02  0.13859112745E+03  0.79713703304E+02 0.  0.
          5    1    3    3  501    0 -0.55154152345E+02  0.14721438149E+02 -0.14549599374E+02  0.59097225857E+02  0.47000000000E+01 0. -1.
        -11    1    4    4    0    0 -0.71848699030E+01  0.13318370026E+02 -0.36743428130E+01  0.15572479917E+02  0.00000000000E+00 0.  1.
         12    1    4    4    0    0  0.19960891530E+01 -0.15734161658E+02 -0.25250925018E+03  0.25300685691E+03  0.00000000000E+00 0. -1.
         -5    1    5    5    0  502 -0.41143527098E+02 -0.31073103349E+02 -0.13901259508E+02  0.53606553608E+02  0.47000000000E+01 0.  1.
         11    1    6    6    0    0  0.37962408028E+02 -0.25903880022E+02  0.33531313541E+01  0.46080352791E+02  0.00000000000E+00 0. -1.
        -12    1    6    6    0    0  0.63524052165E+02  0.44671336855E+02 -0.50273351662E+02  0.92510774655E+02  0.00000000000E+00 0.  1.
</event>
<event>
12    1  0.8728348E-002  0.2906753E+03  0.7818608E-02  0.1090002E+00
         21   -1    0    0  503  502  0.00000000000E+00  0.00000000000E+00  0.16963948942E+04  0.16963948942E+04  0.00000000000E+00 0. -1.
         21   -1    0    0  501  503 -0.00000000000E+00 -0.00000000000E+00 -0.57786891118E+02  0.57786891118E+02  0.00000000000E+00 0.  1.
          6    2    1    2  501    0  0.14044153727E+03 -0.18784808587E+03  0.49320333298E+03  0.57246947302E+03  0.17164218923E+03 0.  0.
         24    2    3    3    0    0  0.16690443156E+03 -0.16575576399E+03  0.38321266364E+03  0.45710746540E+03  0.82238839849E+02 0.  0.
         -6    2    1    2    0  502 -0.14044153727E+03  0.18784808587E+03  0.11454046701E+04  0.11817123123E+04  0.17170149094E+03 0.  0.
        -24    2    5    5    0    0 -0.10229047797E+03  0.15584005826E+03  0.10825156316E+04  0.11013559913E+04  0.79971628432E+02 0.  0.
          5    1    3    3  501    0 -0.26462894295E+02 -0.22092321879E+02  0.10999066934E+03  0.11536200762E+03  0.47000000000E+01 0. -1.
        -13    1    4    4    0    0  0.10813028052E+03 -0.11028638983E+03  0.17310261868E+03  0.23199086607E+03  0.00000000000E+00 0.  1.
         14    1    4    4    0    0  0.58774151045E+02 -0.55469374161E+02  0.21011004496E+03  0.22511659933E+03  0.00000000000E+00 0. -1.
         -5    1    5    5    0  502 -0.38151059293E+02  0.32008027612E+02  0.62889038570E+02  0.80356321027E+02  0.47000000000E+01 0.  1.
         11    1    6    6    0    0  0.13119751487E+02  0.25621180965E+02  0.16289198133E+03  0.16541575008E+03  0.00000000000E+00 0. -1.
        -12    1    6    6    0    0 -0.11541022946E+03  0.13021887729E+03  0.91962365025E+03  0.93594024123E+03  0.00000000000E+00 0.  1.
</event>
<event>
12    1  0.8728348E-002  0.1916884E+03  0.7818608E-02  0.1158335E+00
         21   -1    0    0  501  502  0.00000000000E+00  0.00000000000E+00  0.11675223600E+03  0.11675223600E+03  0.00000000000E+00 0.  1.
         21   -1    0    0  502  503 -0.00000000000E+00 -0.00000000000E+00 -0.37244252560E+03  0.37244252560E+03  0.00000000000E+00 0.  1.
         -6    2    1    2    0  503  0.76308050400E+02  0.26527219276E+02 -0.23041110878E+03  0.29584666866E+03  0.16706094813E+03 0.  0.
        -24    2    3    3    0    0  0.10117434083E+03  0.17410135995E+02 -0.23500651023E+03  0.26855818535E+03  0.79725021103E+02 0.  0.
          6    2    1    2  501    0 -0.76308050400E+02 -0.26527219276E+02 -0.25279180822E+02  0.19334809293E+03  0.17383278212E+03 0.  0.
         24    2    5    5    0    0 -0.46160704482E+02 -0.66560789645E+02  0.30590840968E+02  0.11814770359E+03  0.80386136593E+02 0.  0.
          5    1    5    5  501    0 -0.30147345919E+02  0.40033570369E+02 -0.55870021791E+02  0.75200389343E+02  0.47000000000E+01 0. -1.
        -13    1    6    6    0    0  0.83886234910E+01 -0.62650367127E+01  0.35183977888E+02  0.36708745404E+02  0.00000000000E+00 0.  1.
         14    1    6    6    0    0 -0.54549327973E+02 -0.60295752932E+02 -0.45931369200E+01  0.81438958188E+02  0.00000000000E+00 0. -1.
         -5    1    3    3    0  503 -0.24866290428E+02  0.91170832817E+01  0.45954014471E+01  0.27288483316E+02  0.47000000000E+01 0.  1.
         11    1    4    4    0    0  0.55226254145E+02  0.31809185797E+02 -0.61769490564E+02  0.88753779709E+02  0.00000000000E+00 0. -1.
        -12    1    4    4    0    0  0.45948086684E+02 -0.14399049802E+02 -0.17323701966E+03  0.17980440564E+03  0.00000000000E+00 0.  1.
</event>
<event>
12    1  0.8728348E-002  0.1836536E+03  0.7818608E-02  0.1164522E+00
         21   -1    0    0  501  502  0.00000000000E+00  0.00000000000E+00  0.10360267101E+04  0.10360267101E+04  0.00000000000E+00 0.  1.
         21   -1    0    0  502  503 -0.00000000000E+00 -0.00000000000E+00 -0.12367431485E+03  0.12367431485E+03  0.00000000000E+00 0. -1.
         -6    2    1    2    0  503  0.62113680515E+02  0.57927717638E+01 -0.42252310978E+02  0.18759054312E+03  0.17179432055E+03 0.  0.
        -24    2    3    3    0    0  0.10717180291E+03  0.12492554343E+01 -0.46915139417E+02  0.14182254225E+03  0.80157639717E+02 0.  0.
          6    2    1    2  501    0 -0.62113680515E+02 -0.57927717638E+01  0.95460470619E+03  0.97211048178E+03  0.17273383628E+03 0.  0.
         24    2    5    5    0    0 -0.11108251467E+02  0.57803492143E+02  0.45094585380E+03  0.46187488113E+03  0.80694521560E+02 0.  0.
          5    1    5    5  501    0 -0.51005429048E+02 -0.63596263907E+02  0.50365885240E+03  0.51023560065E+03  0.47000000000E+01 0. -1.
        -11    1    6    6    0    0  0.17315790181E+02  0.26482347155E+02  0.36204915743E+03  0.36342914536E+03  0.00000000000E+00 0.  1.
         12    1    6    6    0    0 -0.28424041648E+02  0.31321144988E+02  0.88896696364E+02  0.98445735770E+02  0.00000000000E+00 0. -1.
         -5    1    3    3    0  503 -0.45058122399E+02  0.45435163296E+01  0.46628284399E+01  0.45768000872E+02  0.47000000000E+01 0.  1.
         13    1    4    4    0    0  0.61803557757E+02 -0.37306560199E+02 -0.38123132767E+02  0.81638425005E+02  0.00000000000E+00 0. -1.
        -14    1    4    4    0    0  0.45368245157E+02  0.38555815633E+02 -0.87920066501E+01  0.60184117246E+02  0.00000000000E+00 0.  1.
</event>
<event>
12    1  0.8728348E-002  0.2130699E+03  0.7818608E-02  0.1139262E+00
         21   -1    0    0  503  502  0.00000000000E+00  0.00000000000E+00  0.29273761365E+02  0.29273761365E+02  0.00000000000E+00 0.  1.
         21   -1    0    0  501  503 -0.00000000000E+00 -0.00000000000E+00 -0.17620618614E+04  0.17620618614E+04  0.00000000000E+00 0. -1.
          6    2    1    2  501    0  0.38167993187E+02 -0.11937446655E+03 -0.11802990587E+04  0.11993767684E+04  0.17231281326E+03 0.  0.
         24    2    3    3    0    0  0.80120025521E+02 -0.77582831458E+02 -0.57933115146E+03  0.59548022980E+03  0.80831966506E+02 0.  0.
         -6    2    1    2    0  502 -0.38167993187E+02  0.11937446655E+03 -0.55248904130E+03  0.59195885434E+03  0.17165105740E+03 0.  0.
        -24    2    5    5    0    0 -0.57279807232E+01  0.55493071824E+02 -0.48016692319E+03  0.49004827703E+03  0.80465824453E+02 0.  0.
          5    1    3    3  501    0 -0.41952032333E+02 -0.41791635095E+02 -0.60096790728E+03  0.60389653862E+03  0.47000000000E+01 0. -1.
        -13    1    4    4    0    0 -0.87226578752E+01 -0.16740987456E+02 -0.28243102708E+02  0.33970844440E+02  0.00000000000E+00 0.  1.
         14    1    4    4    0    0  0.88842683396E+02 -0.60841844002E+02 -0.55108804875E+03  0.56150938536E+03  0.00000000000E+00 0. -1.
         -5    1    5    5    0  502 -0.32440012464E+02  0.63881394729E+02 -0.72322118109E+02  0.10191057732E+03  0.47000000000E+01 0.  1.
         11    1    6    6    0    0 -0.17851630952E+02  0.73568959987E+02 -0.39120300720E+03  0.39846061969E+03  0.00000000000E+00 0. -1.
        -12    1    6    6    0    0  0.12123650228E+02 -0.18075888163E+02 -0.88963915996E+02  0.91587657340E+02  0.00000000000E+00 0.  1.
</event>
<event>
12    1  0.8728348E-002  0.2806996E+03  0.7818608E-02  0.1095621E+00
         21   -1    0    0  501  502  0.00000000000E+00  0.00000000000E+00  0.83272031705E+03  0.83272031705E+03  0.00000000000E+00 0.  1.
         21   -1    0    0  502  503 -0.00000000000E+00 -0.00000000000E+00 -0.10367263764E+03  0.10367263764E+03  0.00000000000E+00 0.  1.
         -6    2    1    2    0  503 -0.77284334550E+02  0.20531681874E+03  0.22174955381E+03  0.35772215146E+03  0.17511255983E+03 0.  0.
        -24    2    3    3    0    0 -0.21995131004E+02  0.18486394595E+02  0.79013317623E+02  0.11614767737E+03  0.80135173444E+02 0.  0.
          6    2    1    2  501    0  0.77284334550E+02 -0.20531681874E+03  0.50729812560E+03  0.57867080323E+03  0.17140783487E+03 0.  0.
         24    2    5    5    0    0  0.10321058138E+03 -0.21251313647E+03  0.47932791408E+03  0.53957630239E+03  0.74653061604E+02 0.  0.
          5    1    5    5  501    0 -0.25926246829E+02  0.71963177323E+01  0.27970211521E+02  0.39094500842E+02  0.47000000000E+01 0. -1.
        -13    1    6    6    0    0  0.17530910642E+02 -0.70288881966E+02  0.22026086306E+03  0.23186786658E+03  0.00000000000E+00 0.  1.
         14    1    6    6    0    0  0.85679670737E+02 -0.14222425450E+03  0.25906705102E+03  0.30770843581E+03  0.00000000000E+00 0. -1.
         -5    1    3    3    0  503 -0.55289203546E+02  0.18683042414E+03  0.14273623618E+03  0.24157447410E+03  0.47000000000E+01 0.  1.
         13    1    4    4    0    0  0.54083217339E+01  0.28685991021E+02  0.81725166430E+02  0.86782134410E+02  0.00000000000E+00 0. -1.
        -14    1    4    4    0    0 -0.27403452738E+02 -0.10199596426E+02 -0.27118488066E+01  0.29365542957E+02  0.00000000000E+00 0.  1.
</event>
<event>
12    1  0.8728348E-002  0.2143674E+03  0.7818608E-02  0.1138277E+00
         21   -1    0    0  503  502  0.00000000000E+00  0.00000000000E+00  0.44143342660E+03  0.44143342660E+03  0.00000000000E+00 0.  1.
         21   -1    0    0  501  503 -0.00000000000E+00 -0.00000000000E+00 -0.10400976713E+03  0.10400976713E+03  0.00000000000E+00 0.  1.
          6    2    1    2  501    0  0.86904042083E+02 -0.92999348302E+02  0.18103011562E+03  0.28009002138E+03  0.17168962112E+03 0.  0.
         24    2    3    3    0    0  0.32123773150E+02 -0.12509151436E+03  0.14201899390E+03  0.20542582243E+03  0.73147454705E+02 0.  0.
         -6    2    1    2    0  502 -0.86904042083E+02  0.92999348302E+02  0.15639354385E+03  0.26535317235E+03  0.17248818569E+03 0.  0.
        -24    2    5    5    0    0  0.14243327969E+02 -0.34462660153E+01  0.52954747390E+02  0.91415765209E+02  0.73060849410E+02 0.  0.
          5    1    3    3  501    0  0.54780268934E+02  0.32092166055E+02  0.39011121721E+02  0.74664198947E+02  0.47000000000E+01 0. -1.
        -11    1    4    4    0    0  0.26960324178E+02 -0.68107147649E+02  0.29062233385E+02  0.78803908850E+02  0.00000000000E+00 0.  1.
         12    1    4    4    0    0  0.51634489719E+01 -0.56984366708E+02  0.11295676051E+03  0.12662191358E+03  0.00000000000E+00 0. -1.
         -5    1    5    5    0  502 -0.10114737005E+03  0.96445614318E+02  0.10343879646E+03  0.17393740714E+03  0.47000000000E+01 0.  1.
         11    1    6    6    0    0  0.30508835437E+02  0.26350482445E+02  0.32501916198E+02  0.51783313156E+02  0.00000000000E+00 0. -1.
        -12    1    6    6    0    0 -0.16265507467E+02 -0.29796748461E+02  0.20452831192E+02  0.39632452053E+02  0.00000000000E+00 0.  1.
</event>
<event>
12    1  0.8728348E-002  0.1731785E+03  0.7818608E-02  0.1174871E+00
         21   -1    0    0  501  502  0.00000000000E+00  0.00000000000E+00  0.37098056278E+03  0.37098056278E+03  0.00000000000E+00 0. -1.
         21   -1    0    0  502  503 -0.00000000000E+00 -0.00000000000E+00 -0.89996977652E+02  0.89996977652E+02  0.00000000000E+00 0. -1.
         -6    2    1    2    0  503  0.45513851002E+01 -0.86695007597E+01  0.21657571818E+03  0.27730099184E+03  0.17290148357E+03 0.  0.
        -24    2    3    3    0    0  0.30314152976E+01  0.61918513266E+02  0.11114048621E+03  0.15032203227E+03  0.80008836685E+02 0.  0.
          6    2    1    2  501    0 -0.45513851002E+01  0.86695007597E+01  0.64407866943E+02  0.18367654859E+03  0.17173475428E+03 0.  0.
         24    2    5    5    0    0 -0.18829914582E+02 -0.11134266846E+02 -0.31583412343E+02  0.84517679522E+02  0.75280732164E+02 0.  0.
          5    1    5    5  501    0  0.14278529482E+02  0.19803767606E+02  0.95991279286E+02  0.99158869066E+02  0.47000000000E+01 0. -1.
        -11    1    6    6    0    0 -0.49097125287E+01  0.32291214393E+02 -0.15591817124E+02  0.36192990555E+02  0.00000000000E+00 0.  1.
         12    1    6    6    0    0 -0.13920202053E+02 -0.43425481239E+02 -0.15991595219E+02  0.48324688967E+02  0.00000000000E+00 0. -1.
         -5    1    3    3    0  503  0.15199698026E+01 -0.70588014025E+02  0.10543523197E+03  0.12697895956E+03  0.47000000000E+01 0.  1.
         11    1    4    4    0    0 -0.24163065229E+02  0.51900508736E+02  0.31003361864E+02  0.65105491129E+02  0.00000000000E+00 0. -1.
        -12    1    4    4    0    0  0.27194480527E+02  0.10018004530E+02  0.80137124349E+02  0.85216541146E+02  0.00000000000E+00 0.  1.
</event>
<event>
12    1  0.8728348E-002  0.2097588E+03  0.7818608E-02  0.1142292E+00
         21   -1    0    0  503  502  0.00000000000E+00  0.00000000000E+00  0.19397350279E+04  0.19397350279E+04  0.00000000000E+00 0. -1.
         21   -1    0    0  501  503 -0.00000000000E+00 -0.00000000000E+00 -0.58823305884E+02  0.58823305884E+02  0.00000000000E+00 0. -1.
          6    2    1    2  501    0 -0.11656947400E+03  0.16394888838E+02  0.15637506048E+03  0.26163318832E+03  0.17361316494E+03 0.  0.
         24    2    3    3    0    0 -0.89901658353E+02 -0.95843559499E+01  0.18048858014E+03  0.21702774715E+03  0.79691576841E+02 0.  0.
         -6    2    1    2    0  502  0.11656947400E+03 -0.16394888838E+02  0.17245366616E+04  0.17369251455E+04  0.17036733645E+03 0.  0.
        -24    2    5    5    0    0  0.10182413615E+03  0.19618847572E+02  0.16213144484E+04  0.16265107919E+04  0.78254466754E+02 0.  0.
          5    1    3    3  501    0 -0.26667815645E+02  0.25979244788E+02 -0.24113519660E+02  0.44605441164E+02  0.47000000000E+01 0. -1.
        -13    1    4    4    0    0 -0.39732249587E+02 -0.30531668696E+02  0.14154324225E+03  0.15015100358E+03  0.00000000000E+00 0.  1.
         14    1    4    4    0    0 -0.50169408765E+02  0.20947312747E+02  0.38945337896E+02  0.66876743574E+02  0.00000000000E+00 0. -1.
         -5    1    5    5    0  502  0.14745337844E+02 -0.36013736410E+02  0.10322221318E+03  0.11041435365E+03  0.47000000000E+01 0.  1.
         13    1    6    6    0    0  0.60888176704E+02 -0.25679007110E+02  0.10084164312E+04  0.10105792795E+04  0.00000000000E+00 0. -1.
        -14    1    6    6    0    0  0.40935959449E+02  0.45297854682E+02  0.61289801719E+03  0.61593151233E+03  0.00000000000E+00 0.  1.
</event>
<event>
12    1  0.8728348E-002  0.2851057E+03  0.7818608E-02  0.1093161E+00
         21   -1    0    0  501  502  0.00000000000E+00  0.00000000000E+00  0.13635963387E+03  0.13635963387E+03  0.00000000000E+00 0.  1.
         21   -1    0    0  502  503 -0.00000000000E+00 -0.00000000000E+00 -0.65358354252E+03  0.65358354252E+03  0.00000000000E+00 0.  1.
         -6    2    1    2    0  503 -0.13340010985E+03  0.18197513737E+03 -0.38002099599E+03  0.47508023241E+03  0.17428347569E+03 0.  0.
        -24    2    3    3    0    0 -0.32262576843E+02  0.14883415573E+02 -0.14646956608E+03  0.17058589011E+03  0.79898824726E+02 0.  0.
          6    2    1    2  501    0  0.13340010985E+03 -0.18197513737E+03 -0.13720291265E+03  0.31486294398E+03  0.17147447135E+03 0.  0.
         24    2    5    5    0    0  0.13619068662E+03 -0.18415900033E+03 -0.16054952054E+03  0.29078576233E+03  0.79484404155E+02 0.  0.
          5    1    5    5  501    0 -0.27905767672E+01  0.21838629612E+01  0.23346607893E+02  0.24077181651E+02  0.47000000000E+01 0. -1.
        -11    1    6    6    0    0  0.10361972900E+03 -0.76542524686E+02 -0.99993816099E+02  0.16307841543E+03  0.00000000000E+00 0.  1.
         12    1    6    6    0    0  0.32570957621E+02 -0.10761647565E+03 -0.60555704444E+02  0.12770734690E+03  0.00000000000E+00 0. -1.
         -5    1    3    3    0  503 -0.10113753301E+03  0.16709172180E+03 -0.23355142991E+03  0.30449434230E+03  0.47000000000E+01 0.  1.
         11    1    4    4    0    0 -0.12591140762E+01  0.21947456677E+02 -0.13516651308E+01  0.22025058944E+02  0.00000000000E+00 0. -1.
        -12    1    4    4    0    0 -0.31003462767E+02 -0.70640411039E+01 -0.14511790095E+03  0.14856083117E+03  0.00000000000E+00 0.  1.
</event>
<event>
12    1  0.8728348E-002  0.2195661E+03  0.7818608E-02  0.1135072E+00
         21   -1    0    0  501  502  0.00000000000E+00  0.00000000000E+00  0.52627237315E+03  0.52627237315E+03  0.00000000000E+00 0. -1.
         21   -1    0    0  502  503 -0.00000000000E+00 -0.00000000000E+00 -0.10500256250E+03  0.10500256250E+03  0.00000000000E+00 0. -1.
         -6    2    1    2    0  503  0.11754492445E+03  0.56938557394E+02  0.88265842114E+02  0.23240034962E+03  0.17076374041E+03 0.  0.
        -24    2    3    3    0    0  0.13793043419E+03  0.19956793942E+02  0.34783132335E+02  0.16409434637E+03  0.79334796360E+02 0.  0.
          6    2    1    2  501    0 -0.11754492445E+03 -0.56938557394E+02  0.33300396853E+03  0.39887458602E+03  0.17649499634E+03 0.  0.
         24    2    5    5    0    0 -0.23299294592E+02  0.22145319623E+02  0.86030869666E+02  0.12291390057E+03  0.81689926599E+02 0.  0.
          5    1    5    5  501    0 -0.94245629860E+02 -0.79083877017E+02  0.24697309887E+03  0.27596068545E+03  0.47000000000E+01 0. -1.
        -11    1    6    6    0    0  0.10528482590E+02 -0.26425658835E+02  0.31350831370E+02  0.42332481832E+02  0.00000000000E+00 0.  1.
         12    1    6    6    0    0 -0.33827777182E+02  0.48570978458E+02  0.54680038296E+02  0.80581418736E+02  0.00000000000E+00 0. -1.
         -5    1    3    3    0  503 -0.20385509742E+02  0.36981763452E+02  0.53482709779E+02  0.68306003256E+02  0.47000000000E+01 0.  1.
         11    1    4    4    0    0  0.68882482473E+02  0.14584890333E+02 -0.22817849922E+02  0.74014658634E+02  0.00000000000E+00 0. -1.
        -12    1    4    4    0    0  0.69047951721E+02  0.53719036092E+01  0.57600982257E+02  0.90079687734E+02  0.00000000000E+00 0.  1.
</event>
<event>
12    1  0.8728348E-002  0.1817630E+03  0.7818608E-02  0.1166154E+00
         21   -1    0    0  503  502  0.00000000000E+00  0.00000000000E+00  0.68450317602E+03  0.68450317602E+03  0.00000000000E+00 0. -1.
         21   -1    0    0  501  503 -0.00000000000E+00 -0.00000000000E+00 -0.48604431022E+02  0.48604431022E+02  0.00000000000E+00 0. -1.
          6    2    1    2  501    0  0.10654287256E+02  0.57919940284E+02  0.35065674028E+03  0.39487572874E+03  0.17175115234E+03 0.  0.
         24    2    3    3    0    0  0.30439783029E+01  0.52189573111E+02  0.84112087870E+02  0.12811948114E+03  0.81281860067E+02 0.  0.
         -6    2    1    2    0  502 -0.10654287256E+02 -0.57919940284E+02  0.28524200472E+03  0.33823187830E+03  0.17195804407E+03 0.  0.
        -24    2    5    5    0    0  0.16905539322E+02 -0.10150638468E+03  0.21379290465E+03  0.24999137696E+03  0.78733341612E+02 0.  0.
          5    1    3    3  501    0  0.76103089530E+01  0.57303671728E+01  0.26654465241E+03  0.26675624760E+03  0.47000000000E+01 0. -1.
        -11    1    4    4    0    0  0.87697874624E+01  0.70214944837E+02  0.83148454138E+02  0.10918201810E+03  0.00000000000E+00 0.  1.
         12    1    4    4    0    0 -0.57258091594E+01 -0.18025371726E+02  0.96363373199E+00  0.18937463039E+02  0.00000000000E+00 0. -1.
         -5    1    5    5    0  502 -0.27559826578E+02  0.43586444399E+02  0.71449100068E+02  0.88240501341E+02  0.47000000000E+01 0.  1.
         13    1    6    6    0    0  0.27504476586E+02 -0.32184890401E+02  0.26366872200E+02  0.49875598764E+02  0.00000000000E+00 0. -1.
        -14    1    6    6    0    0 -0.10598937265E+02 -0.69321494281E+02  0.18742603245E+03  0.20011577819E+03  0.00000000000E+00 0.  1.
</event>
<event>
12    1  0.8728348E-002  0.2157786E+03  0.7818608E-02  0.1137290E+00
         21   -1    0    0  501  502  0.00000000000E+00  0.00000000000E+00  0.38866285910E+03  0.38866285910E+03  0.00000000000E+00 0. -1.
         21   -1    0    0  502  503 -0.00000000000E+00 -0.00000000000E+00 -0.22236901143E+03  0.22236901143E+03  0.00000000000E+00 0.  1.
         -6    2    1    2    0  503 -0.69228390104E+02 -0.11001734766E+03 -0.12487508889E+03  0.24930738447E+03  0.17223239342E+03 0.  0.
        -24    2    3    3    0    0 -0.59632391495E+01  0.10089955465E+02 -0.21748823504E+02  0.78763078780E+02  0.74787992570E+02 0.  0.
          6    2    1    2  501    0  0.69228390104E+02  0.11001734766E+03  0.29116893656E+03  0.36172448607E+03  0.17078895579E+03 0.  0.
         24    2    5    5    0    0 -0.75340432150E+01  0.10489951627E+03  0.14088341973E+03  0.19282661770E+03  0.79204142702E+02 0.  0.
          5    1    5    5  501    0  0.76762433319E+02  0.51178313950E+01  0.15028551684E+03  0.16889786836E+03  0.47000000000E+01 0. -1.
        -13    1    6    6    0    0 -0.43501992305E+02  0.54684887205E+02  0.73390609751E+02  0.10133628088E+03  0.00000000000E+00 0.  1.
         14    1    6    6    0    0  0.35967949090E+02  0.50214629064E+02  0.67492809975E+02  0.91490336824E+02  0.00000000000E+00 0. -1.
         -5    1    3    3    0  503 -0.63265150954E+02 -0.12010730313E+03 -0.10312626538E+03  0.17054430569E+03  0.47000000000E+01 0.  1.
         13    1    4    4    0    0  0.22287458839E+02 -0.84754080459E+01  0.15516992393E+02  0.28448908871E+02  0.00000000000E+00 0. -1.
        -14    1    4    4    0    0 -0.28250697988E+02  0.18565363511E+02 -0.37265815897E+02  0.50314169909E+02  0.00000000000E+00 0.  1.
</event>
<event>
12    1  0.8728348E-002  0.2694329E+03  0.7818608E-02  0.1101805E+00
         21   -1    0    0  501  502  0.00000000000E+00  0.00000000000E+00  0.14859478552E+03  0.14859478552E+03  0.00000000000E+00 0. -1.
         21   -1    0    0  502  503 -0.00000000000E+00 -0.00000000000E+00 -0.58432453026E+03  0.58432453026E+03  0.00000000000E+00 0. -1.
         -6    2    1    2    0  503 -0.15171395985E+03 -0.13771337467E+03 -0.36770745330E+03  0.45503240682E+03  0.17281093965E+03 0.  0.
        -24    2    3    3    0    0 -0.93511051761E+02 -0.63550234328E+01 -0.14620837668E+03  0.19097459895E+03  0.79433650986E+02 0.  0.
          6    2    1    2  501    0  0.15171395985E+03  0.13771337467E+03 -0.68022291439E+02  0.27788690895E+03  0.17496286136E+03 0.  0.
         24    2    5    5    0    0  0.10518298046E+03  0.41692055891E+02  0.17628039307E+02  0.14098075547E+03  0.82238304586E+02 0.  0.
          5    1    5    5  501    0  0.46530979397E+02  0.96021318783E+02 -0.85650330746E+02  0.13690615348E+03  0.47000000000E+01 0. -1.
        -13    1    6    6    0    0  0.24626043989E+02 -0.18987649437E+02  0.24940692895E+02  0.39862401280E+02  0.00000000000E+00 0.  1.
         14    1    6    6    0    0  0.80556936468E+02  0.60679705329E+02 -0.73126535881E+01  0.10111835419E+03  0.00000000000E+00 0. -1.
         -5    1    3    3    0  503 -0.58202908093E+02 -0.13135835124E+03 -0.22149907662E+03  0.26405780787E+03  0.47000000000E+01 0.  1.
         13    1    4    4    0    0 -0.45380125730E+02 -0.33041926205E+02 -0.11434702083E+03  0.12738275343E+03  0.00000000000E+00 0. -1.
        -14    1    4    4    0    0 -0.48130926031E+02  0.26686902772E+02 -0.31861355848E+02  0.63591845520E+02  0.00000000000E+00 0.  1.
</event>
<event>
12    1  0.8728348E-002  0.1923327E+03  0.7818608E-02  0.1158008E+00
         21   -1    0    0  501  502  0.00000000000E+00  0.00000000000E+00  0.42825336369E+03  0.42825336369E+03  0.00000000000E+00 0.  1.
         21   -1    0    0  502  503 -0.00000000000E+00 -0.00000000000E+00 -0.83573851367E+02  0.83573851367E+02  0.00000000000E+00 0.  1.
         -6    2    1    2    0  503  0.42525106834E+02  0.40715451842E+02  0.15125096948E+03  0.23905170909E+03  0.17550706857E+03 0.  0.
        -24    2    3    3    0    0  0.95109375146E+02  0.86981447535E+00  0.11448804000E+03  0.16337884027E+03  0.67369016077E+02 0.  0.
          6    2    1    2  501    0 -0.42525106834E+02 -0.40715451842E+02  0.19342854284E+03  0.27277550597E+03  0.18310036248E+03 0.  0.
         24    2    5    5    0    0 -0.11281670807E+02  0.49500530402E+02  0.14516900353E+03  0.16569540099E+03  0.61671287633E+02 0.  0.
          5    1    5    5  501    0 -0.31243436027E+02 -0.90215982244E+02  0.48259539308E+02  0.10708010497E+03  0.47000000000E+01 0. -1.
        -13    1    6    6    0    0 -0.49213161721E+01  0.12432211639E+01  0.97279955594E+02  0.97412292407E+02  0.00000000000E+00 0.  1.
         14    1    6    6    0    0 -0.63603546349E+01  0.48257309238E+02  0.47889047937E+02  0.68283108587E+02  0.00000000000E+00 0. -1.
         -5    1    3    3    0  503 -0.52584268312E+02  0.39845637367E+02  0.36762929484E+02  0.75672868819E+02  0.47000000000E+01 0.  1.
         13    1    4    4    0    0 -0.16739601509E+01  0.17207029890E+02  0.26025004492E+02  0.31243957480E+02  0.00000000000E+00 0. -1.
        -14    1    4    4    0    0  0.96783335296E+02 -0.16337215415E+02  0.88463035509E+02  0.13213488279E+03  0.00000000000E+00 0.  1.
</event>
<event>
12    1  0.8728348E-002  0.2226265E+03  0.7818608E-02  0.1131992E+00
         21   -1    0    0  501  502  0.00000000000E+00  0.00000000000E+00  0.39375122879E+02  0.39375122879E+02  0.00000000000E+00 0. -1.
         21   -1    0    0  502  503 -0.00000000000E+00 -0.00000000000E+00 -0.17119578495E+04  0.17119578495E+04  0.00000000000E+00 0. -1.
         -6    2    1    2    0  503  0.36755905045E+02 -0.13586804528E+03 -0.12872563707E+04  0.13063172915E+04  0.17211850581E+03 0.  0.
        -24    2    3    3    0    0 -0.30306079895E+02 -0.98223327854E+02 -0.10132183902E+04  0.10216537369E+04  0.81231590816E+02 0.  0.
          6    2    1    2  501    0 -0.36755905045E+02  0.13586804528E+03 -0.38532635595E+03  0.44501568085E+03  0.17248603806E+03 0.  0.
         24    2    5    5    0    0 -0.79548653523E+02  0.60272975596E+02 -0.28379525122E+03  0.31131269243E+03  0.80093869875E+02 0.  0.
          5    1    5    5  501    0  0.42792748478E+02  0.75595069682E+02 -0.10153110474E+03  0.13370298842E+03  0.47000000000E+01 0. -1.
        -13    1    6    6    0    0 -0.88150624357E+02  0.34076473731E+02 -0.17292652412E+03  0.19706679421E+03  0.00000000000E+00 0.  1.
         14    1    6    6    0    0  0.86019708341E+01  0.26196501865E+02 -0.11086872710E+03  0.11424589822E+03  0.00000000000E+00 0. -1.
         -5    1    3    3    0  503  0.67061984940E+02 -0.37644717424E+02 -0.27403798046E+03  0.28466355459E+03  0.47000000000E+01 0.  1.
         13    1    4    4    0    0  0.65631546901E+01 -0.64480781672E+02 -0.31224688911E+03  0.31890275314E+03  0.00000000000E+00 0. -1.
        -14    1    4    4    0    0 -0.36869234585E+02 -0.33742546182E+02 -0.70097150109E+03  0.70275098379E+03  0.00000000000E+00 0.  1.
</event>
<event>
12    1  0.8728348E-002  0.1928378E+03  0.7818608E-02  0.1156047E+00
         21   -1    0    0  501  502  0.00000000000E+00  0.00000000000E+00  0.73610443689E+03  0.73610443689E+03  0.00000000000E+00 0.  1.
         21   -1    0    0  502  503 -0.00000000000E+00 -0.00000000000E+00 -0.54042131415E+02  0.54042131415E+02  0.00000000000E+00 0. -1.
         -6    2    1    2    0  503 -0.30325836076E+02 -0.80994466394E+02  0.23767984067E+03  0.30572712495E+03  0.17174867786E+03 0.  0.
        -24    2    3    3    0    0 -0.50710543153E+02 -0.76617626056E+02  0.25208569032E+03  0.27995288358E+03  0.79903704225E+02 0.  0.
          6    2    1    2  501    0  0.30325836076E+02  0.80994466394E+02  0.44438246481E+03  0.48441944336E+03  0.17235620719E+03 0.  0.
         24    2    5    5    0    0 -0.43054551806E+02  0.40060763717E+02  0.28320438766E+03  0.30259339491E+03  0.88879008967E+02 0.  0.
          5    1    5    5  501    0  0.73380387882E+02  0.40933702677E+02  0.16117807715E+03  0.18182604845E+03  0.47000000000E+01 0. -1.
        -13    1    6    6    0    0  0.17030181030E+02  0.43134635221E+02  0.12718522890E+03  0.13537616582E+03  0.00000000000E+00 0.  1.
         14    1    6    6    0    0 -0.60084732836E+02 -0.30738715039E+01  0.15601915876E+03  0.16721722909E+03  0.00000000000E+00 0. -1.
         -5    1    3    3    0  503  0.20384707078E+02 -0.43768403384E+01 -0.14405849652E+02  0.25774241370E+02  0.47000000000E+01 0.  1.
         11    1    4    4    0    0 -0.27350844336E+02 -0.87534680276E+01  0.15320840625E+02  0.32548733399E+02  0.00000000000E+00 0. -1.
        -12    1    4    4    0    0 -0.23359698818E+02 -0.67864158028E+02  0.23676484970E+03  0.24740415018E+03  0.00000000000E+00 0.  1.
</event>
<event>
12    1  0.8728348E-002  0.1916045E+03  0.7818608E-02  0.1157277E+00
         21   -1    0    0  501  502  0.00000000000E+00  0.00000000000E+00  0.84903827678E+02  0.84903827678E+02  0.00000000000E+00 0. -1.
         21   -1    0    0  502  503 -0.00000000000E+00 -0.00000000000E+00 -0.43107770362E+03  0.43107770362E+03  0.00000000000E+00 0. -1.
         -6    2    1    2    0  503 -0.70406486874E+02 -0.50720295678E+02 -0.18748058595E+03  0.26806951048E+03  0.17082936092E+03 0.  0.
        -24    2    3    3    0    0 -0.99336856692E+02 -0.35144759815E+01 -0.92481316764E+02  0.15801358444E+03  0.80841426741E+02 0.  0.
          6    2    1    2  501    0  0.70406486874E+02  0.50720295678E+02 -0.15869328999E+03  0.24791202082E+03  0.16954995721E+03 0.  0.
         24    2    5    5    0    0 -0.23981490063E+02  0.20571051867E+02 -0.10311803597E+03  0.13420728938E+03  0.79874821678E+02 0.  0.
          5    1    5    5  501    0  0.94387976938E+02  0.30149243811E+02 -0.55575254015E+02  0.11370473144E+03  0.47000000000E+01 0. -1.
        -11    1    6    6    0    0  0.17408819823E+02  0.33050608320E+02 -0.25075303686E+02  0.44990894333E+02  0.00000000000E+00 0.  1.
         12    1    6    6    0    0 -0.41390309886E+02 -0.12479556453E+02 -0.78042732287E+02  0.89216395043E+02  0.00000000000E+00 0. -1.
         -5    1    3    3    0  503  0.28930369818E+02 -0.47205819697E+02 -0.94999269185E+02  0.11005592604E+03  0.47000000000E+01 0.  1.
         13    1    4    4    0    0 -0.67232277548E+02 -0.62134917511E+01 -0.84842861486E+01  0.68049759261E+02  0.00000000000E+00 0. -1.
        -14    1    4    4    0    0 -0.32104579144E+02  0.26990157696E+01 -0.83997030616E+02  0.89963825176E+02  0.00000000000E+00 0.  1.
</event>
<event>
12    1  0.8728348E-002  0.2912407E+03  0.7818608E-02  0.1089742E+00
         21   -1    0    0  503  502  0.00000000000E+00  0.00000000000E+00  0.18702368514E+04  0.18702368514E+04  0.00000000000E+00 0.  1.
         21   -1    0    0  501  503 -0.00000000000E+00 -0.00000000000E+00 -0.45393915968E+02  0.45393915968E+02  0.00000000000E+00 0.  1.
          6    2    1    2  501    0 -0.15310894719E+03 -0.17796599728E+03  0.87090220408E+03  0.91830920399E+03  0.17235689478E+03 0.  0.
         24    2    3    3    0    0 -0.85396137938E+02 -0.15929677931E+03  0.43892959193E+03  0.48063810387E+03  0.75404482292E+02 0.  0.
         -6    2    1    2    0  502  0.15310894719E+03  0.17796599728E+03  0.95394073138E+03  0.99732156339E+03  0.17185207572E+03 0.  0.
        -24    2    5    5    0    0  0.12351650288E+03  0.13410991781E+03  0.46558529706E+03  0.50608619344E+03  0.78177808954E+02 0.  0.
          5    1    3    3  501    0 -0.67712809254E+02 -0.18669217971E+02  0.43197261215E+03  0.43767110012E+03  0.47000000000E+01 0. -1.
        -11    1    4    4    0    0 -0.22926139953E+02 -0.16439165842E+02  0.22850667906E+02  0.36304367375E+02  0.00000000000E+00 0.  1.
         12    1    4    4    0    0 -0.62469997985E+02 -0.14285761347E+03  0.41607892402E+03  0.44433373650E+03  0.00000000000E+00 0. -1.
         -5    1    5    5    0  502  0.29592444316E+02  0.43856079471E+02  0.48835543432E+03  0.49123536996E+03  0.47000000000E+01 0.  1.
         13    1    6    6    0    0  0.13103537410E+03  0.10385143083E+03  0.39234542563E+03  0.42648601614E+03  0.00000000000E+00 0. -1.
        -14    1    6    6    0    0 -0.75188712209E+01  0.30258486985E+02  0.73239871432E+02  0.79600177302E+02  0.00000000000E+00 0.  1.
</event>
<event>
12    1  0.8728348E-002  0.1872340E+03  0.7818608E-02  0.1161141E+00
         21   -1    0    0  501  502  0.00000000000E+00  0.00000000000E+00  0.79485049113E+02  0.79485049113E+02  0.00000000000E+00 0. -1.
         21   -1    0    0  502  503 -0.00000000000E+00 -0.00000000000E+00 -0.71068607068E+03  0.71068607068E+03  0.00000000000E+00 0. -1.
         -6    2    1    2    0  503  0.71097109425E+02 -0.11376109664E+02 -0.55933320057E+03  0.58961796900E+03  0.17207993860E+03 0.  0.
        -24    2    3    3    0    0  0.23059245274E+02 -0.65074894165E+02 -0.39699458733E+03  0.41194661172E+03  0.85608632133E+02 0.  0.
          6    2    1    2  501    0 -0.71097109425E+02  0.11376109664E+02 -0.71867820993E+02  0.20055315079E+03  0.17283624549E+03 0.  0.
         24    2    5    5    0    0 -0.60518268421E+02  0.62119335123E+02 -0.74332473874E+01  0.11772386199E+03  0.79261478072E+02 0.  0.
          5    1    5    5  501    0 -0.10578841005E+02 -0.50743225459E+02 -0.64434573606E+02  0.82829288798E+02  0.47000000000E+01 0. -1.
        -11    1    6    6    0    0  0.84342333392E+01  0.13674311019E+02 -0.26809844377E+02  0.31255252828E+02  0.00000000000E+00 0.  1.
         12    1    6    6    0    0 -0.68952501760E+02  0.48445024104E+02  0.19376596989E+02  0.86468609161E+02  0.00000000000E+00 0. -1.
         -5    1    3    3    0  503  0.48037864151E+02  0.53698784501E+02 -0.16233861324E+03  0.17767135728E+03  0.47000000000E+01 0.  1.
         11    1    4    4    0    0  0.40005621005E+02 -0.23174437992E+02 -0.85586708742E+02  0.97275839763E+02  0.00000000000E+00 0. -1.
        -12    1    4    4    0    0 -0.16946375731E+02 -0.41900456174E+02 -0.31140787859E+03  0.31467077196E+03  0.00000000000E+00 0.  1.
</event>
<event>
12    1  0.8728348E-002  0.2217001E+03  0.7818608E-02  0.1132767E+00
         21   -1    0    0  501  502  0.00000000000E+00  0.00000000000E+00  0.14923056868E+03  0.14923056868E+03  0.00000000000E+00 0. -1.
         21   -1    0    0  502  503 -0.00000000000E+00 -0.00000000000E+00 -0.38160092933E+03  0.38160092933E+03  0.00000000000E+00 0. -1.
         -6    2    1    2    0  503 -0.17254353569E+00 -0.13866599351E+03 -0.21565129876E+03  0.30928374419E+03  0.17298168756E+03 0.  0.
        -24    2    3    3    0    0 -0.37815882434E+01 -0.15706535287E+03 -0.22596282676E+03  0.28737531571E+03  0.82713647710E+02 0.  0.
          6    2    1    2  501    0  0.17254353569E+00  0.13866599351E+03 -0.16719061880E+02  0.22154775383E+03  0.17197555835E+03 0.  0.
         24    2    5    5    0    0 -0.48625968877E+02  0.13094369446E+03 -0.41779450923E+02  0.16595061528E+03  0.79267573586E+02 0.  0.
          5    1    5    5  501    0  0.48798512413E+02  0.77222990458E+01  0.25060389043E+02  0.55597138553E+02  0.47000000000E+01 0. -1.
        -11    1    6    6    0    0  0.99956515947E+00  0.25392676001E+01 -0.27406358606E+02  0.27541886327E+02  0.00000000000E+00 0.  1.
         12    1    6    6    0    0 -0.49625534037E+02  0.12840442686E+03 -0.14373092318E+02  0.13840872895E+03  0.00000000000E+00 0. -1.
         -5    1    3    3    0  503  0.36090447077E+01  0.18399359365E+02  0.10311527995E+02  0.21908428477E+02  0.47000000000E+01 0.  1.
         13    1    4    4    0    0  0.32503680860E+02 -0.77118225724E+02 -0.73218685270E+02  0.11119660913E+03  0.00000000000E+00 0. -1.
        -14    1    4    4    0    0 -0.36285269103E+02 -0.79947127150E+02 -0.15274414149E+03  0.17617870658E+03  0.00000000000E+00 0.  1.
</event>
<event>
12    1  0.8728348E-002  0.1895125E+03  0.7818608E-02  0.1159920E+00
         21   -1    0    0  503  502  0.00000000000E+00  0.00000000000E+00  0.10139567761E+03  0.10139567761E+03  0.00000000000E+00 0.  1.
         21   -1    0    0  501  503 -0.00000000000E+00 -0.00000000000E+00 -0.75183394577E+03  0.75183394577E+03  0.00000000000E+00 0.  1.
          6    2    1    2  501    0  0.64147837205E+02 -0.26897944462E+02 -0.63689003589E+03  0.66323341737E+03  0.17149694943E+03 0.  0.
         24    2    3    3    0    0  0.15284647431E+02 -0.61399655451E+02 -0.53753247661E+03  0.54716449835E+03  0.80276314740E+02 0.  0.
         -6    2    1    2    0  502 -0.64147837205E+02  0.26897944462E+02 -0.13548232268E+02  0.18999620602E+03  0.17628544826E+03 0.  0.
        -24    2    5    5    0    0 -0.99058611553E+02 -0.20463045980E+02  0.57928820421E+01  0.12788345142E+03  0.78033806074E+02 0.  0.
          5    1    3    3  501    0  0.48863189774E+02  0.34501710988E+02 -0.99357559281E+02  0.11606891902E+03  0.47000000000E+01 0. -1.
        -13    1    4    4    0    0  0.46467303608E+02 -0.21477141818E+02 -0.24701150010E+03  0.25226010209E+03  0.00000000000E+00 0.  1.
         14    1    4    4    0    0 -0.31182656177E+02 -0.39922513632E+02 -0.29052097651E+03  0.29490439626E+03  0.00000000000E+00 0. -1.
         -5    1    5    5    0  502  0.34910774348E+02  0.47360990442E+02 -0.19341114311E+02  0.62112754600E+02  0.47000000000E+01 0.  1.
         11    1    6    6    0    0 -0.28022777306E+02  0.60534559737E+01 -0.32166912157E+02  0.43088636726E+02  0.00000000000E+00 0. -1.
        -12    1    6    6    0    0 -0.71035834247E+02 -0.26516501953E+02  0.37959794199E+02  0.84794814692E+02  0.00000000000E+00 0.  1.
</event>
<event>
12    1  0.8728348E-002  0.1952613E+03  0.7818608E-02  0.1153957E+00
         21   -1    0    0  501  502  0.00000000000E+00  0.00000000000E+00  0.14976883864E+03  0.14976883864E+03  0.00000000000E+00 0.  1.
         21   -1    0    0  502  503 -0.00000000000E+00 -0.00000000000E+00 -0.26378317903E+03  0.26378317903E+03  0.00000000000E+00 0.  1.
         -6    2    1    2    0  503 -0.65862927107E+02  0.62117764108E+02 -0.16541267276E+02  0.19596070079E+03  0.17300416453E+03 0.  0.
        -24    2    3    3    0    0 -0.10096010612E+03  0.44397775948E+02  0.24570865655E+02  0.13888086696E+03  0.80746902301E+02 0.  0.
          6    2    1    2  501    0  0.65862927107E+02 -0.62117764108E+02 -0.97473073106E+02  0.21759131688E+03  0.17218722199E+03 0.  0.
         24    2    5    5    0    0  0.53174956006E+01 -0.32659704994E+02 -0.11405578934E+03  0.14808877735E+03  0.88468247444E+02 0.  0.
          5    1    5    5  501    0  0.60545431507E+02 -0.29458059114E+02  0.16582716237E+02  0.69502539528E+02  0.47000000000E+01 0. -1.
        -11    1    6    6    0    0  0.36755557125E+02 -0.46135473508E+02 -0.60146864482E+02  0.84244276971E+02  0.00000000000E+00 0.  1.
         12    1    6    6    0    0 -0.31438061525E+02  0.13475768514E+02 -0.53908924861E+02  0.63844500383E+02  0.00000000000E+00 0. -1.
         -5    1    3    3    0  503  0.35097179016E+02  0.17719988160E+02 -0.41112132932E+02  0.57079833825E+02  0.47000000000E+01 0.  1.
         11    1    4    4    0    0  0.60574644695E+01 -0.10839594676E+02  0.12866534048E+02  0.17881202055E+02  0.00000000000E+00 0. -1.
        -12    1    4    4    0    0 -0.10701757059E+03  0.55237370624E+02  0.11704331608E+02  0.12099966491E+03  0.00000000000E+00 0.  1.
</event>
<event>
12    1  0.8728348E-002  0.1999741E+03  0.7818608E-02  0.1149895E+00
         21   -1    0    0  501  502  0.00000000000E+00  0.00000000000E+00  0.20871751498E+03  0.20871751498E+03  0.00000000000E+00 0. -1.
         21   -1    0    0  502  503 -0.00000000000E+00 -0.00000000000E+00 -0.73307647277E+03  0.73307647277E+03  0.00000000000E+00 0.  1.
         -6    2    1    2    0  503 -0.10144754888E+03  0.16003365873E+02 -0.66722413413E+03  0.69654698276E+03  0.17158654122E+03 0.  0.
        -24    2    3    3    0    0 -0.22100239832E+02 -0.38439586240E+02 -0.21315098274E+03  0.23236539404E+03  0.81205372445E+02 0.  0.
          6    2    1    2  501    0  0.10144754888E+03 -0.16003365873E+02  0.14286517635E+03  0.24524700499E+03  0.17084473053E+03 0.  0.
         24    2    5    5    0    0  0.40610653102E+02 -0.59829534433E+02  0.29160121123E+02  0.10896497931E+03  0.76120008646E+02 0.  0.
          5    1    5    5  501    0  0.60836895782E+02  0.43826168560E+02  0.11370505523E+03  0.13628202568E+03  0.47000000000E+01 0. -1.
        -11    1    6    6    0    0  0.53793772150E+02 -0.28993602086E+02 -0.47230072884E+01  0.61291970778E+02  0.00000000000E+00 0.  1.
         12    1    6    6    0    0 -0.13183119048E+02 -0.30835932347E+02  0.33883128411E+02  0.47673008532E+02  0.00000000000E+00 0. -1.
         -5    1    3    3    0  503 -0.79347309052E+02  0.54442952113E+02 -0.45407315140E+03  0.46418158872E+03  0.47000000000E+01 0.  1.
         13    1    4    4    0    0 -0.22831163224E+02  0.21703994458E+02 -0.58749784759E+02  0.66662302682E+02  0.00000000000E+00 0. -1.
        -14    1    4    4    0    0  0.73092339229E+00 -0.60143580698E+02 -0.15440119798E+03  0.16570309136E+03  0.00000000000E+00 0.  1.
</event>
<event>
12    1  0.8728348E-002  0.1909897E+03  0.7818608E-02  0.1157966E+00
         21   -1    0    0  503  502  0.00000000000E+00  0.00000000000E+00  0.30761931946E+03  0.30761931946E+03  0.00000000000E+00 0.  1.
         21   -1    0    0  501  503 -0.00000000000E+00 -0.00000000000E+00 -0.22169823696E+03  0.22169823696E+03  0.00000000000E+00 0. -1.
          6    2    1    2  501    0 -0.31470106026E+01 -0.78023035143E+02 -0.13858917481E+03  0.23456014139E+03  0.17237750104E+03 0.  0.
         24    2    3    3    0    0  0.51003674761E+02 -0.87840788985E+02 -0.11742565628E+03  0.17541058913E+03  0.81625430943E+02 0.  0.
         -6    2    1    2    0  502  0.31470106026E+01  0.78023035143E+02  0.22451025731E+03  0.29475741503E+03  0.17429739066E+03 0.  0.
        -24    2    5    5    0    0 -0.61020997287E+02  0.22803944719E+02  0.12823578374E+03  0.16647044982E+03  0.83811767827E+02 0.  0.
          5    1    3    3  501    0 -0.54150685363E+02  0.98177538416E+01 -0.21163518526E+02  0.59149552257E+02  0.47000000000E+01 0. -1.
        -13    1    4    4    0    0 -0.82458522616E+01 -0.47297660843E+02 -0.14942794390E+02  0.50282699857E+02  0.00000000000E+00 0.  1.
         14    1    4    4    0    0  0.59249527022E+02 -0.40543128141E+02 -0.10248286189E+03  0.12512788927E+03  0.00000000000E+00 0. -1.
         -5    1    5    5    0  502  0.64168007889E+02  0.55219090424E+02  0.96274473564E+02  0.12828696521E+03  0.47000000000E+01 0.  1.
         13    1    6    6    0    0 -0.75264017339E+02  0.25327168102E+02  0.12954396116E+03  0.15194662096E+03  0.00000000000E+00 0. -1.
        -14    1    6    6    0    0  0.14243020052E+02 -0.25232233826E+01 -0.13081774155E+01  0.14523828855E+02  0.00000000000E+00 0.  1.
</event>
<event>
12    1  0.8728348E-002  0.2276377E+03  0.7818608E-02  0.1128669E+00
         21   -1    0    0  503  502  0.00000000000E+00  0.00000000000E+00  0.30090302299E+02  0.30090302299E+02  0.00000000000E+00 0.  1.
         21   -1    0    0  501  503 -0.00000000000E+00 -0.00000000000E+00 -0.21026540515E+04  0.21026540515E+04  0.00000000000E+00 0.  1.
          6    2    1    2  501    0 -0.10504989145E+03  0.10434650414E+03 -0.57012573732E+03  0.61315923870E+03  0.17028570998E+03 0.  0.
         24    2    3    3    0    0 -0.28158406038E+01  0.77969740457E+02 -0.20862709177E+03  0.23652825809E+03  0.79581053466E+02 0.  0.
         -6    2    1    2    0  502  0.10504989145E+03 -0.10434650414E+03 -0.15024380119E+04  0.15195851151E+04  0.17290248663E+03 0.  0.
        -24    2    5    5    0    0  0.56483087544E+01 -0.32850658839E+02 -0.94309154183E+03  0.94697451959E+03  0.78917775582E+02 0.  0.
          5    1    3    3  501    0 -0.10223405085E+03  0.26376763685E+02 -0.36149864556E+03  0.37663098061E+03  0.47000000000E+01 0. -1.
        -11    1    4    4    0    0 -0.37247786828E+02  0.21371322416E+02 -0.59797957241E+02  0.73620151695E+02  0.00000000000E+00 0.  1.
         12    1    4    4    0    0  0.34431946224E+02  0.56598418041E+02 -0.14882913453E+03  0.16290810640E+03  0.00000000000E+00 0. -1.
         -5    1    5    5    0  502  0.99401582695E+02 -0.71495845303E+02 -0.55934647007E+03  0.57261059554E+03  0.47000000000E+01 0.  1.
         11    1    6    6    0    0 -0.33663813807E+02  0.53273268912E+00 -0.41960853029E+03  0.42095707009E+03  0.00000000000E+00 0. -1.
        -12    1    6    6    0    0  0.39312122561E+02 -0.33383391528E+02 -0.52348301153E+03  0.52601744950E+03  0.00000000000E+00 0.  1.
</event>
<event>
12    1  0.8728348E-002  0.2318193E+03  0.7818608E-02  0.1125588E+00
         21   -1    0    0  501  502  0.00000000000E+00  0.00000000000E+00  0.53865397548E+03  0.53865397548E+03  0.00000000000E+00 0.  1.
         21   -1    0    0  502  503 -0.00000000000E+00 -0.00000000000E+00 -0.11803421826E+03  0.11803421826E+03  0.00000000000E+00 0.  1.
         -6    2    1    2    0  503 -0.62391952253E+01  0.15367181612E+03  0.34091254235E+03  0.41154855634E+03  0.17174661007E+03 0.  0.
        -24    2    3    3    0    0  0.33751314034E+01  0.81884509617E+01  0.68929533432E+02  0.10291496784E+03  0.75906309257E+02 0.  0.
          6    2    1    2  501    0  0.62391952253E+01 -0.15367181612E+03  0.79707214878E+02  0.24513963739E+03  0.17345387597E+03 0.  0.
         24    2    5    5    0    0 -0.12899484880E+02 -0.34915879549E+02  0.88126646610E+02  0.12446553753E+03  0.79623167701E+02 0.  0.
          5    1    5    5  501    0  0.19138680105E+02 -0.11875593657E+03 -0.84194317319E+01  0.12067409986E+03  0.47000000000E+01 0. -1.
        -13    1    6    6    0    0  0.42107973799E+01 -0.41651964970E+02  0.84681029747E+01  0.42712126714E+02  0.00000000000E+00 0.  1.
         14    1    6    6    0    0 -0.17110282260E+02  0.67360854207E+01  0.79658543635E+02  0.81753410815E+02  0.00000000000E+00 0. -1.
         -5    1    3    3    0  503 -0.96143266287E+01  0.14548336516E+03  0.27198300891E+03  0.30863358850E+03  0.47000000000E+01 0.  1.
         13    1    4    4    0    0 -0.22695006347E+02 -0.24531896672E+02  0.39624267745E+02  0.51835893566E+02  0.00000000000E+00 0. -1.
        -14    1    4    4    0    0  0.26070137751E+02  0.32720347634E+02  0.29305265688E+02  0.51079074273E+02  0.00000000000E+00 0.  1.
</event>
<event>
12    1  0.8728348E-002  0.1891417E+03  0.7818608E-02  0.1159313E+00
         21   -1    0    0  501  502  0.00000000000E+00  0.00000000000E+00  0.77328565658E+03  0.77328565658E+03  0.00000000000E+00 0. -1.
         21   -1    0    0  502  503 -0.00000000000E+00 -0.00000000000E+00 -0.53537434742E+02  0.53537434742E+02  0.00000000000E+00 0. -1.
         -6    2    1    2    0  503  0.77063002030E+02 -0.94258387980E+01  0.20636903228E+03  0.27970995684E+03  0.17211022559E+03 0.  0.
        -24    2    3    3    0    0  0.32801402209E+02 -0.35090110748E+02  0.20874984302E+03  0.22827550989E+03  0.78904775484E+02 0.  0.
          6    2    1    2  501    0 -0.77063002030E+02  0.94258387980E+01  0.51337918955E+03  0.54711313448E+03  0.17247329339E+03 0.  0.
         24    2    5    5    0    0 -0.51066428040E+02  0.50261258055E+02  0.46984877314E+03  0.48184185076E+03  0.79244718350E+02 0.  0.
          5    1    5    5  501    0 -0.25996573990E+02 -0.40835419257E+02  0.43530416408E+02  0.65271283715E+02  0.47000000000E+01 0. -1.
        -13    1    6    6    0    0 -0.29624768182E+01  0.56610855026E+02  0.21086741976E+03  0.21835437686E+03  0.00000000000E+00 0.  1.
         14    1    6    6    0    0 -0.48103951222E+02 -0.63495969716E+01  0.25898135338E+03  0.26348747390E+03  0.00000000000E+00 0. -1.
         -5    1    3    3    0  503  0.44261599821E+02  0.25664271950E+02 -0.23808107405E+01  0.51434446951E+02  0.47000000000E+01 0.  1.
         11    1    4    4    0    0  0.35624815691E+02 -0.13852056000E+02  0.30930594145E+02  0.49170200352E+02  0.00000000000E+00 0. -1.
        -12    1    4    4    0    0 -0.28234134819E+01 -0.21238054748E+02  0.17781924888E+03  0.17910530954E+03  0.00000000000E+00 0.  1.
</event>
<event>
12    1  0.8728348E-002  0.1885943E+03  0.7818608E-02  0.1159951E+00
         21   -1    0    0  503  502  0.00000000000E+00  0.00000000000E+00  0.29254572605E+03  0.29254572605E+03  0.00000000000E+00 0. -1.
         21   -1    0    0  501  503 -0.00000000000E+00 -0.00000000000E+00 -0.17495464707E+03  0.17495464707E+03  0.00000000000E+00 0. -1.
          6    2    1    2  501    0 -0.14065783912E+02  0.73375360431E+02 -0.71150352929E+02  0.20068368335E+03  0.17213302485E+03 0.  0.
         24    2    3    3    0    0  0.44096480561E+02  0.87325303995E+02 -0.49769288172E+02  0.13699153419E+03  0.81972495866E+02 0.  0.
         -6    2    1    2    0  502  0.14065783912E+02 -0.73375360431E+02  0.18874143190E+03  0.26681668977E+03  0.17316474246E+03 0.  0.
        -24    2    5    5    0    0 -0.17975427311E+02  0.16762832064E+02  0.44283527425E+02  0.93491246953E+02  0.78584183713E+02 0.  0.
          5    1    3    3  501    0 -0.58162264473E+02 -0.13949943564E+02 -0.21381064757E+02  0.63692149157E+02  0.47000000000E+01 0. -1.
        -11    1    4    4    0    0  0.21341593538E+02 -0.67596001436E+01 -0.31245694441E+02  0.38437601771E+02  0.00000000000E+00 0.  1.
         12    1    4    4    0    0  0.22754887024E+02  0.94084904139E+02 -0.18523593731E+02  0.98553932418E+02  0.00000000000E+00 0. -1.
         -5    1    5    5    0  502  0.32041211224E+02 -0.90138192495E+02  0.14445790448E+03  0.17332544282E+03  0.47000000000E+01 0.  1.
         11    1    6    6    0    0  0.29356711386E+02  0.11008558642E+02  0.30777355038E+02  0.43934615623E+02  0.00000000000E+00 0. -1.
        -12    1    6    6    0    0 -0.47332138697E+02  0.57542734222E+01  0.13506172386E+02  0.49556631330E+02  0.00000000000E+00 0.  1.
</event>
<event>
12    1  0.8728348E-002  0.2058736E+03  0.7818608E-02  0.1146248E+00
         21   -1    0    0  501  502  0.00000000000E+00  0.00000000000E+00  0.46833113053E+02  0.46833113053E+02  0.00000000000E+00 0.  1.
         21   -1    0    0  502  503 -0.00000000000E+00 -0.00000000000E+00 -0.10399442062E+04  0.10399442062E+04  0.00000000000E+00 0.  1.
         -6    2    1    2    0  503 -0.76512379357E+02 -0.85481393162E+02 -0.27401945552E+03  0.33879556228E+03  0.16289431619E+03 0.  0.
        -24    2    3    3    0    0 -0.81594376228E+02  0.39642694747E+01 -0.17742254641E+03  0.20696458677E+03  0.68426767675E+02 0.  0.
          6    2    1    2  501    0  0.76512379357E+02  0.85481393162E+02 -0.71909163761E+03  0.74798175696E+03  0.17094651995E+03 0.  0.
         24    2    5    5    0    0  0.16045909793E+02 -0.14195689859E+02 -0.38459730067E+03  0.39372158947E+03  0.81502254569E+02 0.  0.
          5    1    5    5  501    0  0.60466469564E+02  0.99677083021E+02 -0.33449433695E+03  0.35426016749E+03  0.47000000000E+01 0. -1.
        -11    1    6    6    0    0  0.12371243832E+02  0.52715804402E+01 -0.62034047513E+01  0.14809438369E+02  0.00000000000E+00 0.  1.
         12    1    6    6    0    0  0.36746659611E+01 -0.19467270299E+02 -0.37839389592E+03  0.37891215110E+03  0.00000000000E+00 0. -1.
         -5    1    3    3    0  503  0.50819968715E+01 -0.89445662637E+02 -0.96596909104E+02  0.13183097551E+03  0.47000000000E+01 0.  1.
         13    1    4    4    0    0 -0.47464351134E+01  0.14743317287E+02 -0.26159820493E+01  0.15707877418E+02  0.00000000000E+00 0. -1.
        -14    1    4    4    0    0 -0.76847941115E+02 -0.10779047812E+02 -0.17480656437E+03  0.19125670935E+03  0.00000000000E+00 0.  1.
</event>
<event>
12    1  0.8728348E-002  0.3116494E+03  0.7818608E-02  0.1079796E+00
         21   -1    0    0  501  502  0.00000000000E+00  0.00000000000E+00  0.36962741663E+03  0.36962741663E+03  0.00000000000E+00 0. -1.
         21   -1    0    0  502  503 -0.00000000000E+00 -0.00000000000E+00 -0.73321779659E+03  0.73321779659E+03  0.00000000000E+00 0. -1.
         -6    2    1    2    0  503 -0.25950615156E+03 -0.87268970400E+01 -0.62407207852E+03  0.69667273957E+03  0.16872268801E+03 0.  0.
        -24    2    3    3    0    0 -0.22906999678E+03  0.47641788605E+02 -0.48485973288E+03  0.54335621920E+03  0.73513379296E+02 0.  0.
          6    2    1    2  501    0  0.25950615156E+03  0.87268970400E+01  0.26048169855E+03  0.40617247366E+03  0.17235359482E+03 0.  0.
         24    2    5    5    0    0  0.19932871044E+03  0.69400911163E+02  0.19315451649E+03  0.29727940751E+03  0.80733869072E+02 0.  0.
          5    1    5    5  501    0  0.60177441122E+02 -0.60674014123E+02  0.67327182064E+02  0.10889306614E+03  0.47000000000E+01 0. -1.
        -13    1    6    6    0    0 -0.47516361179E+01  0.85037740350E+01  0.21984928406E+02  0.24046398809E+02  0.00000000000E+00 0.  1.
         14    1    6    6    0    0  0.20408034655E+03  0.60897137128E+02  0.17116958808E+03  0.27323300870E+03  0.00000000000E+00 0. -1.
         -5    1    3    3    0  503 -0.30436154779E+02 -0.56368685645E+02 -0.13921234564E+03  0.15331652037E+03  0.47000000000E+01 0.  1.
         11    1    4    4    0    0 -0.75994199896E+02 -0.15294690588E+02 -0.12218000009E+03  0.14469622801E+03  0.00000000000E+00 0. -1.
        -12    1    4    4    0    0 -0.15307579688E+03  0.62936479193E+02 -0.36267973279E+03  0.39865999119E+03  0.00000000000E+00 0.  1.
</event>
<event>
12    1  0.8728348E-002  0.2354241E+03  0.7818608E-02  0.1123070E+00
         21   -1    0    0  501  502  0.00000000000E+00  0.00000000000E+00  0.13251282677E+04  0.13251282677E+04  0.00000000000E+00 0.  1.
         21   -1    0    0  502  503 -0.00000000000E+00 -0.00000000000E+00 -0.62388476293E+02  0.62388476293E+02  0.00000000000E+00 0.  1.
         -6    2    1    2    0  503  0.13042907444E+03  0.90280355435E+02  0.23017502699E+03  0.32845370548E+03  0.17245001465E+03 0.  0.
        -24    2    3    3    0    0  0.22597572686E+02 -0.79490515336E+01  0.57669739641E+02  0.10249615785E+03  0.81276231413E+02 0.  0.
          6    2    1    2  501    0 -0.13042907444E+03 -0.90280355435E+02  0.10325647644E+04  0.10590630385E+04  0.17396045758E+03 0.  0.
         24    2    5    5    0    0 -0.15934015502E+03 -0.98178942126E+02  0.90177528792E+03  0.92480129634E+03  0.83847350098E+02 0.  0.
          5    1    5    5  501    0  0.28911080579E+02  0.78985866911E+01  0.13078947649E+03  0.13426174218E+03  0.47000000000E+01 0. -1.
        -11    1    6    6    0    0 -0.75702462072E+02 -0.55834360336E+02  0.63726087269E+03  0.64416594013E+03  0.00000000000E+00 0.  1.
         12    1    6    6    0    0 -0.83637692951E+02 -0.42344581790E+02  0.26451441523E+03  0.28063535621E+03  0.00000000000E+00 0. -1.
         -5    1    3    3    0  503  0.10783150176E+03  0.98229406968E+02  0.17250528735E+03  0.22595754763E+03  0.47000000000E+01 0.  1.
         11    1    4    4    0    0  0.17116379641E+02  0.22210241000E+02  0.65163226610E+02  0.70940195654E+02  0.00000000000E+00 0. -1.
        -12    1    4    4    0    0  0.54811930451E+01 -0.30159292533E+02 -0.74934869686E+01  0.31555962198E+02  0.00000000000E+00 0.  1.
</event>
<event>
12    1  0.8728348E-002  0.2145508E+03  0.7818608E-02  0.1138510E+00
         21   -1    0    0  501  502  0.00000000000E+00  0.00000000000E+00  0.40724454442E+02  0.40724454442E+02  0.00000000000E+00 0.  1.
         21   -1    0    0  502  503 -0.00000000000E+00 -0.00000000000E+00 -0.18124812532E+04  0.18124812532E+04  0.00000000000E+00 0. -1.
         -6    2    1    2    0  503 -0.11646512509E+03  0.26918965043E+02 -0.14632173978E+04  0.14788634822E+04  0.17816646565E+03 0.  0.
        -24    2    3    3    0    0 -0.54912995895E+02  0.63692840344E+02 -0.48889758422E+03  0.50189768352E+03  0.76211690902E+02 0.  0.
          6    2    1    2  501    0  0.11646512509E+03 -0.26918965043E+02 -0.30853940091E+03  0.37434222547E+03  0.17506222842E+03 0.  0.
         24    2    5    5    0    0  0.66894813432E+02  0.45057102784E+02 -0.11243315146E+03  0.15959232161E+03  0.79520041460E+02 0.  0.
          5    1    5    5  501    0  0.49570311654E+02 -0.71976067827E+02 -0.19610624945E+03  0.21474990386E+03  0.47000000000E+01 0. -1.
        -11    1    6    6    0    0  0.44842909182E+02 -0.12522045702E+02 -0.25711810705E+02  0.53186326648E+02  0.00000000000E+00 0.  1.
         12    1    6    6    0    0  0.22051904249E+02  0.57579148486E+02 -0.86721340753E+02  0.10640599496E+03  0.00000000000E+00 0. -1.
         -5    1    3    3    0  503 -0.61552129190E+02 -0.36773875301E+02 -0.97431981362E+03  0.97696579864E+03  0.47000000000E+01 0.  1.
         11    1    4    4    0    0 -0.51430342642E+02  0.23648574837E+02 -0.14497962379E+03  0.15563876943E+03  0.00000000000E+00 0. -1.
        -12    1    4    4    0    0 -0.34826532531E+01  0.40044265507E+02 -0.34391796044E+03  0.34625891409E+03  0.00000000000E+00 0.  1.
</event>
<event>
12    1  0.8728348E-002  0.1793701E+03  0.7818608E-02  0.1168532E+00
         21   -1    0    0  501  502  0.00000000000E+00  0.00000000000E+00  0.56047740667E+03  0.56047740667E+03  0.00000000000E+00 0. -1.
         21   -1    0    0  502  503 -0.00000000000E+00 -0.00000000000E+00 -0.59102303864E+02  0.59102303864E+02  0.00000000000E+00 0. -1.
         -6    2    1    2    0  503 -0.41556837086E+02  0.34135376196E+02  0.30521670898E+03  0.35377573330E+03  0.17061018556E+03 0.  0.
        -24    2    3    3    0    0 -0.80467190875E+01 -0.18864024301E+02  0.70129667800E+02  0.11042440006E+03  0.82793578988E+02 0.  0.
          6    2    1    2  501    0  0.41556837086E+02 -0.34135376196E+02  0.19615839383E+03  0.26580397723E+03  0.17111821711E+03 0.  0.
         24    2    5    5    0    0  0.12701280103E+02 -0.64980860574E+02  0.50081246690E+02  0.11367012173E+03  0.77646188225E+02 0.  0.
          5    1    5    5  501    0  0.28855556983E+02  0.30845484378E+02  0.14607714714E+03  0.15213385551E+03  0.47000000000E+01 0. -1.
        -13    1    6    6    0    0 -0.26972562723E+02 -0.89970728742E+01 -0.47947598036E+00  0.28437587053E+02  0.00000000000E+00 0.  1.
         14    1    6    6    0    0  0.39673842826E+02 -0.55983787700E+02  0.50560722670E+02  0.85232534673E+02  0.00000000000E+00 0. -1.
         -5    1    3    3    0  503 -0.33510117998E+02  0.52999400497E+02  0.23508704118E+03  0.24335133324E+03  0.47000000000E+01 0.  1.
         11    1    4    4    0    0 -0.42345933864E+02  0.52383402557E+01  0.42459702671E+02  0.60195055232E+02  0.00000000000E+00 0. -1.
        -12    1    4    4    0    0  0.34299214776E+02 -0.24102364557E+02  0.27669965129E+02  0.50229344827E+02  0.00000000000E+00 0.  1.
</event>
<event>
12    1  0.8728348E-002  0.2043678E+03  0.7818608E-02  0.1146472E+00
         21   -1    0    0  501  502  0.00000000000E+00  0.00000000000E+00  0.39799629355E+03  0.39799629355E+03  0.00000000000E+00 0.  1.
         21   -1    0    0  502  503 -0.00000000000E+00 -0.00000000000E+00 -0.10711165823E+03  0.10711165823E+03  0.00000000000E+00 0. -1.
         -6    2    1    2    0  503 -0.10472473750E+03 -0.35205326401E+02  0.10322122453E+03  0.22895591929E+03  0.17192878216E+03 0.  0.
        -24    2    3    3    0    0 -0.35644341785E+02 -0.36462656639E+02 -0.10160290969E+02  0.96098326328E+02  0.80818391348E+02 0.  0.
          6    2    1    2  501    0  0.10472473750E+03  0.35205326401E+02  0.18766341079E+03  0.27615203249E+03  0.16981078779E+03 0.  0.
         24    2    5    5    0    0  0.10083494141E+03  0.62670006609E+02  0.78309960187E+02  0.16323743498E+03  0.80117383743E+02 0.  0.
          5    1    5    5  501    0  0.38897960855E+01 -0.27464680209E+02  0.10935345060E+03  0.11291459751E+03  0.47000000000E+01 0. -1.
        -13    1    6    6    0    0 -0.11380218965E+02 -0.40121417488E+01  0.11201398718E+02  0.16464446493E+02  0.00000000000E+00 0.  1.
         14    1    6    6    0    0  0.11221516038E+03  0.66682148358E+02  0.67108561469E+02  0.14677298849E+03  0.00000000000E+00 0. -1.
         -5    1    3    3    0  503 -0.69080395714E+02  0.12573302385E+01  0.11338151550E+03  0.13285759296E+03  0.47000000000E+01 0.  1.
         11    1    4    4    0    0  0.90146362353E+01  0.10600161560E+02  0.20150160423E+02  0.24487875707E+02  0.00000000000E+00 0. -1.
        -12    1    4    4    0    0 -0.44658978020E+02 -0.47062818199E+02 -0.30310451393E+02  0.71610450621E+02  0.00000000000E+00 0.  1.
</event>
<event>
12    1  0.8728348E-002  0.2301130E+03  0.7818608E-02  0.1129275E+00
         21   -1    0    0  501  502  0.00000000000E+00  0.00000000000E+00  0.84992676847E+03  0.84992676847E+03  0.00000000000E+00 0. -1.
         21   -1    0    0  502  503 -0.00000000000E+00 -0.00000000000E+00 -0.63601929365E+02  0.63601929365E+02  0.00000000000E+00 0.  1.
         -6    2    1    2    0  503 -0.60144463477E+02  0.11588129242E+03  0.53661081850E+03  0.58386914170E+03  0.18948924422E+03 0.  0.
        -24    2    3    3    0    0 -0.32637779508E+02  0.82196291305E+02  0.52516162049E+03  0.53865331374E+03  0.80815900736E+02 0.  0.
          6    2    1    2  501    0  0.60144463477E+02 -0.11588129242E+03  0.24971402061E+03  0.32965955614E+03  0.17109208178E+03 0.  0.
         24    2    5    5    0    0 -0.15606085885E+02 -0.94226188057E+02  0.99409542328E+02  0.15989320063E+03  0.81002802842E+02 0.  0.
          5    1    5    5  501    0  0.75750549362E+02 -0.21655104362E+02  0.15030447828E+03  0.16976635552E+03  0.47000000000E+01 0. -1.
        -11    1    6    6    0    0 -0.25383355655E+02 -0.10008773328E+03  0.61224703012E+02  0.12004304793E+03  0.00000000000E+00 0.  1.
         12    1    6    6    0    0  0.97772697701E+01  0.58615452197E+01  0.38184839316E+02  0.39850152699E+02  0.00000000000E+00 0. -1.
         -5    1    3    3    0  503 -0.27506683969E+02  0.33685001113E+02  0.11449198011E+02  0.45215827960E+02  0.47000000000E+01 0.  1.
         11    1    4    4    0    0 -0.50499106682E+02  0.80131306244E+02  0.49096521254E+03  0.50001802562E+03  0.00000000000E+00 0. -1.
        -12    1    4    4    0    0  0.17861327174E+02  0.20649850612E+01  0.34196407944E+02  0.38635288118E+02  0.00000000000E+00 0.  1.
</event>
<event>
12    1  0.8728348E-002  0.2027353E+03  0.7818608E-02  0.1148180E+00
         21   -1    0    0  501  502  0.00000000000E+00  0.00000000000E+00  0.37234346680E+03  0.37234346680E+03  0.00000000000E+00 0.  1.
         21   -1    0    0  502  503 -0.00000000000E+00 -0.00000000000E+00 -0.15632996980E+03  0.15632996980E+03  0.00000000000E+00 0.  1.
         -6    2    1    2    0  503  0.23167951582E+01 -0.10721382864E+03 -0.37555784997E+02  0.20618452618E+03  0.17205071710E+03 0.  0.
        -24    2    3    3    0    0 -0.42936614304E+02 -0.78443824566E+02 -0.72940287798E+02  0.14176607198E+03  0.82342863202E+02 0.  0.
          6    2    1    2  501    0 -0.23167951582E+01  0.10721382864E+03  0.25356928200E+03  0.32248891043E+03  0.16793315331E+03 0.  0.
         24    2    5    5    0    0  0.58845641891E+00  0.72397170872E+01  0.18389309407E+03  0.20050479411E+03  0.79578531226E+02 0.  0.
          5    1    5    5  501    0 -0.29052515771E+01  0.99974111556E+02  0.69676187934E+02  0.12198411632E+03  0.47000000000E+01 0. -1.
        -11    1    6    6    0    0 -0.38170219903E+02 -0.13813858895E+01  0.67921684689E+02  0.77924509401E+02  0.00000000000E+00 0.  1.
         12    1    6    6    0    0  0.38758676322E+02  0.86211029766E+01  0.11597140938E+03  0.12258028471E+03  0.00000000000E+00 0. -1.
         -5    1    3    3    0  503  0.45253409462E+02 -0.28770004078E+02  0.35384502801E+02  0.64418454197E+02  0.47000000000E+01 0.  1.
         11    1    4    4    0    0 -0.42669992624E+02 -0.76722983937E+02 -0.21616151315E+02  0.90412402536E+02  0.00000000000E+00 0. -1.
        -12    1    4    4    0    0 -0.26662168025E+00 -0.17208406286E+01 -0.51324136483E+02  0.51353669444E+02  0.00000000000E+00 0.  1.
</event>
<event>
12    1  0.8728348E-002  0.2063979E+03  0.7818608E-02  0.1144505E+00
         21   -1    0    0  501  502  0.00000000000E+00  0.00000000000E+00  0.50093043252E+03  0.50093043252E+03  0.00000000000E+00 0. -1.
         21   -1    0    0  502  503 -0.00000000000E+00 -0.00000000000E+00 -0.92850316295E+02  0.92850316295E+02  0.00000000000E+00 0.  1.
         -6    2    1    2    0  503  0.11322948145E+03  0.84788512563E+01  0.11721195561E+03  0.23712353853E+03  0.17203523941E+03 0.  0.
        -24    2    3    3    0    0  0.45623147140E+02  0.56890484603E+02  0.21608014552E+02  0.11033037536E+03  0.79924255646E+02 0.  0.
          6    2    1    2  501    0 -0.11322948145E+03 -0.84788512563E+01  0.29086816062E+03  0.35665721028E+03  0.17235797747E+03 0.  0.
         24    2    5    5    0    0 -0.14792582423E+03 -0.17959465955E+02  0.24938944213E+03  0.30155464823E+03  0.80842563850E+02 0.  0.
          5    1    5    5  501    0  0.34696342783E+02  0.94806146983E+01  0.41478718489E+02  0.55102562055E+02  0.47000000000E+01 0. -1.
        -13    1    6    6    0    0 -0.78712882411E+00 -0.21226417668E+02  0.21125825646E+02  0.29957985380E+02  0.00000000000E+00 0.  1.
         14    1    6    6    0    0 -0.14713869541E+03  0.32669517134E+01  0.22826361648E+03  0.27159666285E+03  0.00000000000E+00 0. -1.
         -5    1    3    3    0  503  0.67606334311E+02 -0.48411633346E+02  0.95603941057E+02  0.12679316317E+03  0.47000000000E+01 0.  1.
         11    1    4    4    0    0  0.61462736672E+02  0.61391396701E+02  0.51105335771E+01  0.87021199380E+02  0.00000000000E+00 0. -1.
        -12    1    4    4    0    0 -0.15839589532E+02 -0.45009120983E+01  0.16497480975E+02  0.23309175978E+02  0.00000000000E+00 0.  1.
</event>
<event>
12    1  0.8728348E-002  0.1848189E+03  0.7818608E-02  0.1164101E+00
         21   -1    0    0  501  502  0.00000000000E+00  0.00000000000E+00  0.41919971350E+02  0.41919971350E+02  0.00000000000E+00 0.  1.
         21   -1    0    0  502  503 -0.00000000000E+00 -0.00000000000E+00 -0.80199983124E+03  0.80199983124E+03  0.00000000000E+00 0. -1.
         -6    2    1    2    0  503 -0.63459374977E+02  0.30477232576E+02 -0.34822521548E+03  0.39249731079E+03  0.16684539042E+03 0.  0.
        -24    2    3    3    0    0  0.26123763964E+02  0.30267035721E+02 -0.20797538715E+03  0.22601221443E+03  0.78925375601E+02 0.  0.
          6    2    1    2  501    0  0.63459374977E+02 -0.30477232576E+02 -0.41185464442E+03  0.45142249181E+03  0.17088611413E+03 0.  0.
         24    2    5    5    0    0  0.64204652986E+02  0.10249047716E+02 -0.12806803209E+03  0.16468896276E+03  0.80583826954E+02 0.  0.
          5    1    5    5  501    0 -0.74527800941E+00 -0.40726280292E+02 -0.28378661232E+03  0.28673352905E+03  0.47000000000E+01 0. -1.
        -13    1    6    6    0    0  0.13059273101E+02  0.38469728478E+02 -0.77171241418E+02  0.87211611183E+02  0.00000000000E+00 0.  1.
         14    1    6    6    0    0  0.51145379886E+02 -0.28220680763E+02 -0.50896790677E+02  0.77477351578E+02  0.00000000000E+00 0. -1.
         -5    1    3    3    0  503 -0.89583138940E+02  0.21019685552E+00 -0.14024982832E+03  0.16648509636E+03  0.47000000000E+01 0.  1.
         11    1    4    4    0    0  0.34065275964E+02  0.39718667877E+01 -0.28919027840E+02  0.44861218480E+02  0.00000000000E+00 0. -1.
        -12    1    4    4    0    0 -0.79415120008E+01  0.26295168933E+02 -0.17905635931E+03  0.18115099595E+03  0.00000000000E+00 0.  1.
</event>
<event>
12    1  0.8728348E-002  0.1849411E+03  0.7818608E-02  0.1164108E+00
         21   -1    0    0  503  502  0.00000000000E+00  0.00000000000E+00  0.16595955029E+03  0.16595955029E+03  0.00000000000E+00 0. -1.
         21   -1    0    0  501  503 -0.00000000000E+00 -0.00000000000E+00 -0.59487176366E+03  0.59487176366E+03  0.00000000000E+00 0. -1.
          6    2    1    2  501    0  0.20478442530E+00  0.59409936586E+02 -0.52468053108E+03  0.55632084568E+03  0.17513891954E+03 0.  0.
         24    2    3    3    0    0  0.22845831079E+02  0.74081634250E+02 -0.18833526422E+03  0.21886254566E+03  0.80128781448E+02 0.  0.
         -6    2    1    2    0  502 -0.20478442530E+00 -0.59409936586E+02  0.95768317712E+02  0.20451046827E+03  0.17065573080E+03 0.  0.
        -24    2    5    5    0    0 -0.33922907215E+02 -0.54949896661E+02  0.12212981277E+03  0.16122280049E+03  0.83107433206E+02 0.  0.
          5    1    3    3  501    0 -0.22641046654E+02 -0.14671697664E+02 -0.33634526687E+03  0.33745830001E+03  0.47000000000E+01 0. -1.
        -13    1    4    4    0    0  0.34466629376E+02  0.10092016000E+02 -0.11673465920E+03  0.12213426213E+03  0.00000000000E+00 0.  1.
         14    1    4    4    0    0 -0.11620798297E+02  0.63989618250E+02 -0.71600605017E+02  0.96728283535E+02  0.00000000000E+00 0. -1.
         -5    1    5    5    0  502  0.33718122789E+02 -0.44600399246E+01 -0.26361495056E+02  0.43287667784E+02  0.47000000000E+01 0. -1.
         13    1    6    6    0    0  0.14043923587E+02 -0.31939894844E+02  0.87342001306E+01  0.35967692785E+02  0.00000000000E+00 0. -1.
        -14    1    6    6    0    0 -0.47966830802E+02 -0.23010001818E+02  0.11339561264E+03  0.12525510770E+03  0.00000000000E+00 0.  1.
</event>
<event>
12    1  0.8728348E-002  0.1953130E+03  0.7818608E-02  0.1153851E+00
         21   -1    0    0  501  502  0.00000000000E+00  0.00000000000E+00  0.49397958867E+03  0.49397958867E+03  0.00000000000E+00 0.  1.
         21   -1    0    0  502  503 -0.00000000000E+00 -0.00000000000E+00 -0.77631427510E+02  0.77631427510E+02  0.00000000000E+00 0.  1.
         -6    2    1    2    0  503  0.92877591184E+02 -0.80056898685E+01  0.18320659911E+03  0.26746936559E+03  0.17112821379E+03 0.  0.
        -24    2    3    3    0    0  0.26143118186E+02  0.15170015068E+02  0.16979967226E+03  0.19541078613E+03  0.91868681560E+02 0.  0.
          6    2    1    2  501    0 -0.92877591184E+02  0.80056898685E+01  0.23314156205E+03  0.30414165059E+03  0.17162988568E+03 0.  0.
         24    2    5    5    0    0 -0.46527485600E+02 -0.32526904277E+02  0.22031734621E+03  0.24107205421E+03  0.79706937368E+02 0.  0.
          5    1    5    5  501    0 -0.46350105583E+02  0.40532594146E+02  0.12824215841E+02  0.63069596381E+02  0.47000000000E+01 0. -1.
        -13    1    6    6    0    0 -0.52853932770E+02 -0.15443322581E+02  0.67216894374E+02  0.86891572152E+02  0.00000000000E+00 0.  1.
         14    1    6    6    0    0  0.63264471703E+01 -0.17083581696E+02  0.15310045183E+03  0.15418048206E+03  0.00000000000E+00 0. -1.
         -5    1    3    3    0  503  0.66734472997E+02 -0.23175704937E+02  0.13406926856E+02  0.72058579456E+02  0.47000000000E+01 0.  1.
         13    1    4    4    0    0  0.20246670064E+02  0.25475220856E+01  0.17805250068E+03  0.17921805299E+03  0.00000000000E+00 0. -1.
        -14    1    4    4    0    0  0.58964481224E+01  0.12622492983E+02 -0.82528284261E+01  0.16192733141E+02  0.00000000000E+00 0.  1.
</event>
<event>
12    1  0.8728348E-002  0.1876999E+03  0.7818608E-02  0.1160587E+00
         21   -1    0    0  501  502  0.00000000000E+00  0.00000000000E+00  0.21131479351E+03  0.21131479351E+03  0.00000000000E+00 0.  1.
         21   -1    0    0  502  503 -0.00000000000E+00 -0.00000000000E+00 -0.17047203368E+03  0.17047203368E+03  0.00000000000E+00 0.  1.
         -6    2    1    2    0  503  0.57403243584E+02 -0.48922820607E+02 -0.83786534118E+01  0.18788677259E+03  0.17187979151E+03 0.  0.
        -24    2    3    3    0    0 -0.28640296623E+02 -0.57117137852E+02 -0.91408367514E+01  0.10132287382E+03  0.78103366348E+02 0.  0.
          6    2    1    2  501    0 -0.57403243584E+02  0.48922820607E+02  0.49221413237E+02  0.19390005461E+03  0.17171461471E+03 0.  0.
         24    2    5    5    0    0 -0.57147634130E+02 -0.32378421232E+02  0.42068100648E+02  0.11214910879E+03  0.80582152257E+02 0.  0.
          5    1    5    5  501    0 -0.25560945453E+00  0.81301241840E+02  0.71533125890E+01  0.81750945816E+02  0.47000000000E+01 0. -1.
        -13    1    6    6    0    0 -0.69891015706E+02 -0.35472816766E+02  0.11928602080E+02  0.79280302430E+02  0.00000000000E+00 0.  1.
         14    1    6    6    0    0  0.12743381576E+02  0.30943955336E+01  0.30139498568E+02  0.32868806361E+02  0.00000000000E+00 0. -1.
         -5    1    3    3    0  503  0.86043540208E+02  0.81943172447E+01  0.76218333955E+00  0.86563898769E+02  0.47000000000E+01 0.  1.
         13    1    4    4    0    0  0.15077966654E+02  0.98630761972E+01  0.76836374008E+01  0.19587333514E+02  0.00000000000E+00 0. -1.
        -14    1    4    4    0    0 -0.43718263277E+02 -0.66980214049E+02 -0.16824474152E+02  0.81735540302E+02  0.00000000000E+00 0.  1.
</event>
<event>
12    1  0.8728348E-002  0.2090518E+03  0.7818608E-02  0.1142331E+00
         21   -1    0    0  501  502  0.00000000000E+00  0.00000000000E+00  0.22463145153E+03  0.22463145153E+03  0.00000000000E+00 0.  1.
         21   -1    0    0  502  503 -0.00000000000E+00 -0.00000000000E+00 -0.21130723026E+03  0.21130723026E+03  0.00000000000E+00 0.  1.
         -6    2    1    2    0  503 -0.10689086378E+03  0.53087085745E+02 -0.54812985214E+02  0.21611833296E+03  0.17163558797E+03 0.  0.
        -24    2    3    3    0    0 -0.53038579614E+02 -0.14319520107E+02  0.23803324775E+02  0.99300811928E+02  0.79220662681E+02 0.  0.
          6    2    1    2  501    0  0.10689086378E+03 -0.53087085745E+02  0.68137206490E+02  0.21982034883E+03  0.17156459839E+03 0.  0.
         24    2    5    5    0    0  0.47160497121E+02 -0.28486650805E+02  0.10605955211E+03  0.14476641890E+03  0.81688956935E+02 0.  0.
          5    1    5    5  501    0  0.59730366662E+02 -0.24600434940E+02 -0.37922345621E+02  0.75053929932E+02  0.47000000000E+01 0. -1.
        -13    1    6    6    0    0  0.35733946673E+02 -0.57300591057E+02  0.73429665174E+02  0.99760655610E+02  0.00000000000E+00 0.  1.
         14    1    6    6    0    0  0.11426550448E+02  0.28813940252E+02  0.32629886937E+02  0.45005763292E+02  0.00000000000E+00 0. -1.
         -5    1    3    3    0  503 -0.53852284169E+02  0.67406605852E+02 -0.78616309989E+02  0.11681752103E+03  0.47000000000E+01 0.  1.
         11    1    4    4    0    0 -0.58738500458E+02 -0.32903112594E+02  0.36006320930E+02  0.76349730853E+02  0.00000000000E+00 0. -1.
        -12    1    4    4    0    0  0.56999208439E+01  0.18583592487E+02 -0.12202996155E+02  0.22951081075E+02  0.00000000000E+00 0.  1.
</event>
<event>
12    1  0.8728348E-002  0.1813104E+03  0.7818608E-02  0.1166753E+00
         21   -1    0    0  503  502  0.00000000000E+00  0.00000000000E+00  0.29989939477E+03  0.29989939477E+03  0.00000000000E+00 0.  1.
         21   -1    0    0  501  503 -0.00000000000E+00 -0.00000000000E+00 -0.16130702772E+03  0.16130702772E+03  0.00000000000E+00 0.  1.
          6    2    1    2  501    0 -0.53788808164E+02 -0.12886724492E+02 -0.61801684775E+02  0.19155391225E+03  0.17266774309E+03 0.  0.
         24    2    3    3    0    0 -0.86368430021E+02 -0.48277597510E+02 -0.21211982621E+02  0.12843846585E+03  0.79096518107E+02 0.  0.
         -6    2    1    2    0  502  0.53788808164E+02  0.12886724492E+02  0.20039405183E+03  0.26965251024E+03  0.17174223918E+03 0.  0.
        -24    2    5    5    0    0  0.78633170484E+01 -0.32433967984E+02  0.38535673440E+02  0.95344333279E+02  0.80571395213E+02 0.  0.
          5    1    3    3  501    0  0.32579621857E+02  0.35390873018E+02 -0.40589702154E+02  0.63115446400E+02  0.47000000000E+01 0. -1.
        -11    1    4    4    0    0 -0.49112610542E+02 -0.43666904719E+02  0.23738550903E+02  0.69873928478E+02  0.00000000000E+00 0.  1.
         12    1    4    4    0    0 -0.37255819480E+02 -0.46106927907E+01 -0.44950533524E+02  0.58564537368E+02  0.00000000000E+00 0. -1.
         -5    1    5    5    0  502  0.45925491116E+02  0.45320692477E+02  0.16185837839E+03  0.17430817696E+03  0.47000000000E+01 0.  1.
         11    1    6    6    0    0 -0.35492589139E+01 -0.46347098823E+02  0.54259473278E+02  0.71447471954E+02  0.00000000000E+00 0. -1.
        -12    1    6    6    0    0  0.11412575962E+02  0.13913130838E+02 -0.15723799838E+02  0.23896861325E+02  0.00000000000E+00 0.  1.
</event>
<event>
12    1  0.8728348E-002  0.2225790E+03  0.7818608E-02  0.1132039E+00
         21   -1    0    0  503  502  0.00000000000E+00  0.00000000000E+00  0.24436968555E+03  0.24436968555E+03  0.00000000000E+00 0.  1.
         21   -1    0    0  501  503 -0.00000000000E+00 -0.00000000000E+00 -0.21233073683E+03  0.21233073683E+03  0.00000000000E+00 0.  1.
          6    2    1    2  501    0 -0.10949175691E+03 -0.89603721012E+02  0.65380891183E+02  0.23198294581E+03  0.17182594264E+03 0.  0.
         24    2    3    3    0    0 -0.11914634072E+03 -0.74952080126E+02 -0.21598227126E+01  0.16204211652E+03  0.80245360425E+02 0.  0.
         -6    2    1    2    0  502  0.10949175691E+03  0.89603721012E+02 -0.33341942459E+02  0.22471747657E+03  0.17137382384E+03 0.  0.
        -24    2    5    5    0    0  0.55954519253E+02 -0.17501926792E+02 -0.33195668981E+02  0.10488439682E+03  0.80383820450E+02 0.  0.
          5    1    3    3  501    0  0.96545838048E+01 -0.14651640886E+02  0.67540713896E+02  0.69940829296E+02  0.47000000000E+01 0. -1.
        -13    1    4    4    0    0 -0.57732028102E+02 -0.31607500512E+02 -0.40885878022E+02  0.77483392924E+02  0.00000000000E+00 0.  1.
         14    1    4    4    0    0 -0.61414312614E+02 -0.43344579614E+02  0.38726055309E+02  0.84558723592E+02  0.00000000000E+00 0. -1.
         -5    1    5    5    0  502  0.53537237658E+02  0.10710564780E+03 -0.14627347804E+00  0.11983307976E+03  0.47000000000E+01 0.  1.
         11    1    6    6    0    0  0.72961422092E+00  0.14887856226E+02 -0.37863565897E+02  0.40691893816E+02  0.00000000000E+00 0. -1.
        -12    1    6    6    0    0  0.55224905032E+02 -0.32389783018E+02  0.46678969165E+01  0.64192503000E+02  0.00000000000E+00 0.  1.
</event>
<event>
12    1  0.8728348E-002  0.1901769E+03  0.7818608E-02  0.1158550E+00
         21   -1    0    0  503  502  0.00000000000E+00  0.00000000000E+00  0.13864181898E+04  0.13864181898E+04  0.00000000000E+00 0.  1.
         21   -1    0    0  501  503 -0.00000000000E+00 -0.00000000000E+00 -0.60400024979E+02  0.60400024979E+02  0.00000000000E+00 0.  1.
          6    2    1    2  501    0  0.32053220922E+02 -0.73330972265E+02  0.11738966001E+03  0.22348959302E+03  0.17251789891E+03 0.  0.
         24    2    3    3    0    0  0.35063198188E+02 -0.48790370810E+02 -0.95863066159E+01  0.94043514734E+02  0.71710231055E+02 0.  0.
         -6    2    1    2    0  502 -0.32053220922E+02  0.73330972265E+02  0.12086285048E+04  0.12233286218E+04  0.17130444744E+03 0.  0.
        -24    2    5    5    0    0  0.22619178797E+01  0.10468168154E+03  0.10416854482E+04  0.10499721397E+04  0.79809463287E+02 0.  0.
          5    1    3    3  501    0 -0.30099772662E+01 -0.24540601455E+02  0.12697596662E+03  0.12944607828E+03  0.47000000000E+01 0. -1.
        -11    1    4    4    0    0  0.10747681666E+02 -0.22209148410E+02  0.31101213331E+02  0.39699425751E+02  0.00000000000E+00 0.  1.
         12    1    4    4    0    0  0.24315516522E+02 -0.26581222400E+02 -0.40687519946E+02  0.54344088983E+02  0.00000000000E+00 0. -1.
         -5    1    5    5    0  502 -0.34315138802E+02 -0.31350709271E+02  0.16694305666E+03  0.17335648211E+03  0.47000000000E+01 0.  1.
         13    1    6    6    0    0 -0.14474498330E+02 -0.55503406570E+01  0.59799214314E+02  0.61775912910E+02  0.00000000000E+00 0. -1.
        -14    1    6    6    0    0  0.16736416210E+02  0.11023202219E+03  0.98188623384E+03  0.98819622675E+03  0.00000000000E+00 0.  1.
</event>
<event>
12    1  0.8728348E-002  0.1841971E+03  0.7818608E-02  0.1165583E+00
         21   -1    0    0  501  502  0.00000000000E+00  0.00000000000E+00  0.16053128239E+03  0.16053128239E+03  0.00000000000E+00 0.  1.
         21   -1    0    0  502  503 -0.00000000000E+00 -0.00000000000E+00 -0.42027058015E+03  0.42027058015E+03  0.00000000000E+00 0.  1.
         -6    2    1    2    0  503 -0.58569343397E+02 -0.31697617548E+02 -0.33997688373E+03  0.38666890038E+03  0.17173657184E+03 0.  0.
        -24    2    3    3    0    0 -0.94415415861E+02  0.11629652600E+02 -0.19448156354E+03  0.23061387340E+03  0.79436518523E+02 0.  0.
          6    2    1    2  501    0  0.58569343397E+02  0.31697617548E+02  0.80237585969E+02  0.19413296216E+03  0.16375112168E+03 0.  0.
         24    2    5    5    0    0  0.16025229175E+02  0.68787570614E+02  0.87115911301E+02  0.13707976214E+03  0.78823482198E+02 0.  0.
          5    1    5    5  501    0  0.42544114222E+02 -0.37089953066E+02 -0.68783253322E+01  0.57053200022E+02  0.47000000000E+01 0. -1.
        -11    1    6    6    0    0  0.35888018102E+02  0.69883982913E+02  0.86953171793E+02  0.11718606997E+03  0.00000000000E+00 0.  1.
         12    1    6    6    0    0 -0.19862788927E+02 -0.10964122994E+01  0.16273950771E+00  0.19893692167E+02  0.00000000000E+00 0. -1.
         -5    1    3    3    0  503  0.35846072464E+02 -0.43327270148E+02 -0.14549532019E+03  0.15605502698E+03  0.47000000000E+01 0.  1.
         11    1    4    4    0    0 -0.42649574854E+02  0.38161286749E+02 -0.54505272718E+02  0.79032238964E+02  0.00000000000E+00 0. -1.
        -12    1    4    4    0    0 -0.51765841008E+02 -0.26531634149E+02 -0.13997629082E+03  0.15158163443E+03  0.00000000000E+00 0.  1.
</event>
<event>
12    1  0.8728348E-002  0.3489521E+03  0.7818608E-02  0.1063273E+00
         21   -1    0    0  503  502  0.00000000000E+00  0.00000000000E+00  0.17714680913E+04  0.17714680913E+04  0.00000000000E+00 0. -1.
         21   -1    0    0  501  503 -0.00000000000E+00 -0.00000000000E+00 -0.71758113093E+02  0.71758113093E+02  0.00000000000E+00 0. -1.
          6    2    1    2  501    0 -0.27980489633E+03  0.10807706665E+03  0.10545612571E+04  0.11107956738E+04  0.17831475432E+03 0.  0.
         24    2    3    3    0    0 -0.18410041069E+03  0.58282514978E+02  0.87952195214E+03  0.90512677915E+03  0.91683200541E+02 0.  0.
         -6    2    1    2    0  502  0.27980489633E+03 -0.10807706665E+03  0.64514872103E+03  0.73243053052E+03  0.17397177196E+03 0.  0.
        -24    2    5    5    0    0  0.25309950286E+03 -0.14161501957E+03  0.52898438932E+03  0.60851840727E+03  0.79724498912E+02 0.  0.
          5    1    3    3  501    0 -0.95704485647E+02  0.49794551675E+02  0.17503930500E+03  0.20566889469E+03  0.47000000000E+01 0. -1.
        -13    1    4    4    0    0 -0.23815959876E+02  0.26945420733E+02  0.32703135944E+03  0.32900268343E+03  0.00000000000E+00 0.  1.
         14    1    4    4    0    0 -0.16028445081E+03  0.31337094244E+02  0.55249059270E+03  0.57612409572E+03  0.00000000000E+00 0. -1.
         -5    1    5    5    0  502  0.26705393478E+02  0.33537952916E+02  0.11616433171E+03  0.12391212325E+03  0.47000000000E+01 0.  1.
         11    1    6    6    0    0  0.17276798874E+03 -0.52584570103E+02  0.30507208615E+03  0.35451783128E+03  0.00000000000E+00 0. -1.
        -12    1    6    6    0    0  0.80331514113E+02 -0.89030449465E+02  0.22391230317E+03  0.25400057599E+03  0.00000000000E+00 0.  1.
</event>
<event>
12    1  0.8728348E-002  0.1949490E+03  0.7818608E-02  0.1154188E+00
         21   -1    0    0  501  502  0.00000000000E+00  0.00000000000E+00  0.16465514949E+04  0.16465514949E+04  0.00000000000E+00 0.  1.
         21   -1    0    0  502  503 -0.00000000000E+00 -0.00000000000E+00 -0.32477074965E+02  0.32477074965E+02  0.00000000000E+00 0.  1.
         -6    2    1    2    0  503  0.26645406302E+02  0.89179249253E+02  0.35476627283E+03  0.40480146199E+03  0.17129564826E+03 0.  0.
        -24    2    3    3    0    0  0.46030354545E+02  0.78658454466E+02  0.36105196110E+03  0.38139071193E+03  0.82428214396E+02 0.  0.
          6    2    1    2  501    0 -0.26645406302E+02 -0.89179249253E+02  0.12593081471E+04  0.12742271079E+04  0.17068918218E+03 0.  0.
         24    2    5    5    0    0 -0.65114421059E+02 -0.73676580116E+02  0.66716822567E+03  0.68061783032E+03  0.91973166293E+02 0.  0.
          5    1    5    5  501    0  0.38469014757E+02 -0.15502669137E+02  0.59213992146E+03  0.59360927758E+03  0.47000000000E+01 0. -1.
        -11    1    6    6    0    0  0.77272370585E+00 -0.66609959275E+02  0.38924928062E+03  0.39490819976E+03  0.00000000000E+00 0.  1.
         12    1    6    6    0    0 -0.65887144764E+02 -0.70666208408E+01  0.27791894505E+03  0.28570963056E+03  0.00000000000E+00 0. -1.
         -5    1    3    3    0  503 -0.19384948244E+02  0.10520794787E+02 -0.62856882722E+01  0.23410750061E+02  0.47000000000E+01 0.  1.
         13    1    4    4    0    0  0.45312597266E+02  0.33891055084E+01  0.17209642865E+03  0.17799409614E+03  0.00000000000E+00 0. -1.
        -14    1    4    4    0    0  0.71775727967E+00  0.75269348958E+02  0.18895553246E+03  0.20339661579E+03  0.00000000000E+00 0.  1.
</event>
<event>
12    1  0.8728348E-002  0.2058705E+03  0.7818608E-02  0.1144989E+00
         21   -1    0    0  503  502  0.00000000000E+00  0.00000000000E+00  0.74490858709E+03  0.74490858709E+03  0.00000000000E+00 0. -1.
         21   -1    0    0  501  503 -0.00000000000E+00 -0.00000000000E+00 -0.63328453207E+02  0.63328453207E+02  0.00000000000E+00 0. -1.
          6    2    1    2  501    0 -0.11050651449E+03 -0.16970522169E+02  0.21010036294E+03  0.29377049445E+03  0.17221861843E+03 0.  0.
         24    2    3    3    0    0 -0.82125976341E+02 -0.61941365795E+01  0.22986495846E+03  0.25724222227E+03  0.80948245661E+02 0.  0.
         -6    2    1    2    0  502  0.11050651449E+03  0.16970522169E+02  0.47147977094E+03  0.51446654585E+03  0.17286689683E+03 0.  0.
        -24    2    5    5    0    0  0.11062786448E+03  0.47143411702E+02  0.45904474365E+03  0.48149477167E+03  0.81572745492E+02 0.  0.
          5    1    3    3  501    0 -0.28380538149E+02 -0.10776385589E+02 -0.19764595521E+02  0.36528272175E+02  0.47000000000E+01 0. -1.
        -11    1    4    4    0    0  0.11902302571E+02 -0.11380375341E+02  0.13577988809E+02  0.21343372028E+02  0.00000000000E+00 0.  1.
         12    1    4    4    0    0 -0.94028278912E+02  0.51862387615E+01  0.21628696965E+03  0.23589885025E+03  0.00000000000E+00 0. -1.
         -5    1    5    5    0  502 -0.12134998643E+00 -0.30172889534E+02  0.12435027296E+02  0.32971774179E+02  0.47000000000E+01 0.  1.
         11    1    6    6    0    0  0.37190518797E+02  0.69856717141E+01  0.29414231526E+03  0.29656641065E+03  0.00000000000E+00 0. -1.
        -12    1    6    6    0    0  0.73437345680E+02  0.40157739988E+02  0.16490242839E+03  0.18492836102E+03  0.00000000000E+00 0.  1.
</event>
<event>
12    1  0.8728348E-002  0.2134725E+03  0.7818608E-02  0.1139156E+00
         21   -1    0    0  501  502  0.00000000000E+00  0.00000000000E+00  0.36989683693E+02  0.36989683693E+02  0.00000000000E+00 0.  1.
         21   -1    0    0  502  503 -0.00000000000E+00 -0.00000000000E+00 -0.15279114258E+04  0.15279114258E+04  0.00000000000E+00 0.  1.
         -6    2    1    2    0  503 -0.80288104791E+02 -0.92441393612E+02 -0.10973654430E+04  0.11179362376E+04  0.17486830677E+03 0.  0.
        -24    2    3    3    0    0  0.14819706480E+02 -0.70114703940E+02 -0.47902744457E+03  0.49191072119E+03  0.85867162277E+02 0.  0.
          6    2    1    2  501    0  0.80288104791E+02  0.92441393612E+02 -0.39355629906E+03  0.44696487189E+03  0.17291456028E+03 0.  0.
         24    2    5    5    0    0  0.90054915320E+02  0.77033543547E+00 -0.22954403667E+03  0.25875996838E+03  0.78458748861E+02 0.  0.
          5    1    5    5  501    0 -0.97668105290E+01  0.91671058176E+02 -0.16401226238E+03  0.18820490352E+03  0.47000000000E+01 0. -1.
        -11    1    6    6    0    0  0.76956708122E+02  0.28887112156E+02 -0.12414747747E+03  0.14889390967E+03  0.00000000000E+00 0.  1.
         12    1    6    6    0    0  0.13098207199E+02 -0.28116776721E+02 -0.10539655920E+03  0.10986605871E+03  0.00000000000E+00 0. -1.
         -5    1    3    3    0  503 -0.95107811271E+02 -0.22326689671E+02 -0.61833799847E+03  0.62602551640E+03  0.47000000000E+01 0.  1.
         11    1    4    4    0    0  0.16086677342E+02 -0.68594241404E+02 -0.18631276716E+03  0.19918935300E+03  0.00000000000E+00 0. -1.
        -12    1    4    4    0    0 -0.12669708619E+01 -0.15204625362E+01 -0.29271467741E+03  0.29272136818E+03  0.00000000000E+00 0.  1.
</event>
<event>
12    1  0.8728348E-002  0.2317497E+03  0.7818608E-02  0.1126244E+00
         21   -1    0    0  501  502  0.00000000000E+00  0.00000000000E+00  0.31030792795E+03  0.31030792795E+03  0.00000000000E+00 0.  1.
         21   -1    0    0  502  503 -0.00000000000E+00 -0.00000000000E+00 -0.19206781544E+03  0.19206781544E+03  0.00000000000E+00 0. -1.
         -6    2    1    2    0  503 -0.45441614327E+02 -0.14850119457E+03 -0.27359258588E+02  0.22868408905E+03  0.16562106886E+03 0.  0.
        -24    2    3    3    0    0 -0.83941966206E+02 -0.64079199390E+02 -0.31880555144E+02  0.13566859309E+03  0.78975944882E+02 0.  0.
          6    2    1    2  501    0  0.45441614327E+02  0.14850119457E+03  0.14559937110E+03  0.27369165434E+03  0.17201860273E+03 0.  0.
         24    2    5    5    0    0  0.89145266225E+02  0.83780958906E+02  0.60374652339E+02  0.15800215273E+03  0.79708556987E+02 0.  0.
          5    1    5    5  501    0 -0.43703651898E+02  0.64720235667E+02  0.85224718759E+02  0.11568950160E+03  0.47000000000E+01 0. -1.
        -13    1    6    6    0    0 -0.80948932602E+01  0.13544239767E+02  0.30568946882E+02  0.34401079071E+02  0.00000000000E+00 0.  1.
         14    1    6    6    0    0  0.97240159485E+02  0.70236719139E+02  0.29805705457E+02  0.12360107366E+03  0.00000000000E+00 0. -1.
         -5    1    3    3    0  503  0.38500351879E+02 -0.84421995184E+02  0.45212965552E+01  0.93015495957E+02  0.47000000000E+01 0.  1.
         11    1    4    4    0    0 -0.83067807586E+01 -0.42822936439E+02 -0.36628257995E+02  0.56959948873E+02  0.00000000000E+00 0. -1.
        -12    1    4    4    0    0 -0.75635185448E+02 -0.21256262951E+02  0.47477028517E+01  0.78708644218E+02  0.00000000000E+00 0.  1.
</event>
<event>
12    1  0.8728348E-002  0.1734607E+03  0.7818608E-02  0.1174323E+00
         21   -1    0    0  503  502  0.00000000000E+00  0.00000000000E+00  0.11023865410E+03  0.11023865410E+03  0.00000000000E+00 0.  1.
         21   -1    0    0  501  503 -0.00000000000E+00 -0.00000000000E+00 -0.33145024013E+03  0.33145024013E+03  0.00000000000E+00 0.  1.
          6    2    1    2  501    0 -0.70360469411E+01 -0.21417893495E+02 -0.20361023422E+03  0.26748036662E+03  0.17198949657E+03 0.  0.
         24    2    3    3    0    0  0.12873620382E+02  0.24898004156E+02 -0.20304041320E+03  0.21684468825E+03  0.70785370768E+02 0.  0.
         -6    2    1    2    0  502  0.70360469411E+01  0.21417893495E+02 -0.17601351802E+02  0.17420852761E+03  0.17184461408E+03 0.  0.
        -24    2    5    5    0    0 -0.91461025336E-01  0.15714311645E+02 -0.77261160572E+02  0.11367163804E+03  0.81884103506E+02 0.  0.
          5    1    3    3  501    0 -0.19909667323E+02 -0.46315897650E+02 -0.56982101669E+00  0.50635678371E+02  0.47000000000E+01 0. -1.
        -11    1    4    4    0    0 -0.20572493206E+02 -0.13845304175E+02 -0.59975226228E+02  0.64899519917E+02  0.00000000000E+00 0.  1.
         12    1    4    4    0    0  0.33446113588E+02  0.38743308331E+02 -0.14306518698E+03  0.15194516833E+03  0.00000000000E+00 0. -1.
         -5    1    5    5    0  502  0.71275079664E+01  0.57035818492E+01  0.59659808770E+02  0.60536889565E+02  0.47000000000E+01 0.  1.
         13    1    6    6    0    0 -0.39256955361E+02  0.19219086864E+02 -0.45829872358E+02  0.63331343302E+02  0.00000000000E+00 0. -1.
        -14    1    6    6    0    0  0.39165494336E+02 -0.35047752186E+01 -0.31431288215E+02  0.50340294742E+02  0.00000000000E+00 0.  1.
</event>
<event>
12    1  0.8728348E-002  0.1930373E+03  0.7818608E-02  0.1159134E+00
         21   -1    0    0  503  502  0.00000000000E+00  0.00000000000E+00  0.23309201459E+02  0.23309201459E+02  0.00000000000E+00 0. -1.
         21   -1    0    0  501  503 -0.00000000000E+00 -0.00000000000E+00 -0.15106928306E+04  0.15106928306E+04  0.00000000000E+00 0. -1.
          6    2    1    2  501    0 -0.78808091332E+02  0.48849398758E+02 -0.66210882555E+03  0.68967490760E+03  0.16931155391E+03 0.  0.
         24    2    3    3    0    0 -0.70496579880E+02 -0.32264963572E+02 -0.38330016051E+03  0.39914955123E+03  0.79940950366E+02 0.  0.
         -6    2    1    2    0  502  0.78808091332E+02 -0.48849398758E+02 -0.82527480359E+03  0.84432712445E+03  0.15235751583E+03 0.  0.
        -24    2    5    5    0    0  0.55388195360E+02 -0.39776512388E+02 -0.80448893154E+03  0.81138852595E+03  0.80615606135E+02 0.  0.
          5    1    3    3  501    0 -0.83115114521E+01  0.81114362330E+02 -0.27880866504E+03  0.29052535638E+03  0.47000000000E+01 0. -1.
        -11    1    4    4    0    0 -0.22714590842E+02 -0.32911864972E+02 -0.30359274052E+03  0.30621511326E+03  0.00000000000E+00 0.  1.
         12    1    4    4    0    0 -0.47781989038E+02  0.64690139926E+00 -0.79707419992E+02  0.92934437964E+02  0.00000000000E+00 0. -1.
         -5    1    5    5    0  502  0.23419895972E+02 -0.90728863701E+01 -0.20785872051E+02  0.32938598503E+02  0.47000000000E+01 0.  1.
         11    1    6    6    0    0  0.24927704106E+02 -0.36545730828E+02 -0.15531160527E+03  0.16148893338E+03  0.00000000000E+00 0. -1.
        -12    1    6    6    0    0  0.30460491254E+02 -0.32307815596E+01 -0.64917732627E+03  0.64989959257E+03  0.00000000000E+00 0.  1.
</event>
<event>
12    1  0.8728348E-002  0.2051305E+03  0.7818608E-02  0.1145491E+00
         21   -1    0    0  503  502  0.00000000000E+00  0.00000000000E+00  0.19148903725E+03  0.19148903725E+03  0.00000000000E+00 0. -1.
         21   -1    0    0  501  503 -0.00000000000E+00 -0.00000000000E+00 -0.38256037457E+03  0.38256037457E+03  0.00000000000E+00 0. -1.
          6    2    1    2  501    0 -0.10404916053E+03  0.37197030449E+02 -0.28280784781E+03  0.34934045420E+03  0.17276755274E+03 0.  0.
         24    2    3    3    0    0 -0.64256278184E+02 -0.12707892433E+02 -0.61912236767E+02  0.11936015985E+03  0.78251919353E+02 0.  0.
         -6    2    1    2    0  502  0.10404916053E+03 -0.37197030449E+02  0.91736510482E+02  0.22470895762E+03  0.17282558085E+03 0.  0.
        -24    2    5    5    0    0  0.40338898975E+02  0.37477045382E+02  0.10494125077E+02  0.97203545122E+02  0.79414399337E+02 0.  0.
          5    1    3    3  501    0 -0.39792882348E+02  0.49904922882E+02 -0.22089561104E+03  0.22998029435E+03  0.47000000000E+01 0. -1.
        -13    1    4    4    0    0 -0.40603887973E+02  0.19345505921E+02  0.89449686909E+00  0.44985824906E+02  0.00000000000E+00 0.  1.
         14    1    4    4    0    0 -0.23652390211E+02 -0.32053398353E+02 -0.62806733636E+02  0.74374334946E+02  0.00000000000E+00 0. -1.
         -5    1    5    5    0  502  0.63710261557E+02 -0.74674075831E+02  0.81242385405E+02  0.12750541249E+03  0.47000000000E+01 0.  1.
         11    1    6    6    0    0  0.49926335824E+02  0.32622857898E+02 -0.21543661406E+02  0.63411506945E+02  0.00000000000E+00 0. -1.
        -12    1    6    6    0    0 -0.95874368486E+01  0.48541874835E+01  0.32037786483E+02  0.33792038177E+02  0.00000000000E+00 0.  1.
</event>
<event>
12    1  0.8728348E-002  0.1836841E+03  0.7818608E-02  0.1166164E+00
         21   -1    0    0  503  502  0.00000000000E+00  0.00000000000E+00  0.25746548176E+04  0.25746548176E+04  0.00000000000E+00 0.  1.
         21   -1    0    0  501  503 -0.00000000000E+00 -0.00000000000E+00 -0.12836074502E+02  0.12836074502E+02  0.00000000000E+00 0.  1.
          6    2    1    2  501    0 -0.62356928651E+02  0.14897000796E+02  0.11164728057E+04  0.11314819437E+04  0.17213237893E+03 0.  0.
         24    2    3    3    0    0 -0.10222361293E+02 -0.51051059905E+01  0.24378697720E+03  0.25699881484E+03  0.80534103355E+02 0.  0.
         -6    2    1    2    0  502  0.62356928651E+02 -0.14897000796E+02  0.14453459374E+04  0.14560089484E+04  0.16378910794E+03 0.  0.
        -24    2    5    5    0    0  0.47637901620E+01  0.36262508136E+02  0.52212901110E+03  0.52957176868E+03  0.80559858247E+02 0.  0.
          5    1    3    3  501    0 -0.52134567358E+02  0.20002106787E+02  0.87268582850E+03  0.87448312885E+03  0.47000000000E+01 0. -1.
        -13    1    4    4    0    0 -0.10967000366E+02  0.37156990523E+02  0.12818746489E+03  0.13391393952E+03  0.00000000000E+00 0.  1.
         14    1    4    4    0    0  0.74463907299E+00 -0.42262096514E+02  0.11559951230E+03  0.12308487533E+03  0.00000000000E+00 0. -1.
         -5    1    5    5    0  502  0.57593138489E+02 -0.51159508932E+02  0.92321692632E+03  0.92643717974E+03  0.47000000000E+01 0.  1.
         11    1    6    6    0    0  0.32349844478E+02  0.13227191541E+02  0.10030266204E+03  0.10621720692E+03  0.00000000000E+00 0. -1.
        -12    1    6    6    0    0 -0.27586054316E+02  0.23035316595E+02  0.42182634906E+03  0.42335456176E+03  0.00000000000E+00 0.  1.
</event>
<event>
12    1  0.8728348E-002  0.3270637E+03  0.7818608E-02  0.1072492E+00
         21   -1    0    0  501  502  0.00000000000E+00  0.00000000000E+00  0.50123770249E+03  0.50123770249E+03  0.00000000000E+00 0. -1.
         21   -1    0    0  502  503 -0.00000000000E+00 -0.00000000000E+00 -0.33994934193E+03  0.33994934193E+03  0.00000000000E+00 0.  1.
         -6    2    1    2    0  503  0.16739510562E+03  0.22198622500E+03  0.33750224479E+03  0.46967389260E+03  0.17142577017E+03 0.  0.
        -24    2    3    3    0    0  0.17504781438E+03  0.15931392333E+03  0.31595772171E+03  0.40279610987E+03  0.79954741776E+02 0.  0.
          6    2    1    2  501    0 -0.16739510562E+03 -0.22198622500E+03 -0.17621388423E+03  0.37151315183E+03  0.17225470534E+03 0.  0.
         24    2    5    5    0    0 -0.18580564770E+03 -0.19707434776E+03 -0.11913441518E+03  0.30640013106E+03  0.79536118653E+02 0.  0.
          5    1    5    5  501    0  0.18410542077E+02 -0.24911877238E+02 -0.57079469047E+02  0.65113020770E+02  0.47000000000E+01 0. -1.
        -13    1    6    6    0    0 -0.10789724403E+03 -0.13623134233E+03 -0.11313849591E+03  0.20736709758E+03  0.00000000000E+00 0.  1.
         14    1    6    6    0    0 -0.77908403663E+02 -0.60843005431E+02 -0.59959192680E+01  0.99033033474E+02  0.00000000000E+00 0. -1.
         -5    1    3    3    0  503 -0.76527087639E+01  0.62672301666E+02  0.21544523075E+02  0.66877782724E+02  0.47000000000E+01 0.  1.
         13    1    4    4    0    0  0.16459651940E+02  0.46563381745E+02  0.10360692580E+03  0.11477571056E+03  0.00000000000E+00 0. -1.
        -14    1    4    4    0    0  0.15858816244E+03  0.11275054159E+03  0.21235079592E+03  0.28802039931E+03  0.00000000000E+00 0.  1.
</event>
<event>
12    1  0.8728348E-002  0.2256313E+03  0.7818608E-02  0.1129903E+00
         21   -1    0    0  503  502  0.00000000000E+00  0.00000000000E+00  0.65495701790E+02  0.65495701790E+02  0.00000000000E+00 0.  1.
         21   -1    0    0  501  503 -0.00000000000E+00 -0.00000000000E+00 -0.79941378192E+03  0.79941378192E+03  0.00000000000E+00 0. -1.
          6    2    1    2  501    0  0.10985909322E+03 -0.94137585983E+02 -0.28985734667E+03  0.36681370856E+03  0.17205844910E+03 0.  0.
         24    2    3    3    0    0  0.13347503651E+03 -0.10988556978E+03 -0.27444876643E+03  0.33417590660E+03  0.80380267129E+02 0.  0.
         -6    2    1    2    0  502 -0.10985909322E+03  0.94137585983E+02 -0.44406073345E+03  0.49809577515E+03  0.17314317997E+03 0.  0.
        -24    2    5    5    0    0 -0.13412250680E+03  0.94185799357E+02 -0.31625990203E+03  0.36792719954E+03  0.92142752841E+02 0.  0.
          5    1    3    3  501    0 -0.23615943294E+02  0.15747983794E+02 -0.15408580248E+02  0.32637801956E+02  0.47000000000E+01 0. -1.
        -13    1    4    4    0    0  0.44957054665E+02 -0.37511698388E+01 -0.11288896832E+03  0.12156943369E+03  0.00000000000E+00 0.  1.
         14    1    4    4    0    0  0.88517981846E+02 -0.10613439994E+03 -0.16155979811E+03  0.21260647292E+03  0.00000000000E+00 0. -1.
         -5    1    5    5    0  502  0.24263413579E+02 -0.48213373603E-01 -0.12780083143E+03  0.13016857561E+03  0.47000000000E+01 0.  1.
         11    1    6    6    0    0 -0.10276555729E+03  0.36039777210E+02 -0.25723428179E+03  0.27933689523E+03  0.00000000000E+00 0. -1.
        -12    1    6    6    0    0 -0.31356949504E+02  0.58146022147E+02 -0.59025620233E+02  0.88590304310E+02  0.00000000000E+00 0.  1.
</event>
<event>
12    1  0.8728348E-002  0.4975241E+03  0.7818608E-02  0.1014481E+00
         21   -1    0    0  503  502  0.00000000000E+00  0.00000000000E+00  0.16343852543E+03  0.16343852543E+03  0.00000000000E+00 0.  1.
         21   -1    0    0  501  503 -0.00000000000E+00 -0.00000000000E+00 -0.15558910315E+04  0.15558910315E+04  0.00000000000E+00 0. -1.
          6    2    1    2  501    0  0.33413885127E+03  0.32629874772E+03 -0.55129280205E+03  0.74204768893E+03  0.16908984111E+03 0.  0.
         24    2    3    3    0    0  0.71314385795E+02  0.12368681188E+03 -0.20688824688E+03  0.26375396765E+03  0.79870142730E+02 0.  0.
         -6    2    1    2    0  502 -0.33413885127E+03 -0.32629874772E+03 -0.84115970404E+03  0.97728186801E+03  0.17149506452E+03 0.  0.
        -24    2    5    5    0    0 -0.11870575784E+03 -0.20628349951E+03 -0.44786147418E+03  0.51303983506E+03  0.77369459024E+02 0.  0.
          5    1    3    3  501    0  0.26282446548E+03  0.20261193583E+03 -0.34440455517E+03  0.47829372128E+03  0.47000000000E+01 0. -1.
        -13    1    4    4    0    0  0.22614457064E+02  0.54359669728E+01 -0.35286599760E+01  0.23524770912E+02  0.00000000000E+00 0.  1.
         14    1    4    4    0    0  0.48699928731E+02  0.11825084491E+03 -0.20335958690E+03  0.24022919674E+03  0.00000000000E+00 0. -1.
         -5    1    5    5    0  502 -0.21543309344E+03 -0.12001524821E+03 -0.39329822986E+03  0.46424203295E+03  0.47000000000E+01 0.  1.
         13    1    6    6    0    0 -0.56517484545E+02 -0.73276452338E+02 -0.25054249987E+03  0.26708651925E+03  0.00000000000E+00 0. -1.
        -14    1    6    6    0    0 -0.62188273293E+02 -0.13300704717E+03 -0.19731897431E+03  0.24595331580E+03  0.00000000000E+00 0.  1.
</event>
<event>
12    1  0.8728348E-002  0.1802539E+03  0.7818608E-02  0.1167886E+00
         21   -1    0    0  503  502  0.00000000000E+00  0.00000000000E+00  0.20847976460E+03  0.20847976460E+03  0.00000000000E+00 0. -1.
         21   -1    0    0  501  503 -0.00000000000E+00 -0.00000000000E+00 -0.15993403983E+03  0.15993403983E+03  0.00000000000E+00 0. -1.
          6    2    1    2  501    0 -0.52071338055E+02  0.18085913866E+02 -0.90233027960E+01  0.18047959561E+03  0.17161858848E+03 0.  0.
         24    2    3    3    0    0  0.34335732976E+01  0.50672987102E+02  0.37955601656E+02  0.10065591498E+03  0.78175728175E+02 0.  0.
         -6    2    1    2    0  502  0.52071338055E+02 -0.18085913866E+02  0.57569027558E+02  0.18793420882E+03  0.17019562093E+03 0.  0.
        -24    2    5    5    0    0  0.96610640176E+02 -0.23235681934E+02  0.73688762767E+02  0.14005722679E+03  0.65669477754E+02 0.  0.
          5    1    3    3  501    0 -0.55504911353E+02 -0.32587073237E+02 -0.46978904452E+02  0.79823680633E+02  0.47000000000E+01 0. -1.
        -11    1    4    4    0    0  0.34930880000E+02  0.12286449287E+02 -0.17620047198E+01  0.37070579632E+02  0.00000000000E+00 0.  1.
         12    1    4    4    0    0 -0.31497306702E+02  0.38386537815E+02  0.39717606375E+02  0.63585335346E+02  0.00000000000E+00 0. -1.
         -5    1    5    5    0  502 -0.44539302121E+02  0.51497680677E+01 -0.16119735209E+02  0.47876982025E+02  0.47000000000E+01 0.  1.
         11    1    6    6    0    0  0.49236492725E+02  0.21616709632E+02  0.30534892963E+02  0.61837642576E+02  0.00000000000E+00 0. -1.
        -12    1    6    6    0    0  0.47374147452E+02 -0.44852391565E+02  0.43153869804E+02  0.78219584216E+02  0.00000000000E+00 0.  1.
</event>
<event>
12    1  0.8728348E-002  0.1745892E+03  0.7818608E-02  0.1173679E+00
         21   -1    0    0  501  502  0.00000000000E+00  0.00000000000E+00  0.76455338779E+03  0.76455338779E+03  0.00000000000E+00 0. -1.
         21   -1    0    0  502  503 -0.00000000000E+00 -0.00000000000E+00 -0.42150416343E+02  0.42150416343E+02  0.00000000000E+00 0.  1.
         -6    2    1    2    0  503 -0.14789032592E+02  0.12840678244E+02  0.46240088578E+03  0.49352260672E+03  0.17136623259E+03 0.  0.
        -24    2    3    3    0    0 -0.64036280010E+02 -0.69007068756E+01  0.39189828924E+03  0.40516130420E+03  0.80144546896E+02 0.  0.
          6    2    1    2  501    0  0.14789032592E+02 -0.12840678244E+02  0.26000208567E+03  0.31318119741E+03  0.17348711583E+03 0.  0.
         24    2    5    5    0    0  0.54719374116E+02  0.40376137551E+02  0.12424469377E+03  0.16192439224E+03  0.78474979986E+02 0.  0.
          5    1    5    5  501    0 -0.39930341525E+02 -0.53216815794E+02  0.13575739189E+03  0.15125680517E+03  0.47000000000E+01 0. -1.
        -13    1    6    6    0    0  0.61473846030E+02  0.10062696976E+02  0.45100469336E+02  0.76904771961E+02  0.00000000000E+00 0.  1.
         14    1    6    6    0    0 -0.67544719131E+01  0.30313440575E+02  0.79144224438E+02  0.85019620278E+02  0.00000000000E+00 0. -1.
         -5    1    3    3    0  503  0.49247247419E+02  0.19741385119E+02  0.70502596544E+02  0.88361302527E+02  0.47000000000E+01 0.  1.
         11    1    4    4    0    0 -0.48565085648E+02  0.33490435406E+02  0.20470036951E+03  0.21303149553E+03  0.00000000000E+00 0. -1.
        -12    1    4    4    0    0 -0.15471194363E+02 -0.40391142282E+02  0.18719791972E+03  0.19212980867E+03  0.00000000000E+00 0.  1.
</event>
<event>
12    1  0.8728348E-002  0.2147250E+03  0.7818608E-02  0.1137904E+00
         21   -1    0    0  503  502  0.00000000000E+00  0.00000000000E+00  0.15707344694E+03  0.15707344694E+03  0.00000000000E+00 0.  1.
         21   -1    0    0  501  503 -0.00000000000E+00 -0.00000000000E+00 -0.29349590294E+03  0.29349590294E+03  0.00000000000E+00 0.  1.
          6    2    1    2  501    0  0.95206375131E+02 -0.87082540029E+02 -0.63224567144E+02  0.22383965592E+03  0.17163689298E+03 0.  0.
         24    2    3    3    0    0  0.39382569687E+02 -0.94129316519E+02 -0.91661225372E+02  0.16062029303E+03  0.83580998283E+02 0.  0.
         -6    2    1    2    0  502 -0.95206375131E+02  0.87082540029E+02 -0.73197888863E+02  0.22672969396E+03  0.17146661641E+03 0.  0.
        -24    2    5    5    0    0 -0.98051063278E+02  0.45513692061E+02  0.86377967833E+01  0.13477736491E+03  0.80030115479E+02 0.  0.
          5    1    3    3  501    0  0.55823805444E+02  0.70467764899E+01  0.28436658228E+02  0.63219362890E+02  0.47000000000E+01 0. -1.
        -13    1    4    4    0    0  0.33127332795E+01  0.10309864298E+02 -0.34617512340E+02  0.36271747466E+02  0.00000000000E+00 0.  1.
         14    1    4    4    0    0  0.36069836408E+02 -0.10443918082E+03 -0.57043713032E+02  0.12434854557E+03  0.00000000000E+00 0. -1.
         -5    1    5    5    0  502  0.28446881471E+01  0.41568847968E+02 -0.81835685646E+02  0.91952329047E+02  0.47000000000E+01 0.  1.
         11    1    6    6    0    0 -0.65102919407E+01 -0.14212353100E+02  0.19436842958E+02  0.24943250510E+02  0.00000000000E+00 0. -1.
        -12    1    6    6    0    0 -0.91540771337E+02  0.59726045161E+02 -0.10799046175E+02  0.10983411440E+03  0.00000000000E+00 0.  1.
</event>
<event>
12    1  0.8728348E-002  0.2396552E+03  0.7818608E-02  0.1120086E+00
         21   -1    0    0  503  502  0.00000000000E+00  0.00000000000E+00  0.66686231616E+02  0.66686231616E+02  0.00000000000E+00 0.  1.
         21   -1    0    0  501  503 -0.00000000000E+00 -0.00000000000E+00 -0.14926008658E+04  0.14926008658E+04  0.00000000000E+00 0.  1.
          6    2    1    2  501    0  0.10162996135E+03  0.13286044704E+03 -0.12202339760E+04  0.12434720293E+04  0.17108823528E+03 0.  0.
         24    2    3    3    0    0  0.13644283961E+03  0.12965893481E+03 -0.10369703926E+04  0.10568445471E+04  0.78642949982E+02 0.  0.
         -6    2    1    2    0  502 -0.10162996135E+03 -0.13286044704E+03 -0.20568065826E+03  0.31581506810E+03  0.17162190019E+03 0.  0.
        -24    2    5    5    0    0 -0.11505989833E+03 -0.15548188474E+03 -0.16212041209E+03  0.26471049202E+03  0.79844974051E+02 0.  0.
          5    1    3    3  501    0 -0.34812878264E+02  0.32015122330E+01 -0.18326358331E+03  0.18662748228E+03  0.47000000000E+01 0. -1.
        -11    1    4    4    0    0  0.41350378144E+01  0.20257123957E+01 -0.19430016175E+03  0.19435471413E+03  0.00000000000E+00 0.  1.
         12    1    4    4    0    0  0.13230780180E+03  0.12763322242E+03 -0.84267023090E+03  0.86248983294E+03  0.00000000000E+00 0. -1.
         -5    1    5    5    0  502  0.13429936982E+02  0.22621437695E+02 -0.43560246164E+02  0.51104576083E+02  0.47000000000E+01 0.  1.
         13    1    6    6    0    0 -0.11360488670E+02 -0.62085014859E+01 -0.48872615164E+02  0.50558270406E+02  0.00000000000E+00 0. -1.
        -14    1    6    6    0    0 -0.10369940966E+03 -0.14927338325E+03 -0.11324779693E+03  0.21415222161E+03  0.00000000000E+00 0.  1.
</event>
<event>
12    1  0.8728348E-002  0.3395717E+03  0.7818608E-02  0.1067025E+00
         21   -1    0    0  503  502  0.00000000000E+00  0.00000000000E+00  0.94236654443E+03  0.94236654443E+03  0.00000000000E+00 0. -1.
         21   -1    0    0  501  503 -0.00000000000E+00 -0.00000000000E+00 -0.12811137621E+03  0.12811137621E+03  0.00000000000E+00 0.  1.
          6    2    1    2  501    0 -0.16590531434E+03  0.24021758099E+03  0.29195859818E+03  0.44749904626E+03  0.17258769887E+03 0.  0.
         24    2    3    3    0    0 -0.18095417969E+03  0.16853164806E+03  0.19253054785E+03  0.32391357574E+03  0.81881995278E+02 0.  0.
         -6    2    1    2    0  502  0.16590531434E+03 -0.24021758099E+03  0.52229657004E+03  0.62297887438E+03  0.17343561142E+03 0.  0.
        -24    2    5    5    0    0  0.11699705487E+03 -0.14955790155E+03  0.45624060327E+03  0.50051795790E+03  0.79415749933E+02 0.  0.
          5    1    3    3  501    0  0.15048865346E+02  0.71685932939E+02  0.99428050332E+02  0.12358547051E+03  0.47000000000E+01 0. -1.
        -11    1    4    4    0    0 -0.99329347535E+02  0.63491100749E+02  0.47453092276E+02  0.12707964087E+03  0.00000000000E+00 0.  1.
         12    1    4    4    0    0 -0.81624832156E+02  0.10504054731E+03  0.14507745557E+03  0.19683393488E+03  0.00000000000E+00 0. -1.
         -5    1    5    5    0  502  0.48908259476E+02 -0.90659679441E+02  0.66055966765E+02  0.12246091649E+03  0.47000000000E+01 0.  1.
         11    1    6    6    0    0  0.24498012724E+01 -0.54951765803E+02  0.15844011713E+03  0.16771693059E+03  0.00000000000E+00 0. -1.
        -12    1    6    6    0    0  0.11454725360E+03 -0.94606135751E+02  0.29780048614E+03  0.33280102731E+03  0.00000000000E+00 0.  1.
</event>
<event>
12    1  0.8728348E-002  0.1905482E+03  0.7818608E-02  0.1158402E+00
         21   -1    0    0  503  502  0.00000000000E+00  0.00000000000E+00  0.12721069495E+03  0.12721069495E+03  0.00000000000E+00 0.  1.
         21   -1    0    0  501  503 -0.00000000000E+00 -0.00000000000E+00 -0.12356166140E+04  0.12356166140E+04  0.00000000000E+00 0.  1.
          6    2    1    2  501    0  0.54787231455E+02 -0.59499808040E+02 -0.11532982048E+04  0.11689334305E+04  0.17253042594E+03 0.  0.
         24    2    3    3    0    0  0.26342613681E+02  0.37118649063E+02 -0.62371777484E+03  0.62983998376E+03  0.74851954441E+02 0.  0.
         -6    2    1    2    0  502 -0.54787231455E+02  0.59499808040E+02  0.44892285766E+02  0.19389387842E+03  0.17040437460E+03 0.  0.
        -24    2    5    5    0    0  0.55366710919E+01 -0.23126049688E+02  0.41731153883E+01  0.83684321578E+02  0.80126037497E+02 0.  0.
          5    1    3    3  501    0  0.28444617774E+02 -0.96618457102E+02 -0.52958042993E+03  0.53909344672E+03  0.47000000000E+01 0. -1.
        -13    1    4    4    0    0 -0.14139312671E+02  0.44001538929E+02 -0.35715754188E+03  0.36013548189E+03  0.00000000000E+00 0.  1.
         14    1    4    4    0    0  0.40481926352E+02 -0.68828898663E+01 -0.26656023296E+03  0.26970450187E+03  0.00000000000E+00 0. -1.
         -5    1    5    5    0  502 -0.60323902547E+02  0.82625857728E+02  0.40719170378E+02  0.11020955685E+03  0.47000000000E+01 0.  1.
         13    1    6    6    0    0  0.23125128009E+02  0.39969136327E+01  0.32917369331E+02  0.40426477310E+02  0.00000000000E+00 0. -1.
        -14    1    6    6    0    0 -0.17588456917E+02 -0.27122963321E+02 -0.28744253942E+02  0.43257844268E+02  0.00000000000E+00 0.  1.
</event>
<event>
12    1  0.8728348E-002  0.2368430E+03  0.7818608E-02  0.1121920E+00
         21   -1    0    0  501  502  0.00000000000E+00  0.00000000000E+00  0.41411280032E+03  0.41411280032E+03  0.00000000000E+00 0.  1.
         21   -1    0    0  502  503 -0.00000000000E+00 -0.00000000000E+00 -0.14079398653E+03  0.14079398653E+03  0.00000000000E+00 0. -1.
         -6    2    1    2    0  503  0.26767085777E+02 -0.16069531618E+03  0.82552108613E+02  0.25081754131E+03  0.17191604599E+03 0.  0.
        -24    2    3    3    0    0  0.21967540147E+02 -0.31826208442E+02 -0.16748801943E+02  0.87989277777E+02  0.77240599902E+02 0.  0.
          6    2    1    2  501    0 -0.26767085777E+02  0.16069531618E+03  0.19076670518E+03  0.30408924554E+03  0.17186876367E+03 0.  0.
         24    2    5    5    0    0 -0.70912530488E+02  0.12301007029E+03  0.18309865868E+03  0.24535350698E+03  0.80704152350E+02 0.  0.
          5    1    5    5  501    0  0.44145444711E+02  0.37685245896E+02  0.76680464992E+01  0.58735738559E+02  0.47000000000E+01 0. -1.
        -11    1    6    6    0    0 -0.39976677235E+02  0.12381953074E+03  0.13020930011E+03  0.18407572559E+03  0.00000000000E+00 0.  1.
         12    1    6    6    0    0 -0.30935853253E+02 -0.80946045480E+00  0.52889358571E+02  0.61277781395E+02  0.00000000000E+00 0. -1.
         -5    1    3    3    0  503  0.47995456303E+01 -0.12886910774E+03  0.99300910557E+02  0.16282826353E+03  0.47000000000E+01 0.  1.
         11    1    4    4    0    0  0.27521130402E+02 -0.89881636170E+01 -0.43579492004E+02  0.52319898959E+02  0.00000000000E+00 0. -1.
        -12    1    4    4    0    0 -0.55535902543E+01 -0.22838044825E+02  0.26830690060E+02  0.35669378818E+02  0.00000000000E+00 0.  1.
</event>
<event>
12    1  0.8728348E-002  0.4149867E+03  0.7818608E-02  0.1038745E+00
         21   -1    0    0  503  502  0.00000000000E+00  0.00000000000E+00  0.19764037434E+04  0.19764037434E+04  0.00000000000E+00 0. -1.
         21   -1    0    0  501  503 -0.00000000000E+00 -0.00000000000E+00 -0.12568024826E+03  0.12568024826E+03  0.00000000000E+00 0.  1.
          6    2    1    2  501    0 -0.25219212066E+03  0.28158511838E+03  0.15077622843E+04  0.15637194502E+04  0.17023621339E+03 0.  0.
         24    2    3    3    0    0 -0.22300646165E+03  0.15515435125E+03  0.10999113580E+04  0.11356995795E+04  0.78764109368E+02 0.  0.
         -6    2    1    2    0  502  0.25219212066E+03 -0.28158511838E+03  0.34296121082E+03  0.53836454145E+03  0.17123943104E+03 0.  0.
        -24    2    5    5    0    0  0.76414189736E+02 -0.14857428525E+03  0.21265452488E+03  0.28225580452E+03  0.80826639192E+02 0.  0.
          5    1    3    3  501    0 -0.29185659001E+02  0.12643076713E+03  0.40785092636E+03  0.42801987068E+03  0.47000000000E+01 0. -1.
        -11    1    4    4    0    0 -0.95688624920E+01  0.12032307236E+02  0.17926701614E+02  0.23615803556E+02  0.00000000000E+00 0.  1.
         12    1    4    4    0    0 -0.21343759916E+03  0.14312204402E+03  0.10819846563E+04  0.11120837760E+04  0.00000000000E+00 0. -1.
         -5    1    5    5    0  502  0.17577793092E+03 -0.13301083313E+03  0.13030668594E+03  0.25610873693E+03  0.47000000000E+01 0.  1.
         13    1    6    6    0    0  0.82391981698E+02 -0.11169249878E+03  0.19869462680E+03  0.24236998092E+03  0.00000000000E+00 0. -1.
        -14    1    6    6    0    0 -0.59777919620E+01 -0.36881786469E+02  0.13959898080E+02  0.39885823601E+02  0.00000000000E+00 0.  1.
</event>
<event>
12    1  0.8728348E-002  0.1839461E+03  0.7818608E-02  0.1164137E+00
         21   -1    0    0  501  502  0.00000000000E+00  0.00000000000E+00  0.11125734792E+03  0.11125734792E+03  0.00000000000E+00 0.  1.
         21   -1    0    0  502  503 -0.00000000000E+00 -0.00000000000E+00 -0.39244133095E+03  0.39244133095E+03  0.00000000000E+00 0.  1.
         -6    2    1    2    0  503  0.28378344784E+02 -0.58815690897E+02 -0.26041283719E+03  0.31858355132E+03  0.17151098346E+03 0.  0.
        -24    2    3    3    0    0  0.18041717477E+01 -0.11293130566E+02 -0.34957967896E+02  0.86599568028E+02  0.78400483605E+02 0.  0.
          6    2    1    2  501    0 -0.28378344784E+02  0.58815690897E+02 -0.20771145838E+02  0.18511512755E+03  0.17196381597E+03 0.  0.
         24    2    5    5    0    0 -0.22344102659E+02 -0.18903399459E+02  0.32153980313E+02  0.90776227508E+02  0.79685930978E+02 0.  0.
          5    1    5    5  501    0 -0.60342421243E+01  0.77719090356E+02 -0.52925126151E+02  0.94338900046E+02  0.47000000000E+01 0. -1.
        -11    1    6    6    0    0 -0.23413686338E+02 -0.38468572942E+02 -0.83318874379E+01  0.45797949304E+02  0.00000000000E+00 0.  1.
         12    1    6    6    0    0  0.10695836789E+01  0.19565173483E+02  0.40485867751E+02  0.44978278204E+02  0.00000000000E+00 0. -1.
         -5    1    3    3    0  503  0.26574173036E+02 -0.47522560332E+02 -0.22545486930E+03  0.23198398329E+03  0.47000000000E+01 0.  1.
         13    1    4    4    0    0 -0.16303377763E+02  0.16385689777E+02 -0.46204781730E+02  0.51664037886E+02  0.00000000000E+00 0. -1.
        -14    1    4    4    0    0  0.18107549511E+02 -0.27678820343E+02  0.11246813834E+02  0.34935530142E+02  0.00000000000E+00 0.  1.
</event>
<event>
12    1  0.8728348E-002  0.1781918E+03  0.7818608E-02  0.1169729E+00
         21   -1    0    0  503  502  0.00000000000E+00  0.00000000000E+00  0.74989143781E+03  0.74989143781E+03  0.00000000000E+00 0.  1.
         21   -1    0    0  501  503 -0.00000000000E+00 -0.00000000000E+00 -0.84144149824E+02  0.84144149824E+02  0.00000000000E+00 0.  1.
          6    2    1    2  501    0  0.45026622045E+02 -0.17332091883E+01  0.38075761695E+02  0.18156040048E+03  0.17170909902E+03 0.  0.
         24    2    3    3    0    0 -0.32488215561E+02  0.26847559350E+02  0.38935261073E+02  0.98806312250E+02  0.80439152111E+02 0.  0.
         -6    2    1    2    0  502 -0.45026622045E+02  0.17332091883E+01  0.62767152629E+03  0.65247518715E+03  0.17240047631E+03 0.  0.
        -24    2    5    5    0    0  0.33926035403E+02  0.16920647295E+02  0.45766010316E+03  0.46435247617E+03  0.68798022618E+02 0.  0.
          5    1    3    3  501    0  0.77514837606E+02 -0.28580768538E+02 -0.85949937816E+00  0.82754088228E+02  0.47000000000E+01 0. -1.
        -13    1    4    4    0    0  0.25118499943E+02  0.10034110206E+02  0.25790331333E+02  0.37373300594E+02  0.00000000000E+00 0.  1.
         14    1    4    4    0    0 -0.57606715504E+02  0.16813449143E+02  0.13144929740E+02  0.61433011656E+02  0.00000000000E+00 0. -1.
         -5    1    5    5    0  502 -0.78952657448E+02 -0.15187438107E+02  0.17001142312E+03  0.18812271098E+03  0.47000000000E+01 0.  1.
         13    1    6    6    0    0  0.71742458731E+01 -0.20349358010E+02  0.54899979124E+02  0.58987913025E+02  0.00000000000E+00 0. -1.
        -14    1    6    6    0    0  0.26751789530E+02  0.37270005306E+02  0.40276012404E+03  0.40536456315E+03  0.00000000000E+00 0.  1.
</event>
<event>
12    1  0.8728348E-002  0.1838913E+03  0.7818608E-02  0.1164823E+00
         21   -1    0    0  503  502  0.00000000000E+00  0.00000000000E+00  0.17806412579E+03  0.17806412579E+03  0.00000000000E+00 0. -1.
         21   -1    0    0  501  503 -0.00000000000E+00 -0.00000000000E+00 -0.27591745624E+03  0.27591745624E+03  0.00000000000E+00 0. -1.
          6    2    1    2  501    0  0.50088242974E+02 -0.27402381209E+02 -0.17769519770E+03  0.25350533478E+03  0.17155071814E+03 0.  0.
         24    2    3    3    0    0 -0.33833037033E+02 -0.41231871006E+01 -0.12376939696E+03  0.15096371346E+03  0.79432386916E+02 0.  0.
         -6    2    1    2    0  502 -0.50088242974E+02  0.27402381209E+02  0.79841867258E+02  0.20047624725E+03  0.17480354506E+03 0.  0.
        -24    2    5    5    0    0  0.11451535041E+02  0.56495900618E+02  0.93328187809E+02  0.13092376353E+03  0.71469971143E+02 0.  0.
          5    1    3    3  501    0  0.83921280008E+02 -0.23279194108E+02 -0.53925800743E+02  0.10254162132E+03  0.47000000000E+01 0. -1.
        -13    1    4    4    0    0  0.94802374770E+01 -0.21734663701E+02 -0.63059657471E+01  0.24536416055E+02  0.00000000000E+00 0.  1.
         14    1    4    4    0    0 -0.43313274510E+02  0.17611476601E+02 -0.11746343121E+03  0.12642729741E+03  0.00000000000E+00 0. -1.
         -5    1    5    5    0  502 -0.61539778015E+02 -0.29093519409E+02 -0.13486320552E+02  0.69552483721E+02  0.47000000000E+01 0.  1.
         13    1    6    6    0    0 -0.14507299186E+02 -0.65479765201E+01  0.43945734932E+02  0.46739334022E+02  0.00000000000E+00 0. -1.
        -14    1    6    6    0    0  0.25958834227E+02  0.63043877138E+02  0.49382452878E+02  0.84184429506E+02  0.00000000000E+00 0.  1.
</event>
<event>
12    1  0.8728348E-002  0.2572563E+03  0.7818608E-02  0.1108813E+00
         21   -1    0    0  503  502  0.00000000000E+00  0.00000000000E+00  0.23522190555E+04  0.23522190555E+04  0.00000000000E+00 0.  1.
         21   -1    0    0  501  503 -0.00000000000E+00 -0.00000000000E+00 -0.37022962903E+02  0.37022962903E+02  0.00000000000E+00 0. -1.
          6    2    1    2  501    0  0.17101133291E+03  0.85955619704E+02  0.57192811370E+03  0.62709444656E+03  0.17179183079E+03 0.  0.
         24    2    3    3    0    0  0.86981379916E+02 -0.14976844791E+02  0.26555874529E+03  0.29372876853E+03  0.89247274076E+02 0.  0.
         -6    2    1    2    0  502 -0.17101133291E+03 -0.85955619704E+02  0.17432679789E+04  0.17621475718E+04  0.17189407831E+03 0.  0.
        -24    2    5    5    0    0 -0.12094345416E+03 -0.11336651990E+03  0.15423391628E+04  0.15532154559E+04  0.78669386751E+02 0.  0.
          5    1    3    3  501    0  0.84029952994E+02  0.10093246450E+03  0.30636936840E+03  0.33336567803E+03  0.47000000000E+01 0. -1.
        -13    1    4    4    0    0  0.43081160930E+02  0.10431010683E+02  0.22345290223E+03  0.22780691808E+03  0.00000000000E+00 0.  1.
         14    1    4    4    0    0  0.43900218986E+02 -0.25407855474E+02  0.42105843062E+02  0.65921850450E+02  0.00000000000E+00 0. -1.
         -5    1    5    5    0  502 -0.50067878754E+02  0.27410900198E+02  0.20092881610E+03  0.20893211594E+03  0.47000000000E+01 0.  1.
         13    1    6    6    0    0 -0.11076711203E+03 -0.95726541867E+02  0.10171669508E+04  0.10276485439E+04  0.00000000000E+00 0. -1.
        -14    1    6    6    0    0 -0.10176342128E+02 -0.17639978034E+02  0.52517221195E+03  0.52556691198E+03  0.00000000000E+00 0.  1.
</event>
<event>
12    1  0.8728348E-002  0.1872762E+03  0.7818608E-02  0.1161103E+00
         21   -1    0    0  501  502  0.00000000000E+00  0.00000000000E+00  0.85663297042E+02  0.85663297042E+02  0.00000000000E+00 0. -1.
         21   -1    0    0  502  503 -0.00000000000E+00 -0.00000000000E+00 -0.45063368258E+03  0.45063368258E+03  0.00000000000E+00 0. -1.
         -6    2    1    2    0  503 -0.42092128407E+02 -0.59566596557E+02 -0.26538817565E+03  0.32481264829E+03  0.17248897361E+03 0.  0.
        -24    2    3    3    0    0 -0.62154724068E+02 -0.97107724919E+02 -0.23077317333E+03  0.26974784602E+03  0.78832245578E+02 0.  0.
          6    2    1    2  501    0  0.42092128407E+02  0.59566596557E+02 -0.99582209898E+02  0.21148433134E+03  0.17172384568E+03 0.  0.
         24    2    5    5    0    0  0.48234356101E+02  0.74639389386E+02 -0.11792637609E+02  0.12207507540E+03  0.82859315562E+02 0.  0.
          5    1    5    5  501    0 -0.61422276938E+01 -0.15072792829E+02 -0.87789572289E+02  0.89409255939E+02  0.47000000000E+01 0. -1.
        -11    1    6    6    0    0  0.21172813231E+02 -0.14331707445E+02 -0.13807973303E+02  0.29057632132E+02  0.00000000000E+00 0.  1.
         12    1    6    6    0    0  0.27061542870E+02  0.88971096831E+02  0.20153356943E+01  0.93017443266E+02  0.00000000000E+00 0. -1.
         -5    1    3    3    0  503  0.20062595660E+02  0.37541128362E+02 -0.34615002314E+02  0.55064802266E+02  0.47000000000E+01 0.  1.
         11    1    4    4    0    0 -0.28536158961E+02 -0.31684132196E+02 -0.16712023557E+03  0.17247425819E+03  0.00000000000E+00 0. -1.
        -12    1    4    4    0    0 -0.33618565107E+02 -0.65423592723E+02 -0.63652937761E+02  0.97273587835E+02  0.00000000000E+00 0.  1.
</event>
<event>
12    1  0.8728348E-002  0.1769605E+03  0.7818608E-02  0.1170941E+00
         21   -1    0    0  501  502  0.00000000000E+00  0.00000000000E+00  0.76050760831E+02  0.76050760831E+02  0.00000000000E+00 0.  1.
         21   -1    0    0  502  503 -0.00000000000E+00 -0.00000000000E+00 -0.43894807960E+03  0.43894807960E+03  0.00000000000E+00 0.  1.
         -6    2    1    2    0  503  0.32020360325E+02  0.26342983980E+02 -0.24762642840E+03  0.30435811024E+03  0.17203416795E+03 0.  0.
        -24    2    3    3    0    0  0.23293751384E+02  0.65871577341E+02 -0.24075014687E+03  0.26302971026E+03  0.79638757575E+02 0.  0.
          6    2    1    2  501    0 -0.32020360325E+02 -0.26342983980E+02 -0.11527089037E+03  0.21064073019E+03  0.17135601177E+03 0.  0.
         24    2    5    5    0    0  0.22728615478E+01 -0.11475867403E+01 -0.13969776487E+03  0.16134980500E+03  0.80695794254E+02 0.  0.
          5    1    5    5  501    0 -0.34293221873E+02 -0.25195397240E+02  0.24426874500E+02  0.49290925192E+02  0.47000000000E+01 0. -1.
        -13    1    6    6    0    0 -0.32772199518E+02  0.64516875954E+01 -0.10946164920E+03  0.11444428330E+03  0.00000000000E+00 0.  1.
         14    1    6    6    0    0  0.35045061065E+02 -0.75992743356E+01 -0.30236115662E+02  0.46905521699E+02  0.00000000000E+00 0. -1.
         -5    1    3    3    0  503  0.87266089407E+01 -0.39528593361E+02 -0.68762815310E+01  0.41328399973E+02  0.47000000000E+01 0.  1.
         13    1    4    4    0    0 -0.59631037331E+01  0.13881216526E+02 -0.11331951577E+00  0.15108263292E+02  0.00000000000E+00 0. -1.
        -14    1    4    4    0    0  0.29256855118E+02  0.51990360814E+02 -0.24063682736E+03  0.24792144697E+03  0.00000000000E+00 0.  1.
</event>
<event>
12    1  0.8728348E-002  0.2244008E+03  0.7818608E-02  0.1131479E+00
         21   -1    0    0  501  502  0.00000000000E+00  0.00000000000E+00  0.26455077032E+03  0.26455077032E+03  0.00000000000E+00 0.  1.
         21   -1    0    0  502  503 -0.00000000000E+00 -0.00000000000E+00 -0.19170673278E+03  0.19170673278E+03  0.00000000000E+00 0. -1.
         -6    2    1    2    0  503  0.11096991262E+03 -0.92594654864E+02 -0.15087817039E+01  0.21985941412E+03  0.16567375755E+03 0.  0.
        -24    2    3    3    0    0  0.12368722002E+03 -0.78126220566E+02 -0.45572826273E+02  0.17153969224E+03  0.77115165715E+02 0.  0.
          6    2    1    2  501    0 -0.11096991262E+03  0.92594654864E+02  0.74352819240E+02  0.23639808897E+03  0.17166136177E+03 0.  0.
         24    2    5    5    0    0  0.21340467921E+02  0.31553415782E+02  0.54347138837E+02  0.89243792686E+02  0.59664138430E+02 0.  0.
          5    1    5    5  501    0 -0.13231038054E+03  0.61041239082E+02  0.20005680403E+02  0.14715429629E+03  0.47000000000E+01 0. -1.
        -13    1    6    6    0    0 -0.81013838531E+01  0.26087031882E+01 -0.97864724149E+01  0.12969687544E+02  0.00000000000E+00 0.  1.
         14    1    6    6    0    0  0.29441851774E+02  0.28944712594E+02  0.64133611252E+02  0.76274105142E+02  0.00000000000E+00 0. -1.
         -5    1    3    3    0  503 -0.12717307403E+02 -0.14468434298E+02  0.44064044569E+02  0.48319721878E+02  0.47000000000E+01 0.  1.
         13    1    4    4    0    0  0.32973226546E+02 -0.57606669140E+02  0.33327902042E+01  0.66459532716E+02  0.00000000000E+00 0. -1.
        -14    1    4    4    0    0  0.90713993478E+02 -0.20519551426E+02 -0.48905616477E+02  0.10508015953E+03  0.00000000000E+00 0.  1.
</event>
<event>
12    1  0.8728348E-002  0.2896812E+03  0.7818608E-02  0.1091133E+00
         21   -1    0    0  501  502  0.00000000000E+00  0.00000000000E+00  0.21221612164E+03  0.21221612164E+03  0.00000000000E+00 0.  1.
         21   -1    0    0  502  503 -0.00000000000E+00 -0.00000000000E+00 -0.65019337769E+03  0.65019337769E+03  0.00000000000E+00 0. -1.
         -6    2    1    2    0  503  0.16495138447E+03 -0.15956836012E+03 -0.49332411933E+03  0.57208732008E+03  0.17676027351E+03 0.  0.
        -24    2    3    3    0    0  0.12770400229E+03 -0.15446779175E+03 -0.48842078196E+03  0.53388370775E+03  0.79425073251E+02 0.  0.
          6    2    1    2  501    0 -0.16495138447E+03  0.15956836012E+03  0.55346863270E+02  0.29032217925E+03  0.16897535826E+03 0.  0.
         24    2    5    5    0    0 -0.16139592793E+03  0.12761840567E+03 -0.60064711470E+01  0.22089766986E+03  0.80153601511E+02 0.  0.
          5    1    5    5  501    0 -0.35554565457E+01  0.31949954449E+02  0.61353334417E+02  0.69424509394E+02  0.47000000000E+01 0. -1.
        -11    1    6    6    0    0 -0.12222615524E+03  0.47602977033E+02 -0.11282299423E+02  0.13165320630E+03  0.00000000000E+00 0.  1.
         12    1    6    6    0    0 -0.39169772686E+02  0.80015428638E+02  0.52758282761E+01  0.89244463561E+02  0.00000000000E+00 0. -1.
         -5    1    3    3    0  503  0.37247382185E+02 -0.51005683733E+01 -0.49033373647E+01  0.38203612325E+02  0.47000000000E+01 0.  1.
         11    1    4    4    0    0  0.87278133471E+02 -0.67709823276E+02 -0.33800298461E+03  0.35559543073E+03  0.00000000000E+00 0. -1.
        -12    1    4    4    0    0  0.40425868819E+02 -0.86757968471E+02 -0.15041779735E+03  0.17828827702E+03  0.00000000000E+00 0.  1.
</event>
<event>
12    1  0.8728348E-002  0.1906796E+03  0.7818608E-02  0.1157981E+00
         21   -1    0    0  501  502  0.00000000000E+00  0.00000000000E+00  0.21472462330E+03  0.21472462330E+03  0.00000000000E+00 0. -1.
         21   -1    0    0  502  503 -0.00000000000E+00 -0.00000000000E+00 -0.17011949141E+03  0.17011949141E+03  0.00000000000E+00 0. -1.
         -6    2    1    2    0  503  0.58439686545E+02  0.54663474562E+02  0.39234043596E+02  0.19467409343E+03  0.17307628393E+03 0.  0.
        -24    2    3    3    0    0  0.76843411110E+02  0.26780730636E+02 -0.27651131205E+02  0.11976173734E+03  0.83403664839E+02 0.  0.
          6    2    1    2  501    0 -0.58439686545E+02 -0.54663474562E+02  0.53710882926E+01  0.19017002128E+03  0.17243113405E+03 0.  0.
         24    2    5    5    0    0  0.51567592911E+01  0.28769624038E+02 -0.10420398257E+02  0.83976561445E+02  0.78033292502E+02 0.  0.
          5    1    5    5  501    0 -0.63596445836E+02 -0.83433098600E+02  0.15791486550E+02  0.10619345984E+03  0.47000000000E+01 0. -1.
        -13    1    6    6    0    0 -0.11817003579E+02 -0.85989369086E+01  0.25528731460E+02  0.29415972184E+02  0.00000000000E+00 0.  1.
         14    1    6    6    0    0  0.16973762870E+02  0.37368560946E+02 -0.35949129717E+02  0.54560589262E+02  0.00000000000E+00 0. -1.
         -5    1    3    3    0  503 -0.18403724564E+02  0.27882743926E+02  0.66885174801E+02  0.74912356089E+02  0.47000000000E+01 0.  1.
         13    1    4    4    0    0 -0.13114376954E+02 -0.48269832961E+01  0.10067448155E+02  0.17223244845E+02  0.00000000000E+00 0. -1.
        -14    1    4    4    0    0  0.89957788064E+02  0.31607713932E+02 -0.37718579361E+02  0.10253849249E+03  0.00000000000E+00 0.  1.
</event>
<event>
12    1  0.8728348E-002  0.1868977E+03  0.7818608E-02  0.1161410E+00
         21   -1    0    0  503  502  0.00000000000E+00  0.00000000000E+00  0.10696815977E+03  0.10696815977E+03  0.00000000000E+00 0.  1.
         21   -1    0    0  501  503 -0.00000000000E+00 -0.00000000000E+00 -0.44139047630E+03  0.44139047630E+03  0.00000000000E+00 0.  1.
          6    2    1    2  501    0 -0.58282418527E+02 -0.43884364927E+02 -0.30778949488E+03  0.36009043859E+03  0.17206996546E+03 0.  0.
         24    2    3    3    0    0 -0.70292375849E+02  0.42157984442E+02 -0.14179653292E+03  0.17267838354E+03  0.54710635517E+02 0.  0.
         -6    2    1    2    0  502  0.58282418527E+02  0.43884364927E+02 -0.26632821653E+02  0.18826819748E+03  0.17150198016E+03 0.  0.
        -24    2    5    5    0    0 -0.32444443812E+02  0.13484178580E+02 -0.31732564416E+02  0.92332634436E+02  0.79271020752E+02 0.  0.
          5    1    3    3  501    0  0.12009957322E+02 -0.86042349369E+02 -0.16599296196E+03  0.18741205505E+03  0.47000000000E+01 0. -1.
        -13    1    4    4    0    0 -0.59522911925E+02  0.21611121167E+02 -0.58495731862E+02  0.86207704112E+02  0.00000000000E+00 0.  1.
         14    1    4    4    0    0 -0.10769463924E+02  0.20546863275E+02 -0.83300801060E+02  0.86470679429E+02  0.00000000000E+00 0. -1.
         -5    1    5    5    0  502  0.90726862340E+02  0.30400186347E+02  0.50997427633E+01  0.95935563042E+02  0.47000000000E+01 0.  1.
         13    1    6    6    0    0  0.18808352570E+02 -0.17871458177E+02 -0.14972821996E+02  0.29955442615E+02  0.00000000000E+00 0. -1.
        -14    1    6    6    0    0 -0.51252796382E+02  0.31355636757E+02 -0.16759742421E+02  0.62377191821E+02  0.00000000000E+00 0.  1.
</event>
<event>
12    1  0.8728348E-002  0.2065899E+03  0.7818608E-02  0.1145895E+00
         21   -1    0    0  501  502  0.00000000000E+00  0.00000000000E+00  0.40689769534E+03  0.40689769534E+03  0.00000000000E+00 0.  1.
         21   -1    0    0  502  503 -0.00000000000E+00 -0.00000000000E+00 -0.14551339275E+03  0.14551339275E+03  0.00000000000E+00 0.  1.
         -6    2    1    2    0  503  0.94992359413E+02  0.63022377852E+02 -0.20335167959E+02  0.20758827353E+03  0.17229046345E+03 0.  0.
        -24    2    3    3    0    0 -0.98001559498E+01  0.50617373237E+02 -0.31706531972E+02  0.10134914075E+03  0.81290729055E+02 0.  0.
          6    2    1    2  501    0 -0.94992359413E+02 -0.63022377852E+02  0.28171947054E+03  0.34482281456E+03  0.16291576013E+03 0.  0.
         24    2    5    5    0    0 -0.11315707732E+03 -0.21566014842E+02  0.25416665695E+03  0.29162662534E+03  0.84709987359E+02 0.  0.
          5    1    5    5  501    0  0.18164717905E+02 -0.41456363010E+02  0.27552813595E+02  0.53196189221E+02  0.47000000000E+01 0. -1.
        -13    1    6    6    0    0 -0.65278226825E+02  0.22199484245E+01  0.54934470480E+02  0.85346183952E+02  0.00000000000E+00 0.  1.
         14    1    6    6    0    0 -0.47878850493E+02 -0.23785963266E+02  0.19923218647E+03  0.20628044139E+03  0.00000000000E+00 0. -1.
         -5    1    3    3    0  503  0.10479251536E+03  0.12405004615E+02  0.11371364012E+02  0.10623913279E+03  0.47000000000E+01 0.  1.
         11    1    4    4    0    0  0.12003314346E+02  0.46787301004E+02 -0.52244422904E+02  0.71152026079E+02  0.00000000000E+00 0. -1.
        -12    1    4    4    0    0 -0.21803470296E+02  0.38300722329E+01  0.20537890933E+02  0.30197114667E+02  0.00000000000E+00 0.  1.
</event>
<event>
12    1  0.8728348E-002  0.1741050E+03  0.7818608E-02  0.1174094E+00
         21   -1    0    0  501  502  0.00000000000E+00  0.00000000000E+00  0.34295932336E+03  0.34295932336E+03  0.00000000000E+00 0.  1.
         21   -1    0    0  502  503 -0.00000000000E+00 -0.00000000000E+00 -0.88830189546E+02  0.88830189546E+02  0.00000000000E+00 0.  1.
         -6    2    1    2    0  503 -0.22402927600E+02 -0.19239964309E+02  0.99660814996E+02  0.19903854451E+03  0.16974096961E+03 0.  0.
        -24    2    3    3    0    0 -0.13472530556E+02  0.54474443376E+02  0.55856878332E+02  0.11269944121E+03  0.80200992082E+02 0.  0.
          6    2    1    2  501    0  0.22402927600E+02  0.19239964309E+02  0.15446831882E+03  0.23275096839E+03  0.17158229623E+03 0.  0.
         24    2    5    5    0    0 -0.64072134651E+01 -0.48668051010E+02  0.11874178575E+03  0.15065347795E+03  0.78658929316E+02 0.  0.
          5    1    5    5  501    0  0.28810141065E+02  0.67908015319E+02  0.35726533068E+02  0.82097490448E+02  0.47000000000E+01 0. -1.
        -13    1    6    6    0    0 -0.10627050155E+02 -0.11067781079E+02  0.11097184688E+03  0.11202758934E+03  0.00000000000E+00 0.  1.
         14    1    6    6    0    0  0.42198366898E+01 -0.37600269931E+02  0.77699388655E+01  0.38625888605E+02  0.00000000000E+00 0. -1.
         -5    1    3    3    0  503 -0.89303970433E+01 -0.73714407685E+02  0.43803936664E+02  0.86339103302E+02  0.47000000000E+01 0.  1.
         13    1    4    4    0    0  0.87935125819E+01  0.46294530338E+02 -0.49962579355E+01  0.47386411513E+02  0.00000000000E+00 0. -1.
        -14    1    4    4    0    0 -0.22266043138E+02  0.81799130381E+01  0.60853136268E+02  0.65313029695E+02  0.00000000000E+00 0.  1.
</event>
<event>
12    1  0.8728348E-002  0.1744022E+03  0.7818608E-02  0.1173607E+00
         21   -1    0    0  501  502  0.00000000000E+00  0.00000000000E+00  0.55513362533E+02  0.55513362533E+02  0.00000000000E+00 0. -1.
         21   -1    0    0  502  503 -0.00000000000E+00 -0.00000000000E+00 -0.55340892990E+03  0.55340892990E+03  0.00000000000E+00 0. -1.
         -6    2    1    2    0  503 -0.22304860560E+02  0.99909754230E+01 -0.28679737168E+03  0.33510013362E+03  0.17158683153E+03 0.  0.
        -24    2    3    3    0    0  0.35776381870E+02  0.45168348670E+02 -0.15499751494E+03  0.18676210563E+03  0.86808555114E+02 0.  0.
          6    2    1    2  501    0  0.22304860560E+02 -0.99909754230E+01 -0.21109819568E+03  0.27382215881E+03  0.17268120928E+03 0.  0.
         24    2    5    5    0    0  0.34333187841E+02  0.53790061986E+02 -0.90684594596E+02  0.13694912744E+03  0.80369330300E+02 0.  0.
          5    1    5    5  501    0 -0.12028327282E+02 -0.63781037409E+02 -0.12041360108E+03  0.13687303137E+03  0.47000000000E+01 0. -1.
        -13    1    6    6    0    0 -0.20135324554E+01  0.63881260991E+02 -0.65967656027E+02  0.91850974195E+02  0.00000000000E+00 0.  1.
         14    1    6    6    0    0  0.36346720296E+02 -0.10091199005E+02 -0.24716938569E+02  0.45098153243E+02  0.00000000000E+00 0. -1.
         -5    1    3    3    0  503 -0.58081242430E+02 -0.35177373247E+02 -0.13179985675E+03  0.14833802800E+03  0.47000000000E+01 0.  1.
         11    1    4    4    0    0  0.33616986557E+02 -0.11852797058E+02 -0.10503285678E+03  0.11091659744E+03  0.00000000000E+00 0. -1.
        -12    1    4    4    0    0  0.21593953130E+01  0.57021145728E+02 -0.49964658153E+02  0.75845508190E+02  0.00000000000E+00 0.  1.
</event>
<event>
12    1  0.8728348E-002  0.1932453E+03  0.7818608E-02  0.1155781E+00
         21   -1    0    0  503  502  0.00000000000E+00  0.00000000000E+00  0.39084397217E+03  0.39084397217E+03  0.00000000000E+00 0. -1.
         21   -1    0    0  501  503 -0.00000000000E+00 -0.00000000000E+00 -0.10232604621E+03  0.10232604621E+03  0.00000000000E+00 0.  1.
          6    2    1    2  501    0  0.86975853582E+02 -0.44704046402E+01  0.78916640810E+02  0.20873810165E+03  0.17250789912E+03 0.  0.
         24    2    3    3    0    0  0.72766592087E+02  0.50142261737E+02  0.87057940296E+01  0.11853777212E+03  0.78525086653E+02 0.  0.
         -6    2    1    2    0  502 -0.86975853582E+02  0.44704046402E+01  0.20960128515E+03  0.28443191673E+03  0.17141771465E+03 0.  0.
        -24    2    5    5    0    0 -0.10426804205E+03  0.31220416827E+02  0.21402229393E+03  0.25193240516E+03  0.76274867749E+02 0.  0.
          5    1    3    3  501    0  0.14209261494E+02 -0.54612666377E+02  0.70210846780E+02  0.90200329526E+02  0.47000000000E+01 0. -1.
        -13    1    4    4    0    0  0.21526378111E+02  0.35067750531E+02 -0.31387611788E+02  0.51752432365E+02  0.00000000000E+00 0.  1.
         14    1    4    4    0    0  0.51240213976E+02  0.15074511206E+02  0.40093405818E+02  0.66785339757E+02  0.00000000000E+00 0. -1.
         -5    1    5    5    0  502  0.17292188471E+02 -0.26750012187E+02 -0.44210087760E+01  0.32499511577E+02  0.47000000000E+01 0.  1.
         11    1    6    6    0    0  0.16655096214E+01  0.26341351760E+02  0.34652826158E+02  0.43559833512E+02  0.00000000000E+00 0. -1.
        -12    1    6    6    0    0 -0.10593355167E+03  0.48790650671E+01  0.17936946777E+03  0.20837257164E+03  0.00000000000E+00 0.  1.
</event>
<event>
12    1  0.8728348E-002  0.1869619E+03  0.7818608E-02  0.1161337E+00
         21   -1    0    0  501  502  0.00000000000E+00  0.00000000000E+00  0.53513879390E+03  0.53513879390E+03  0.00000000000E+00 0.  1.
         21   -1    0    0  502  503 -0.00000000000E+00 -0.00000000000E+00 -0.75696384471E+02  0.75696384471E+02  0.00000000000E+00 0.  1.
         -6    2    1    2    0  503  0.33417383966E+02 -0.62830700971E+02  0.11552008941E+03  0.21937979469E+03  0.17238963056E+03 0.  0.
        -24    2    3    3    0    0  0.82541115073E+02 -0.10805204728E+02  0.28574074433E+02  0.10667889524E+03  0.60283669701E+02 0.  0.
          6    2    1    2  501    0 -0.33417383966E+02  0.62830700971E+02  0.34392232002E+03  0.39145538368E+03  0.17288822016E+03 0.  0.
         24    2    5    5    0    0 -0.26870036483E+02  0.54545319346E+02  0.86254911407E+02  0.13352884614E+03  0.81809854456E+02 0.  0.
          5    1    5    5  501    0 -0.65473474824E+01  0.82853816243E+01  0.25766740861E+03  0.25792653754E+03  0.47000000000E+01 0. -1.
        -13    1    6    6    0    0 -0.47788831467E+02  0.63054523110E+02  0.63260154524E+02  0.10129902491E+03  0.00000000000E+00 0.  1.
         14    1    6    6    0    0  0.20918794983E+02 -0.85092037635E+01  0.22994756884E+02  0.32229821228E+02  0.00000000000E+00 0. -1.
         -5    1    3    3    0  503 -0.49123731107E+02 -0.52025496243E+02  0.86946014980E+02  0.11270089946E+03  0.47000000000E+01 0.  1.
         11    1    4    4    0    0  0.50554402608E+02 -0.31684803330E+02  0.33073091729E+02  0.68216594621E+02  0.00000000000E+00 0. -1.
        -12    1    4    4    0    0  0.31986712464E+02  0.20879598602E+02 -0.44990172969E+01  0.38462300616E+02  0.00000000000E+00 0.  1.
</event>
<event>
12    1  0.8728348E-002  0.1908780E+03  0.7818608E-02  0.1157889E+00
         21   -1    0    0  501  502  0.00000000000E+00  0.00000000000E+00  0.20992690845E+03  0.20992690845E+03  0.00000000000E+00 0. -1.
         21   -1    0    0  502  503 -0.00000000000E+00 -0.00000000000E+00 -0.18698058116E+03  0.18698058116E+03  0.00000000000E+00 0. -1.
         -6    2    1    2    0  503  0.36180533808E+01  0.81604135375E+02  0.66326021200E+02  0.20116226991E+03  0.17144909603E+03 0.  0.
        -24    2    3    3    0    0  0.63468240190E+01  0.68933174297E+02  0.11230569137E+03  0.15315998338E+03  0.77803261509E+02 0.  0.
          6    2    1    2  501    0 -0.36180533808E+01 -0.81604135375E+02 -0.43379693916E+02  0.19574521969E+03  0.17251686285E+03 0.  0.
         24    2    5    5    0    0 -0.83579772645E+01 -0.36330724175E+02  0.42415882852E+02  0.98507780230E+02  0.80714920211E+02 0.  0.
          5    1    5    5  501    0  0.47399238836E+01 -0.45273411200E+02 -0.85795576769E+02  0.97237439462E+02  0.47000000000E+01 0. -1.
        -11    1    6    6    0    0  0.55023638711E+01  0.24684007248E+02  0.19269529103E+02  0.31794511694E+02  0.00000000000E+00 0.  1.
         12    1    6    6    0    0 -0.13860341136E+02 -0.61014731422E+02  0.23146353749E+02  0.66713268537E+02  0.00000000000E+00 0. -1.
         -5    1    3    3    0  503 -0.27287706382E+01  0.12670961078E+02 -0.45979670168E+02  0.48002286535E+02  0.47000000000E+01 0.  1.
         13    1    4    4    0    0  0.39923568522E+02  0.36407711043E+02  0.79209031055E+02  0.95882654050E+02  0.00000000000E+00 0. -1.
        -14    1    4    4    0    0 -0.33576744503E+02  0.32525463254E+02  0.33096660313E+02  0.57277329330E+02  0.00000000000E+00 0.  1.
</event>
<event>
12    1  0.8728348E-002  0.1750566E+03  0.7818608E-02  0.1172899E+00
         21   -1    0    0  501  502  0.00000000000E+00  0.00000000000E+00  0.80533616573E+02  0.80533616573E+02  0.00000000000E+00 0. -1.
         21   -1    0    0  502  503 -0.00000000000E+00 -0.00000000000E+00 -0.39349136632E+03  0.39349136632E+03  0.00000000000E+00 0. -1.
         -6    2    1    2    0  503 -0.20046915554E+02  0.12933576041E+02 -0.20221799619E+03  0.26688223601E+03  0.17252493647E+03 0.  0.
        -24    2    3    3    0    0 -0.72638176066E+02 -0.20797922326E+02 -0.11091078773E+03  0.15614492982E+03  0.79819659734E+02 0.  0.
          6    2    1    2  501    0  0.20046915554E+02 -0.12933576041E+02 -0.11073975356E+03  0.20714274688E+03  0.17342337892E+03 0.  0.
         24    2    5    5    0    0  0.72516473156E+02  0.16270484961E+02 -0.44542272655E+02  0.11764342771E+03  0.79577600309E+02 0.  0.
          5    1    5    5  501    0 -0.52469557602E+02 -0.29204061003E+02 -0.66197480903E+02  0.89499319170E+02  0.47000000000E+01 0. -1.
        -11    1    6    6    0    0 -0.45531265973E+01  0.28031852450E+02 -0.11571344157E+01  0.28422784410E+02  0.00000000000E+00 0.  1.
         12    1    6    6    0    0  0.77069599753E+02 -0.11761367488E+02 -0.43385138239E+02  0.89220643303E+02  0.00000000000E+00 0. -1.
         -5    1    3    3    0  503  0.52591260513E+02  0.33731498367E+02 -0.91307208458E+02  0.11073730618E+03  0.47000000000E+01 0.  1.
         13    1    4    4    0    0 -0.49703256676E+02 -0.14916586281E+02 -0.12003396643E+03  0.13077106471E+03  0.00000000000E+00 0. -1.
        -14    1    4    4    0    0 -0.22934919391E+02 -0.58813360449E+01  0.91231786973E+01  0.25373865111E+02  0.00000000000E+00 0.  1.
</event>
<event>
12    1  0.8728348E-002  0.1708691E+03  0.7818608E-02  0.1177029E+00
         21   -1    0    0  503  502  0.00000000000E+00  0.00000000000E+00  0.90890517718E+03  0.90890517718E+03  0.00000000000E+00 0. -1.
         21   -1    0    0  501  503 -0.00000000000E+00 -0.00000000000E+00 -0.50485729400E+02  0.50485729400E+02  0.00000000000E+00 0. -1.
          6    2    1    2  501    0 -0.33877627324E+01  0.43508525007E+00  0.13916618944E+03  0.22011997993E+03  0.17051073587E+03 0.  0.
         24    2    3    3    0    0 -0.48040020696E+02 -0.47431391043E+02  0.94448291251E+02  0.14070459029E+03  0.79496676430E+02 0.  0.
         -6    2    1    2    0  502  0.33877627324E+01 -0.43508525007E+00  0.71925325834E+03  0.73927092665E+03  0.17083497042E+03 0.  0.
        -24    2    5    5    0    0  0.44991284248E+02 -0.28738110134E+02  0.62425087370E+03  0.63166303982E+03  0.80367580079E+02 0.  0.
          5    1    3    3  501    0  0.44652257963E+02  0.47866476293E+02  0.44717898188E+02  0.79415389644E+02  0.47000000000E+01 0. -1.
        -13    1    4    4    0    0 -0.16055247155E+02  0.18897821370E+02  0.46892592811E+02  0.53045394468E+02  0.00000000000E+00 0.  1.
         14    1    4    4    0    0 -0.31984773541E+02 -0.66329212413E+02  0.47555698440E+02  0.87659195821E+02  0.00000000000E+00 0. -1.
         -5    1    5    5    0  502 -0.41603521515E+02  0.28303024884E+02  0.95002384644E+02  0.10760788683E+03  0.47000000000E+01 0.  1.
         13    1    6    6    0    0  0.65976526277E+01 -0.16743285758E+02  0.51381299763E+03  0.51412806107E+03  0.00000000000E+00 0. -1.
        -14    1    6    6    0    0  0.38393631620E+02 -0.11994824376E+02  0.11043787607E+03  0.11753497875E+03  0.00000000000E+00 0.  1.
</event>
<event>
12    1  0.8728348E-002  0.2071364E+03  0.7818608E-02  0.1144689E+00
         21   -1    0    0  503  502  0.00000000000E+00  0.00000000000E+00  0.55465623563E+03  0.55465623563E+03  0.00000000000E+00 0.  1.
         21   -1    0    0  501  503 -0.00000000000E+00 -0.00000000000E+00 -0.14528744874E+03  0.14528744874E+03  0.00000000000E+00 0.  1.
          6    2    1    2  501    0  0.25300244442E+02  0.11295540648E+03 -0.38352808038E+02  0.20662825078E+03  0.16680908223E+03 0.  0.
         24    2    3    3    0    0  0.68138881539E+02  0.33285814624E+02 -0.92669782112E+01  0.11149430210E+03  0.81204986814E+02 0.  0.
         -6    2    1    2    0  502 -0.25300244442E+02 -0.11295540648E+03  0.44772159493E+03  0.49331543358E+03  0.17177445741E+03 0.  0.
        -24    2    5    5    0    0 -0.15257789717E+02 -0.45567102667E+02  0.91523614029E+02  0.13062944545E+03  0.79864379427E+02 0.  0.
          5    1    3    3  501    0 -0.42838637097E+02  0.79669591857E+02 -0.29085829827E+02  0.95133948681E+02  0.47000000000E+01 0. -1.
        -13    1    4    4    0    0 -0.82325866220E+01 -0.17223905549E+02 -0.54436502063E+01  0.19851240073E+02  0.00000000000E+00 0.  1.
         14    1    4    4    0    0  0.76371468161E+02  0.50509720174E+02 -0.38233280049E+01  0.91643062029E+02  0.00000000000E+00 0. -1.
         -5    1    5    5    0  502 -0.10042454725E+02 -0.67388303814E+02  0.35619798090E+03  0.36268598813E+03  0.47000000000E+01 0.  1.
         13    1    6    6    0    0  0.28181568635E+02  0.15259308567E+01  0.36765835195E+02  0.46349281691E+02  0.00000000000E+00 0. -1.
        -14    1    6    6    0    0 -0.43439358352E+02 -0.47093033524E+02  0.54757778835E+02  0.84280163760E+02  0.00000000000E+00 0.  1.
</event>
<event>
12    1  0.8728348E-002  0.2042027E+03  0.7818608E-02  0.1146473E+00
         21   -1    0    0  503  502  0.00000000000E+00  0.00000000000E+00  0.87520312534E+02  0.87520312534E+02  0.00000000000E+00 0. -1.
         21   -1    0    0  501  503 -0.00000000000E+00 -0.00000000000E+00 -0.51062846903E+03  0.51062846903E+03  0.00000000000E+00 0. -1.
          6    2    1    2  501    0 -0.89973817290E+02 -0.57514954012E+02 -0.29130450156E+03  0.35510364185E+03  0.17273397492E+03 0.  0.
         24    2    3    3    0    0 -0.28428821765E+02 -0.16841228511E+02 -0.26208492848E+03  0.27561771937E+03  0.78643452450E+02 0.  0.
         -6    2    1    2    0  502  0.89973817290E+02  0.57514954012E+02 -0.13180365494E+03  0.24304513972E+03  0.17405596443E+03 0.  0.
        -24    2    5    5    0    0  0.75388904472E+02  0.92134874125E+02 -0.49219824208E+02  0.15219670743E+03  0.81048903202E+02 0.  0.
          5    1    3    3  501    0 -0.61544995525E+02 -0.40673725501E+02 -0.29219573078E+02  0.79485922472E+02  0.47000000000E+01 0. -1.
        -11    1    4    4    0    0  0.27437047612E+01  0.90833288140E+01  0.89501118662E+00  0.95307829261E+01  0.00000000000E+00 0.  1.
         12    1    4    4    0    0 -0.31172526527E+02 -0.25924557325E+02 -0.26297993966E+03  0.26608693645E+03  0.00000000000E+00 0. -1.
         -5    1    5    5    0  502  0.14584912818E+02 -0.34619920113E+02 -0.82583830734E+02  0.90848432289E+02  0.47000000000E+01 0.  1.
         13    1    6    6    0    0  0.45619173485E+02  0.38392266901E+02  0.16866556530E+02  0.61964149929E+02  0.00000000000E+00 0. -1.
        -14    1    6    6    0    0  0.29769730987E+02  0.53742607224E+02 -0.66086380738E+02  0.90232557502E+02  0.00000000000E+00 0.  1.
</event>
<event>
12    1  0.8728348E-002  0.2211496E+03  0.7818608E-02  0.1133364E+00
         21   -1    0    0  501  502  0.00000000000E+00  0.00000000000E+00  0.98495150933E+03  0.98495150933E+03  0.00000000000E+00 0. -1.
         21   -1    0    0  502  503 -0.00000000000E+00 -0.00000000000E+00 -0.76245027368E+02  0.76245027368E+02  0.00000000000E+00 0. -1.
         -6    2    1    2    0  503  0.13349905632E+03 -0.26606639264E+02  0.13744039885E+03  0.25885091225E+03  0.17200005885E+03 0.  0.
        -24    2    3    3    0    0  0.14368930711E+03 -0.21704061601E+02  0.53800783664E+02  0.17431954702E+03  0.79844203827E+02 0.  0.
          6    2    1    2  501    0 -0.13349905632E+03  0.26606639264E+02  0.77126608311E+03  0.80234562445E+03  0.17429061598E+03 0.  0.
         24    2    5    5    0    0 -0.86874568744E+02  0.54089588212E+02  0.28828452593E+03  0.31631843394E+03  0.80476763836E+02 0.  0.
          5    1    5    5  501    0 -0.46624487576E+02 -0.27482948948E+02  0.48298155719E+03  0.48602719050E+03  0.47000000000E+01 0. -1.
        -13    1    6    6    0    0 -0.33341790346E+02  0.69328797509E+01  0.21765134118E+02  0.40416096648E+02  0.00000000000E+00 0.  1.
         14    1    6    6    0    0 -0.53532778399E+02  0.47156708461E+02  0.26651939181E+03  0.27590233730E+03  0.00000000000E+00 0. -1.
         -5    1    3    3    0  503 -0.10190250786E+02 -0.49025776631E+01  0.83639615182E+02  0.84531365224E+02  0.47000000000E+01 0.  1.
         11    1    4    4    0    0  0.85377521265E+02  0.25754578562E+02  0.40604839615E+02  0.97986593238E+02  0.00000000000E+00 0. -1.
        -12    1    4    4    0    0  0.58311785842E+02 -0.47458640163E+02  0.13195944048E+02  0.76332953785E+02  0.00000000000E+00 0.  1.
</event>
<event>
12    1  0.8728348E-002  0.2091457E+03  0.7818608E-02  0.1142288E+00
         21   -1    0    0  503  502  0.00000000000E+00  0.00000000000E+00  0.16787737354E+03  0.16787737354E+03  0.00000000000E+00 0.  1.
         21   -1    0    0  501  503 -0.00000000000E+00 -0.00000000000E+00 -0.87370617565E+03  0.87370617565E+03  0.00000000000E+00 0. -1.
          6    2    1    2  501    0 -0.92881267680E+01  0.11790415232E+03 -0.78934553229E+03  0.81658331324E+03  0.17249428887E+03 0.  0.
         24    2    3    3    0    0 -0.89639228482E+01  0.49331800314E+01 -0.49253019811E+03  0.49896093007E+03  0.79191701031E+02 0.  0.
         -6    2    1    2    0  502  0.92881267680E+01 -0.11790415232E+03  0.83516730178E+02  0.22500023594E+03  0.17222776640E+03 0.  0.
        -24    2    5    5    0    0 -0.46279223981E+02 -0.92591192266E+02  0.96412300515E+02  0.16241539632E+03  0.79803094007E+02 0.  0.
          5    1    3    3  501    0 -0.32420391978E+00  0.11297097229E+03 -0.29681533418E+03  0.31762238317E+03  0.47000000000E+01 0. -1.
        -13    1    4    4    0    0  0.15716892964E+02 -0.22984193209E+02 -0.79152836518E+02  0.83907481137E+02  0.00000000000E+00 0.  1.
         14    1    4    4    0    0 -0.24680815812E+02  0.27917373241E+02 -0.41337736159E+03  0.41505344893E+03  0.00000000000E+00 0. -1.
         -5    1    5    5    0  502  0.55567350749E+02 -0.25312960054E+02 -0.12895570337E+02  0.62584839620E+02  0.47000000000E+01 0.  1.
         11    1    6    6    0    0 -0.42557634839E+02 -0.74109853936E+01  0.47144982261E+02  0.63943133642E+02  0.00000000000E+00 0. -1.
        -12    1    6    6    0    0 -0.37215891419E+01 -0.85180206872E+02  0.49267318254E+02  0.98472262676E+02  0.00000000000E+00 0.  1.
</event>
<event>
12    1  0.8728348E-002  0.1939824E+03  0.7818608E-02  0.1154940E+00
         21   -1    0    0  503  502  0.00000000000E+00  0.00000000000E+00  0.15168904782E+04  0.15168904782E+04  0.00000000000E+00 0. -1.
         21   -1    0    0  501  503 -0.00000000000E+00 -0.00000000000E+00 -0.25993034104E+02  0.25993034104E+02  0.00000000000E+00 0.  1.
          6    2    1    2  501    0  0.66880499002E+02  0.59895793436E+02  0.91097628474E+03  0.93137903161E+03  0.17183888367E+03 0.  0.
         24    2    3    3    0    0  0.12933563521E+02  0.96195581055E+02  0.67039110655E+03  0.68211759377E+03  0.80245305826E+02 0.  0.
         -6    2    1    2    0  502 -0.66880499002E+02 -0.59895793436E+02  0.57992115934E+03  0.61150448068E+03  0.17195543499E+03 0.  0.
        -24    2    5    5    0    0 -0.32183595528E+02  0.30910031895E+02  0.33861550590E+03  0.35131208762E+03  0.82270943703E+02 0.  0.
          5    1    3    3  501    0  0.53946935481E+02 -0.36299787619E+02  0.24058517819E+03  0.24926143784E+03  0.47000000000E+01 0. -1.
        -11    1    4    4    0    0  0.31224996555E+01  0.25958724639E+02  0.40238702037E+02  0.47987066285E+02  0.00000000000E+00 0.  1.
         12    1    4    4    0    0  0.98110638653E+01  0.70236856417E+02  0.63015240452E+03  0.63413052749E+03  0.00000000000E+00 0. -1.
         -5    1    5    5    0  502 -0.34696903474E+02 -0.90805825331E+02  0.24130565344E+03  0.26019239306E+03  0.47000000000E+01 0.  1.
         11    1    6    6    0    0 -0.43289111818E+02 -0.87369007241E+01  0.24634602821E+03  0.25027314329E+03  0.00000000000E+00 0. -1.
        -12    1    6    6    0    0  0.11105516290E+02  0.39646932619E+02  0.92269477690E+02  0.10103894433E+03  0.00000000000E+00 0.  1.
</event>
<event>
12    1  0.8728348E-002  0.1898723E+03  0.7818608E-02  0.1159070E+00
         21   -1    0    0  501  502  0.00000000000E+00  0.00000000000E+00  0.22782730232E+02  0.22782730232E+02  0.00000000000E+00 0. -1.
         21   -1    0    0  502  503 -0.00000000000E+00 -0.00000000000E+00 -0.19239608154E+04  0.19239608154E+04  0.00000000000E+00 0. -1.
         -6    2    1    2    0  503 -0.52218229510E+02 -0.60238292197E+02 -0.13758553149E+04  0.13888950012E+04  0.17232550961E+03 0.  0.
        -24    2    3    3    0    0 -0.74621646139E+02 -0.51390785156E+02 -0.56546665113E+03  0.57813482213E+03  0.79233428282E+02 0.  0.
          6    2    1    2  501    0  0.52218229510E+02  0.60238292197E+02 -0.52532277019E+03  0.55784854443E+03  0.16992819161E+03 0.  0.
         24    2    5    5    0    0  0.57790385893E+02  0.79682906463E+02 -0.52165752260E+03  0.53676143959E+03  0.79354759550E+02 0.  0.
          5    1    5    5  501    0 -0.55721563826E+01 -0.19444614266E+02 -0.36652475923E+01  0.21087104842E+02  0.47000000000E+01 0. -1.
        -11    1    6    6    0    0 -0.59940439432E+01 -0.60865746088E+01 -0.14444778784E+03  0.14470016712E+03  0.00000000000E+00 0.  1.
         12    1    6    6    0    0  0.63784429836E+02  0.85769481072E+02 -0.37720973476E+03  0.39206127247E+03  0.00000000000E+00 0. -1.
         -5    1    3    3    0  503  0.22403416628E+02 -0.88475070407E+01 -0.81038866382E+03  0.81076017903E+03  0.47000000000E+01 0.  1.
         11    1    4    4    0    0 -0.14735551555E+02 -0.30320599549E+02 -0.39146137950E+03  0.39291027840E+03  0.00000000000E+00 0. -1.
        -12    1    4    4    0    0 -0.59886094584E+02 -0.21070185607E+02 -0.17400527163E+03  0.18522454373E+03  0.00000000000E+00 0.  1.
</event>
<event>
12    1  0.8728348E-002  0.1788231E+03  0.7818608E-02  0.1169737E+00
         21   -1    0    0  503  502  0.00000000000E+00  0.00000000000E+00  0.33126116084E+02  0.33126116084E+02  0.00000000000E+00 0. -1.
         21   -1    0    0  501  503 -0.00000000000E+00 -0.00000000000E+00 -0.10167497164E+04  0.10167497164E+04  0.00000000000E+00 0. -1.
          6    2    1    2  501    0 -0.41039946370E+02  0.27252868833E+02 -0.35125754381E+03  0.39271182778E+03  0.16856370172E+03 0.  0.
         24    2    3    3    0    0 -0.61100933023E+02  0.73235717881E+02 -0.23106589042E+03  0.26238535642E+03  0.79736034253E+02 0.  0.
         -6    2    1    2    0  502  0.41039946370E+02 -0.27252868833E+02 -0.63236605647E+03  0.65716400467E+03  0.17190318089E+03 0.  0.
        -24    2    5    5    0    0  0.12926937854E+02 -0.76135406098E+02 -0.51695161687E+03  0.52862441323E+03  0.79000571535E+02 0.  0.
          5    1    3    3  501    0  0.20060986653E+02 -0.45982849048E+02 -0.12019165339E+03  0.13032647136E+03  0.47000000000E+01 0. -1.
        -11    1    4    4    0    0 -0.52144808765E+02  0.21325342840E+01 -0.86324610507E+02  0.10087401629E+03  0.00000000000E+00 0.  1.
         12    1    4    4    0    0 -0.89561242579E+01  0.71103183597E+02 -0.14474127991E+03  0.16151134012E+03  0.00000000000E+00 0. -1.
         -5    1    5    5    0  502  0.28113008517E+02  0.48882537265E+02 -0.11541443961E+03  0.12853959144E+03  0.47000000000E+01 0.  1.
         13    1    6    6    0    0  0.41167337882E+02 -0.66915149509E+02 -0.41761439674E+03  0.42494019733E+03  0.00000000000E+00 0. -1.
        -14    1    6    6    0    0 -0.28240400028E+02 -0.92202565887E+01 -0.99337220122E+02  0.10368421590E+03  0.00000000000E+00 0.  1.
</event>
<event>
12    1  0.8728348E-002  0.2515842E+03  0.7818608E-02  0.1112409E+00
         21   -1    0    0  501  502  0.00000000000E+00  0.00000000000E+00  0.53033193494E+02  0.53033193494E+02  0.00000000000E+00 0. -1.
         21   -1    0    0  502  503 -0.00000000000E+00 -0.00000000000E+00 -0.19251399494E+04  0.19251399494E+04  0.00000000000E+00 0.  1.
         -6    2    1    2    0  503  0.18052485162E+03  0.28630540720E+02 -0.15463381910E+04  0.15665667980E+04  0.17193254987E+03 0.  0.
        -24    2    3    3    0    0  0.10375539200E+03  0.78174451874E+02 -0.11392737343E+04  0.11493477777E+04  0.78608179740E+02 0.  0.
          6    2    1    2  501    0 -0.18052485162E+03 -0.28630540720E+02 -0.32576856489E+03  0.41160634489E+03  0.17287479680E+03 0.  0.
         24    2    5    5    0    0 -0.11920176247E+03 -0.80205712830E+02 -0.17326412019E+03  0.23926884086E+03  0.81160990112E+02 0.  0.
          5    1    5    5  501    0 -0.61323089142E+02  0.51575172109E+02 -0.15250444470E+03  0.17233750402E+03  0.47000000000E+01 0. -1.
        -11    1    6    6    0    0 -0.51541204368E+01 -0.32726123322E+02 -0.72996533112E+02  0.80162696758E+02  0.00000000000E+00 0.  1.
         12    1    6    6    0    0 -0.11404764204E+03 -0.47479589508E+02 -0.10026758708E+03  0.15910614411E+03  0.00000000000E+00 0. -1.
         -5    1    3    3    0  503  0.76769459618E+02 -0.49543911154E+02 -0.40706445664E+03  0.41721902032E+03  0.47000000000E+01 0.  1.
         11    1    4    4    0    0  0.14268629062E+02  0.26994313186E+02 -0.90338361299E+02  0.95358828861E+02  0.00000000000E+00 0. -1.
        -12    1    4    4    0    0  0.89486762936E+02  0.51180138688E+02 -0.10489353730E+04  0.10539889488E+04  0.00000000000E+00 0.  1.
</event>
<event>
12    1  0.8728348E-002  0.1712842E+03  0.7818608E-02  0.1176778E+00
         21   -1    0    0  503  502  0.00000000000E+00  0.00000000000E+00  0.10980044314E+03  0.10980044314E+03  0.00000000000E+00 0.  1.
         21   -1    0    0  501  503 -0.00000000000E+00 -0.00000000000E+00 -0.76037077111E+03  0.76037077111E+03  0.00000000000E+00 0.  1.
          6    2    1    2  501    0  0.81904700334E+01  0.16903023148E+02 -0.67590699992E+03  0.69702318905E+03  0.16922841825E+03 0.  0.
         24    2    3    3    0    0  0.16812891154E+02  0.69489810516E+02 -0.32301977778E+03  0.34010415355E+03  0.78851451174E+02 0.  0.
         -6    2    1    2    0  502 -0.81904700334E+01 -0.16903023148E+02  0.25336671947E+02  0.17314802520E+03  0.17025127223E+03 0.  0.
        -24    2    5    5    0    0 -0.44858750359E+02 -0.25454268237E+02 -0.33470976687E+02  0.10316148283E+03  0.82835729035E+02 0.  0.
          5    1    3    3  501    0 -0.86224211209E+01 -0.52586787368E+02 -0.35288722214E+03  0.35691903550E+03  0.47000000000E+01 0. -1.
        -13    1    4    4    0    0  0.41914961910E+02  0.12878399177E+02 -0.15291191140E+03  0.15907473038E+03  0.00000000000E+00 0.  1.
         14    1    4    4    0    0 -0.25102070756E+02  0.56611411339E+02 -0.17010786637E+03  0.18102942317E+03  0.00000000000E+00 0. -1.
         -5    1    5    5    0  502  0.36668280326E+02  0.85512450888E+01  0.58807648634E+02  0.69986542367E+02  0.47000000000E+01 0.  1.
         11    1    6    6    0    0 -0.10243536575E+02  0.26640352604E+02 -0.28632016161E+02  0.40428093918E+02  0.00000000000E+00 0. -1.
        -12    1    6    6    0    0 -0.34615213784E+02 -0.52094620840E+02 -0.48389605266E+01  0.62733388915E+02  0.00000000000E+00 0.  1.
</event>
<event>
12    1  0.8728348E-002  0.2030040E+03  0.7818608E-02  0.1147489E+00
         21   -1    0    0  501  502  0.00000000000E+00  0.00000000000E+00  0.41430454251E+03  0.41430454251E+03  0.00000000000E+00 0. -1.
         21   -1    0    0  502  503 -0.00000000000E+00 -0.00000000000E+00 -0.17972102165E+03  0.17972102165E+03  0.00000000000E+00 0.  1.
         -6    2    1    2    0  503 -0.59092016210E+02 -0.87464485902E+02 -0.81738969202E+02  0.21884214152E+03  0.17340334814E+03 0.  0.
        -24    2    3    3    0    0 -0.47253117963E+02 -0.45307618589E+02  0.23518285218E+02  0.10474332215E+03  0.78309746113E+02 0.  0.
          6    2    1    2  501    0  0.59092016210E+02  0.87464485902E+02  0.31632249006E+03  0.37518342263E+03  0.17193248740E+03 0.  0.
         24    2    5    5    0    0  0.93798811572E+02  0.88687897418E+02  0.18416573915E+03  0.23845904590E+03  0.79258670791E+02 0.  0.
          5    1    5    5  501    0 -0.34706795362E+02 -0.12234115163E+01  0.13215675092E+03  0.13672437673E+03  0.47000000000E+01 0. -1.
        -13    1    6    6    0    0  0.64060753438E+02  0.40834135194E+02  0.44940478167E+02  0.88265810515E+02  0.00000000000E+00 0.  1.
         14    1    6    6    0    0  0.29738058133E+02  0.47853762224E+02  0.13922526098E+03  0.15019323538E+03  0.00000000000E+00 0. -1.
         -5    1    3    3    0  503 -0.11838898246E+02 -0.42156867313E+02 -0.10525725442E+03  0.11409881937E+03  0.47000000000E+01 0.  1.
         13    1    4    4    0    0 -0.25474079289E+02 -0.66682832672E+02  0.19227289799E+02  0.73927109789E+02  0.00000000000E+00 0. -1.
        -14    1    4    4    0    0 -0.21779038674E+02  0.21375214083E+02  0.42909954190E+01  0.30816212362E+02  0.00000000000E+00 0.  1.
</event>
<event>
12    1  0.8728348E-002  0.2020725E+03  0.7818608E-02  0.1148154E+00
         21   -1    0    0  501  502  0.00000000000E+00  0.00000000000E+00  0.48150791110E+02  0.48150791110E+02  0.00000000000E+00 0. -1.
         21   -1    0    0  502  503 -0.00000000000E+00 -0.00000000000E+00 -0.20954275135E+04  0.20954275135E+04  0.00000000000E+00 0.  1.
         -6    2    1    2    0  503  0.26878285225E+02 -0.10125877953E+03 -0.18523377160E+04  0.18633272158E+04  0.17279327596E+03 0.  0.
        -24    2    3    3    0    0  0.53178670768E+02  0.19441729786E+01 -0.88516946130E+03  0.89030147993E+03  0.79246445420E+02 0.  0.
          6    2    1    2  501    0 -0.26878285225E+02  0.10125877953E+03 -0.19493900634E+03  0.28025108880E+03  0.17194090245E+03 0.  0.
         24    2    5    5    0    0  0.28335090992E+02 -0.96253386139E+00 -0.75011256228E+02  0.11321076711E+03  0.79913611955E+02 0.  0.
          5    1    5    5  501    0 -0.55213376217E+02  0.10222131339E+03 -0.11992775011E+03  0.16704032169E+03  0.47000000000E+01 0. -1.
        -11    1    6    6    0    0  0.54421890212E+02 -0.17795449575E+01 -0.32753798934E+02  0.63543058308E+02  0.00000000000E+00 0.  1.
         12    1    6    6    0    0 -0.26086799220E+02  0.81701109610E+00 -0.42257457294E+02  0.49667708802E+02  0.00000000000E+00 0. -1.
         -5    1    3    3    0  503 -0.26300385543E+02 -0.10320295251E+03 -0.96716825474E+03  0.97302573587E+03  0.47000000000E+01 0.  1.
         13    1    4    4    0    0  0.24237128347E+02  0.26136936317E+02 -0.71989764372E+03  0.72077957467E+03  0.00000000000E+00 0. -1.
        -14    1    4    4    0    0  0.28941542421E+02 -0.24192763338E+02 -0.16527181757E+03  0.16952190525E+03  0.00000000000E+00 0.  1.
</event>
<event>
12    1  0.8728348E-002  0.1865407E+03  0.7818608E-02  0.1163443E+00
         21   -1    0    0  501  502  0.00000000000E+00  0.00000000000E+00  0.89223191730E+02  0.89223191730E+02  0.00000000000E+00 0.  1.
         21   -1    0    0  502  503 -0.00000000000E+00 -0.00000000000E+00 -0.37550052683E+03  0.37550052683E+03  0.00000000000E+00 0. -1.
         -6    2    1    2    0  503 -0.27633361724E+02 -0.39859390199E+02 -0.15465860027E+03  0.23642362726E+03  0.17211762031E+03 0.  0.
        -24    2    3    3    0    0  0.27558686618E+02  0.27771690586E+02 -0.99895979177E+02  0.13326762910E+03  0.79058878711E+02 0.  0.
          6    2    1    2  501    0  0.27633361724E+02  0.39859390199E+02 -0.13161873482E+03  0.22830009130E+03  0.18012514167E+03 0.  0.
         24    2    5    5    0    0  0.46506951610E+02  0.38415243878E+02 -0.34808396147E+01  0.98686403197E+02  0.78027318429E+02 0.  0.
          5    1    5    5  501    0 -0.18873589887E+02  0.14441463212E+01 -0.12813789521E+03  0.12961368810E+03  0.47000000000E+01 0. -1.
        -13    1    6    6    0    0  0.52642709716E+02 -0.24591364115E+01 -0.16714439322E+02  0.55287202135E+02  0.00000000000E+00 0.  1.
         14    1    6    6    0    0 -0.61357581054E+01  0.40874380289E+02  0.13233599707E+02  0.43399201061E+02  0.00000000000E+00 0. -1.
         -5    1    3    3    0  503 -0.55192048341E+02 -0.67631080785E+02 -0.54762621094E+02  0.10315599816E+03  0.47000000000E+01 0.  1.
         11    1    4    4    0    0  0.41384756429E+02  0.30408390712E+02 -0.10610804051E+03  0.11788250316E+03  0.00000000000E+00 0. -1.
        -12    1    4    4    0    0 -0.13826069811E+02 -0.26367001261E+01  0.62120613352E+01  0.15385125934E+02  0.00000000000E+00 0.  1.
</event>
<event>
12    1  0.8728348E-002  0.2089155E+03  0.7818608E-02  0.1142481E+00
         21   -1    0    0  501  502  0.00000000000E+00  0.00000000000E+00  0.90853040231E+03  0.90853040231E+03  0.00000000000E+00 0. -1.
         21   -1    0    0  502  503 -0.00000000000E+00 -0.00000000000E+00 -0.84252715828E+02  0.84252715828E+02  0.00000000000E+00 0. -1.
         -6    2    1    2    0  503 -0.10073314995E+03  0.59894726823E+02  0.86281825450E+02  0.22578665063E+03  0.17262824913E+03 0.  0.
        -24    2    3    3    0    0  0.16130920981E+02  0.37316343117E+02  0.31537746271E+02  0.94691270502E+02  0.79492711578E+02 0.  0.
          6    2    1    2  501    0  0.10073314995E+03 -0.59894726823E+02  0.73799586103E+03  0.76699646751E+03  0.17294838674E+03 0.  0.
         24    2    5    5    0    0  0.25792424987E+02 -0.20872082959E+02  0.17806021305E+03  0.20070246360E+03  0.86458928907E+02 0.  0.
          5    1    5    5  501    0  0.74940724961E+02 -0.39022643864E+02  0.55993564798E+03  0.56629400392E+03  0.47000000000E+01 0. -1.
        -11    1    6    6    0    0  0.12139109833E+02 -0.89625364701E+01  0.18161381138E+03  0.18223957180E+03  0.00000000000E+00 0.  1.
         12    1    6    6    0    0  0.13653315154E+02 -0.11909546489E+02 -0.35535983276E+01  0.18462891792E+02  0.00000000000E+00 0. -1.
         -5    1    3    3    0  503 -0.11686407093E+03  0.22578383705E+02  0.54744079179E+02  0.13109538012E+03  0.47000000000E+01 0.  1.
         11    1    4    4    0    0 -0.53984791364E+01  0.41499668507E+02 -0.14014973540E+02  0.44133723460E+02  0.00000000000E+00 0. -1.
        -12    1    4    4    0    0  0.21529400118E+02 -0.41833253892E+01  0.45552719811E+02  0.50557547042E+02  0.00000000000E+00 0.  1.
</event>
<event>
12    1  0.8728348E-002  0.1972376E+03  0.7818608E-02  0.1153067E+00
         21   -1    0    0  501  502  0.00000000000E+00  0.00000000000E+00  0.24054381200E+03  0.24054381200E+03  0.00000000000E+00 0.  1.
         21   -1    0    0  502  503 -0.00000000000E+00 -0.00000000000E+00 -0.38693071384E+03  0.38693071384E+03  0.00000000000E+00 0.  1.
         -6    2    1    2    0  503 -0.84883125029E+02 -0.43579222279E+02  0.16774512807E+03  0.25892297186E+03  0.17262208386E+03 0.  0.
        -24    2    3    3    0    0 -0.27877292617E+02 -0.88457922382E+02  0.12306129693E+03  0.17358542199E+03  0.79911629005E+02 0.  0.
          6    2    1    2  501    0  0.84883125029E+02  0.43579222279E+02 -0.31413202991E+03  0.36855155399E+03  0.16747245207E+03 0.  0.
         24    2    5    5    0    0  0.87141695462E+02 -0.24051402523E+02 -0.24111126707E+03  0.26888649312E+03  0.77415489563E+02 0.  0.
          5    1    5    5  501    0 -0.22585704327E+01  0.67630624802E+02 -0.73020762844E+02  0.99665060868E+02  0.47000000000E+01 0. -1.
        -11    1    6    6    0    0  0.52928381135E+02 -0.45154400184E+01 -0.47350711457E+02  0.71161032901E+02  0.00000000000E+00 0.  1.
         12    1    6    6    0    0  0.34213314327E+02 -0.19535962505E+02 -0.19376055561E+03  0.19772546022E+03  0.00000000000E+00 0. -1.
         -5    1    3    3    0  503 -0.57005832412E+02  0.44878700104E+02  0.44683831134E+02  0.85337549864E+02  0.47000000000E+01 0.  1.
         11    1    4    4    0    0  0.13002988150E+02  0.96027072276E+01  0.17317000872E+02  0.23688989133E+02  0.00000000000E+00 0. -1.
        -12    1    4    4    0    0 -0.40880280767E+02 -0.98060629610E+02  0.10574429606E+03  0.14989643286E+03  0.00000000000E+00 0.  1.
</event>
<event>
12    1  0.8728348E-002  0.1825721E+03  0.7818608E-02  0.1165419E+00
         21   -1    0    0  501  502  0.00000000000E+00  0.00000000000E+00  0.18294405715E+03  0.18294405715E+03  0.00000000000E+00 0. -1.
         21   -1    0    0  502  503 -0.00000000000E+00 -0.00000000000E+00 -0.29020629042E+03  0.29020629042E+03  0.00000000000E+00 0. -1.
         -6    2    1    2    0  503  0.57698257533E+02  0.20621326024E+02 -0.19815300952E+03  0.26920498229E+03  0.17161695517E+03 0.  0.
        -24    2    3    3    0    0  0.61122830768E+02 -0.43312448701E+02 -0.16790932333E+03  0.19824002047E+03  0.74118797901E+02 0.  0.
          6    2    1    2  501    0 -0.57698257533E+02 -0.20621326024E+02  0.90890776247E+02  0.20394536528E+03  0.17198328641E+03 0.  0.
         24    2    5    5    0    0 -0.10216487454E+03  0.87286263193E+00  0.82081368656E+02  0.15355711431E+03  0.80025076036E+02 0.  0.
          5    1    5    5  501    0  0.44466617008E+02 -0.21494188656E+02  0.88094075908E+01  0.50388250974E+02  0.47000000000E+01 0. -1.
        -13    1    6    6    0    0  0.36271465994E+01  0.15788798195E+02 -0.36122061896E+01  0.16597902713E+02  0.00000000000E+00 0.  1.
         14    1    6    6    0    0 -0.10579202114E+03 -0.14915935563E+02  0.85693574846E+02  0.13695921159E+03  0.00000000000E+00 0. -1.
         -5    1    3    3    0  503 -0.34245732348E+01  0.63933774725E+02 -0.30243686189E+02  0.70964961824E+02  0.47000000000E+01 0.  1.
         13    1    4    4    0    0  0.61010451573E+02  0.10464229573E+01 -0.96321839706E+02  0.11402309857E+03  0.00000000000E+00 0. -1.
        -14    1    4    4    0    0  0.11237919532E+00 -0.44358871658E+02 -0.71587483621E+02  0.84216921904E+02  0.00000000000E+00 0.  1.
</event>
<event>
12    1  0.8728348E-002  0.1798620E+03  0.7818608E-02  0.1167949E+00
         21   -1    0    0  501  502  0.00000000000E+00  0.00000000000E+00  0.11539480447E+04  0.11539480447E+04  0.00000000000E+00 0.  1.
         21   -1    0    0  502  503 -0.00000000000E+00 -0.00000000000E+00 -0.32430927477E+02  0.32430927477E+02  0.00000000000E+00 0. -1.
         -6    2    1    2    0  503 -0.35028960842E+02 -0.40010340248E+02  0.34209672513E+03  0.38647492846E+03  0.17176974576E+03 0.  0.
        -24    2    3    3    0    0  0.37839185770E+02 -0.57284873406E+02  0.20189427404E+03  0.22745608185E+03  0.79130339180E+02 0.  0.
          6    2    1    2  501    0  0.35028960842E+02  0.40010340248E+02  0.77942039211E+03  0.79990404373E+03  0.17182105843E+03 0.  0.
         24    2    5    5    0    0 -0.66038092617E+01 -0.39446373816E+02  0.35536672465E+03  0.36644094284E+03  0.79961421267E+02 0.  0.
          5    1    5    5  501    0  0.41632770104E+02  0.79456714064E+02  0.42405366746E+03  0.43346310090E+03  0.47000000000E+01 0. -1.
        -11    1    6    6    0    0  0.16025151255E+02 -0.38901203518E+02  0.32904964537E+03  0.33172847063E+03  0.00000000000E+00 0.  1.
         12    1    6    6    0    0 -0.22628960516E+02 -0.54517029728E+00  0.26317079288E+02  0.34712472210E+02  0.00000000000E+00 0. -1.
         -5    1    3    3    0  503 -0.72868146612E+02  0.17274533158E+02  0.14020245108E+03  0.15901884661E+03  0.47000000000E+01 0.  1.
         13    1    4    4    0    0  0.29047606355E+02 -0.25122780607E+02  0.18706224718E+03  0.19096387580E+03  0.00000000000E+00 0. -1.
        -14    1    4    4    0    0  0.87915794142E+01 -0.32162092799E+02  0.14832026867E+02  0.36492206055E+02  0.00000000000E+00 0.  1.
</event>
<event>
12    1  0.8728348E-002  0.1846865E+03  0.7818608E-02  0.1165024E+00
         21   -1    0    0  501  502  0.00000000000E+00  0.00000000000E+00  0.75507716302E+03  0.75507716302E+03  0.00000000000E+00 0. -1.
         21   -1    0    0  502  503 -0.00000000000E+00 -0.00000000000E+00 -0.15111206157E+03  0.15111206157E+03  0.00000000000E+00 0. -1.
         -6    2    1    2    0  503  0.31809322265E+02 -0.61243212375E+02 -0.82096391412E+02  0.19570383999E+03  0.16369976011E+03 0.  0.
        -24    2    3    3    0    0  0.38607749961E+02 -0.78979654586E+02 -0.10507287620E+02  0.12148868127E+03  0.83191059548E+02 0.  0.
          6    2    1    2  501    0 -0.31809322265E+02  0.61243212375E+02  0.68606149287E+03  0.71048538460E+03  0.17130833514E+03 0.  0.
         24    2    5    5    0    0  0.80853254926E+01 -0.12800657980E+02  0.48193023705E+03  0.48965572795E+03  0.85303863876E+02 0.  0.
          5    1    5    5  501    0 -0.39894647758E+02  0.74043870355E+02  0.20413125581E+03  0.22082965665E+03  0.47000000000E+01 0. -1.
        -13    1    6    6    0    0 -0.33319468746E+02  0.14583918941E+02  0.17533220295E+03  0.17906495772E+03  0.00000000000E+00 0.  1.
         14    1    6    6    0    0  0.41404794239E+02 -0.27384576921E+02  0.30659803410E+03  0.31059077023E+03  0.00000000000E+00 0. -1.
         -5    1    3    3    0  503 -0.67984276963E+01  0.17736442211E+02 -0.71589103792E+02  0.74215158716E+02  0.47000000000E+01 0.  1.
         13    1    4    4    0    0  0.22703457364E+02 -0.73879297300E+02 -0.40426486134E+02  0.87223267119E+02  0.00000000000E+00 0. -1.
        -14    1    4    4    0    0  0.15904292597E+02 -0.51003572867E+01  0.29919198514E+02  0.34265414155E+02  0.00000000000E+00 0.  1.
</event>
<event>
12    1  0.8728348E-002  0.1740491E+03  0.7818608E-02  0.1174257E+00
         21   -1    0    0  501  502  0.00000000000E+00  0.00000000000E+00  0.21877285317E+03  0.21877285317E+03  0.00000000000E+00 0.  1.
         21   -1    0    0  502  503 -0.00000000000E+00 -0.00000000000E+00 -0.21464153380E+03  0.21464153380E+03  0.00000000000E+00 0.  1.
         -6    2    1    2    0  503  0.33113929839E+01  0.26664583290E+01 -0.12852619338E+03  0.21457401313E+03  0.17177004804E+03 0.  0.
        -24    2    3    3    0    0  0.15762222506E+02  0.67576164313E+02 -0.67795850820E+02  0.12469321655E+03  0.78339869947E+02 0.  0.
          6    2    1    2  501    0 -0.33113929839E+01 -0.26664583290E+01  0.13265751275E+03  0.21884037384E+03  0.17399717874E+03 0.  0.
         24    2    5    5    0    0 -0.52713561371E+02 -0.85618084003E+01  0.12996518803E+03  0.16879371555E+03  0.93532583593E+02 0.  0.
          5    1    5    5  501    0  0.49402168387E+02  0.58953500713E+01  0.26923247187E+01  0.50046658292E+02  0.47000000000E+01 0. -1.
        -13    1    6    6    0    0 -0.57324016264E+01  0.11219388176E+02  0.11496992775E+03  0.11565820068E+03  0.00000000000E+00 0.  1.
         14    1    6    6    0    0 -0.46981159745E+02 -0.19781196576E+02  0.14995260283E+02  0.53135514865E+02  0.00000000000E+00 0. -1.
         -5    1    3    3    0  503 -0.12450829523E+02 -0.64909705984E+02 -0.60730342556E+02  0.89880796579E+02  0.47000000000E+01 0.  1.
         11    1    4    4    0    0 -0.19871237176E+02  0.13688483192E+02 -0.53264953595E+02  0.58475601070E+02  0.00000000000E+00 0. -1.
        -12    1    4    4    0    0  0.35633459683E+02  0.53887681121E+02 -0.14530897225E+02  0.66217615479E+02  0.00000000000E+00 0.  1.
</event>
<event>
12    1  0.8728348E-002  0.2428137E+03  0.7818608E-02  0.1118078E+00
         21   -1    0    0  503  502  0.00000000000E+00  0.00000000000E+00  0.18270420989E+03  0.18270420989E+03  0.00000000000E+00 0.  1.
         21   -1    0    0  501  503 -0.00000000000E+00 -0.00000000000E+00 -0.33056999431E+03  0.33056999431E+03  0.00000000000E+00 0.  1.
          6    2    1    2  501    0 -0.15904916341E+03 -0.62439946525E+02 -0.11651695747E+03  0.26932266794E+03  0.17251989679E+03 0.  0.
         24    2    3    3    0    0 -0.94165229083E+02 -0.77400473423E+02 -0.12773677750E+02  0.14595938173E+03  0.79265696349E+02 0.  0.
         -6    2    1    2    0  502  0.15904916341E+03  0.62439946525E+02 -0.31348826948E+02  0.24395153626E+03  0.17127235558E+03 0.  0.
        -24    2    5    5    0    0  0.12262971278E+03 -0.46961239455E+01  0.24234954141E+02  0.14937207198E+03  0.81636896371E+02 0.  0.
          5    1    3    3  501    0 -0.64883934326E+02  0.14960526898E+02 -0.10374327972E+03  0.12336328621E+03  0.47000000000E+01 0. -1.
        -11    1    4    4    0    0 -0.23145569686E+02  0.58637197720E+01 -0.26492748159E+02  0.35664636697E+02  0.00000000000E+00 0.  1.
         12    1    4    4    0    0 -0.71019659397E+02 -0.83264193195E+02  0.13719070409E+02  0.11029474503E+03  0.00000000000E+00 0. -1.
         -5    1    5    5    0  502  0.36419450630E+02  0.67136070470E+02 -0.55583781089E+02  0.94579464275E+02  0.47000000000E+01 0. -1.
         11    1    6    6    0    0  0.80143013063E+02  0.30241003750E+02  0.36341381965E+02  0.93049002648E+02  0.00000000000E+00 0. -1.
        -12    1    6    6    0    0  0.42486699716E+02 -0.34937127696E+02 -0.12106427824E+02  0.56323069333E+02  0.00000000000E+00 0.  1.
</event>
<event>
12    1  0.8728348E-002  0.2485815E+03  0.7818608E-02  0.1114316E+00
         21   -1    0    0  501  502  0.00000000000E+00  0.00000000000E+00  0.49331688231E+02  0.49331688231E+02  0.00000000000E+00 0. -1.
         21   -1    0    0  502  503 -0.00000000000E+00 -0.00000000000E+00 -0.12575068656E+04  0.12575068656E+04  0.00000000000E+00 0.  1.
         -6    2    1    2    0  503  0.80698298123E+02  0.16001502273E+03 -0.55145012802E+03  0.60488841012E+03  0.17226642791E+03 0.  0.
        -24    2    3    3    0    0  0.86205819920E+02  0.11076549383E+03 -0.23984772638E+03  0.28933493510E+03  0.80543992986E+02 0.  0.
          6    2    1    2  501    0 -0.80698298123E+02 -0.16001502273E+03 -0.65672504933E+03  0.70195014369E+03  0.17125767425E+03 0.  0.
         24    2    5    5    0    0 -0.59677727305E+02 -0.83128351535E+02 -0.56753756837E+03  0.58224249412E+03  0.80222668149E+02 0.  0.
          5    1    5    5  501    0 -0.21020570818E+02 -0.76886671198E+02 -0.89187480965E+02  0.11970764957E+03  0.47000000000E+01 0. -1.
        -11    1    6    6    0    0  0.10839634788E+02 -0.27834548685E+02 -0.26598348461E+03  0.26765551343E+03  0.00000000000E+00 0.  1.
         12    1    6    6    0    0 -0.70517362093E+02 -0.55293802850E+02 -0.30155408376E+03  0.31458698069E+03  0.00000000000E+00 0. -1.
         -5    1    3    3    0  503 -0.55075217971E+01  0.49249528907E+02 -0.31160240164E+03  0.31555347502E+03  0.47000000000E+01 0.  1.
         11    1    4    4    0    0  0.95287445501E+02  0.65774231264E+02 -0.17716366031E+03  0.21164335402E+03  0.00000000000E+00 0. -1.
        -12    1    4    4    0    0 -0.90816255810E+01  0.44991262561E+02 -0.62684066074E+02  0.77691581073E+02  0.00000000000E+00 0.  1.
</event>
<event>
12    1  0.8728348E-002  0.1775292E+03  0.7818608E-02  0.1170373E+00
         21   -1    0    0  501  502  0.00000000000E+00  0.00000000000E+00  0.45463547245E+03  0.45463547245E+03  0.00000000000E+00 0. -1.
         21   -1    0    0  502  503 -0.00000000000E+00 -0.00000000000E+00 -0.35686261067E+03  0.35686261067E+03  0.00000000000E+00 0. -1.
         -6    2    1    2    0  503  0.63038036304E+01 -0.41513805922E+02 -0.31546693991E+03  0.36198895587E+03  0.17249197075E+03 0.  0.
        -24    2    3    3    0    0 -0.43929057052E+02 -0.39663451899E+02 -0.10968054851E+03  0.15010008644E+03  0.83649636931E+02 0.  0.
          6    2    1    2  501    0 -0.63038036304E+01  0.41513805922E+02  0.41323980169E+03  0.44950912725E+03  0.17183767853E+03 0.  0.
         24    2    5    5    0    0 -0.19903215954E+02 -0.23564002970E+02  0.15137201405E+03  0.17929274464E+03  0.91000007714E+02 0.  0.
          5    1    5    5  501    0  0.13599412324E+02  0.65077808892E+02  0.26186778764E+03  0.27021638261E+03  0.47000000000E+01 0. -1.
        -13    1    6    6    0    0 -0.42018824583E+02 -0.41805815428E+02  0.63512271806E+02  0.86874141681E+02  0.00000000000E+00 0.  1.
         14    1    6    6    0    0  0.22115608629E+02  0.18241812458E+02  0.87859742243E+02  0.92418602963E+02  0.00000000000E+00 0. -1.
         -5    1    3    3    0  503  0.50232860683E+02 -0.18503540229E+01 -0.20578639140E+03  0.21188886943E+03  0.47000000000E+01 0.  1.
         11    1    4    4    0    0 -0.39436375929E+02  0.75770903984E+01 -0.90327200431E+02  0.98851622056E+02  0.00000000000E+00 0. -1.
        -12    1    4    4    0    0 -0.44926811237E+01 -0.47240542298E+02 -0.19353348080E+02  0.51248464388E+02  0.00000000000E+00 0.  1.
</event>
<event>
12    1  0.8728348E-002  0.3364408E+03  0.7818608E-02  0.1068487E+00
         21   -1    0    0  501  502  0.00000000000E+00  0.00000000000E+00  0.76676837344E+02  0.76676837344E+02  0.00000000000E+00 0. -1.
         21   -1    0    0  502  503 -0.00000000000E+00 -0.00000000000E+00 -0.15958753444E+04  0.15958753444E+04  0.00000000000E+00 0.  1.
         -6    2    1    2    0  503 -0.52198402933E+02 -0.28248518850E+03 -0.99330118374E+03  0.10482442421E+04  0.17218070306E+03 0.  0.
        -24    2    3    3    0    0 -0.12285133117E+02 -0.24477963368E+03 -0.63175296480E+03  0.68252032630E+03  0.81573241480E+02 0.  0.
          6    2    1    2  501    0  0.52198402933E+02  0.28248518850E+03 -0.52589732336E+03  0.62430793968E+03  0.17512810694E+03 0.  0.
         24    2    5    5    0    0  0.37754548985E+01  0.37551525482E+02 -0.12971735022E+03  0.15599400407E+03  0.77994661550E+02 0.  0.
          5    1    5    5  501    0  0.48422948035E+02  0.24493366301E+03 -0.39617997314E+03  0.46831393561E+03  0.47000000000E+01 0. -1.
        -11    1    6    6    0    0  0.34064757424E+02 -0.49647612440E+01 -0.53158538374E+02  0.63331562073E+02  0.00000000000E+00 0.  1.
         12    1    6    6    0    0 -0.30289302526E+02  0.42516286726E+02 -0.76558811847E+02  0.92662441992E+02  0.00000000000E+00 0. -1.
         -5    1    3    3    0  503 -0.39913269816E+02 -0.37705554815E+02 -0.36154821895E+03  0.36572391581E+03  0.47000000000E+01 0.  1.
         11    1    4    4    0    0  0.23622924541E+02 -0.24032564989E+02 -0.10436457463E+03  0.10967028395E+03  0.00000000000E+00 0. -1.
        -12    1    4    4    0    0 -0.35908057658E+02 -0.22074706869E+03 -0.52738839016E+03  0.57285004235E+03  0.00000000000E+00 0.  1.
</event>
<event>
12    1  0.8728348E-002  0.1920427E+03  0.7818608E-02  0.1156707E+00
         21   -1    0    0  501  502  0.00000000000E+00  0.00000000000E+00  0.17425281146E+03  0.17425281146E+03  0.00000000000E+00 0. -1.
         21   -1    0    0  502  503 -0.00000000000E+00 -0.00000000000E+00 -0.39046181422E+03  0.39046181422E+03  0.00000000000E+00 0. -1.
         -6    2    1    2    0  503  0.71936419358E+02 -0.46598368871E+02 -0.29932873591E+03  0.35545574419E+03  0.17147838793E+03 0.  0.
        -24    2    3    3    0    0  0.51453238683E+02 -0.98954102219E+02 -0.20861229076E+03  0.24862762558E+03  0.76532726533E+02 0.  0.
          6    2    1    2  501    0 -0.71936419358E+02  0.46598368871E+02  0.83119733145E+02  0.20925888149E+03  0.17185497675E+03 0.  0.
         24    2    5    5    0    0 -0.22717745580E+02 -0.14712793972E+02  0.97332590749E+02  0.12922369011E+03  0.80576464269E+02 0.  0.
          5    1    5    5  501    0 -0.49218673778E+02  0.61311162842E+02 -0.14212857604E+02  0.80035191378E+02  0.47000000000E+01 0. -1.
        -13    1    6    6    0    0 -0.25130606017E+02  0.60060452102E+01 -0.36628939604E+01  0.26096680440E+02  0.00000000000E+00 0.  1.
         14    1    6    6    0    0  0.24128604371E+01 -0.20718839182E+02  0.10099548471E+03  0.10312700967E+03  0.00000000000E+00 0. -1.
         -5    1    3    3    0  503  0.20483180675E+02  0.52355733348E+02 -0.90716445152E+02  0.10682811861E+03  0.47000000000E+01 0.  1.
         13    1    4    4    0    0  0.29458822934E+02 -0.33944547463E+02 -0.15544753035E+03  0.16181467561E+03  0.00000000000E+00 0. -1.
        -14    1    4    4    0    0  0.21994415749E+02 -0.65009554756E+02 -0.53164760409E+02  0.86812949973E+02  0.00000000000E+00 0.  1.
</event>
<event>
12    1  0.8728348E-002  0.2551409E+03  0.7818608E-02  0.1110186E+00
         21   -1    0    0  503  502  0.00000000000E+00  0.00000000000E+00  0.13262258384E+03  0.13262258384E+03  0.00000000000E+00 0. -1.
         21   -1    0    0  501  503 -0.00000000000E+00 -0.00000000000E+00 -0.90270538874E+03  0.90270538874E+03  0.00000000000E+00 0. -1.
          6    2    1    2  501    0 -0.18341576100E+03  0.42780935726E+02 -0.73540534605E+03  0.77840727148E+03  0.17212003790E+03 0.  0.
         24    2    3    3    0    0 -0.14629697584E+03  0.88229575618E+02 -0.61859054440E+03  0.64759759689E+03  0.86839638013E+02 0.  0.
         -6    2    1    2    0  502  0.18341576100E+03 -0.42780935726E+02 -0.34677458848E+02  0.25692070110E+03  0.17127221216E+03 0.  0.
        -24    2    5    5    0    0  0.39804300985E+02  0.15022900008E+02 -0.49747331457E+02  0.10130988550E+03  0.77322868619E+02 0.  0.
          5    1    3    3  501    0 -0.37118785159E+02 -0.45448639892E+02 -0.11681480166E+03  0.13080967459E+03  0.47000000000E+01 0. -1.
        -13    1    4    4    0    0 -0.92051972777E+02  0.98941937525E+02 -0.40428051955E+03  0.42626964609E+03  0.00000000000E+00 0.  1.
         14    1    4    4    0    0 -0.54245003060E+02 -0.10712361907E+02 -0.21431002485E+03  0.22132795080E+03  0.00000000000E+00 0. -1.
         -5    1    5    5    0  502  0.14361146001E+03 -0.57803835734E+02  0.15069872609E+02  0.15561081560E+03  0.47000000000E+01 0.  1.
         13    1    6    6    0    0  0.28504536193E+02  0.19448268695E+02  0.13392143057E+02  0.37014770490E+02  0.00000000000E+00 0. -1.
        -14    1    6    6    0    0  0.11299764793E+02 -0.44253686869E+01 -0.63139474513E+02  0.64295115010E+02  0.00000000000E+00 0.  1.
</event>
<event>
12    1  0.8728348E-002  0.1755891E+03  0.7818608E-02  0.1172240E+00
         21   -1    0    0  501  502  0.00000000000E+00  0.00000000000E+00  0.20098119043E+03  0.20098119043E+03  0.00000000000E+00 0. -1.
         21   -1    0    0  502  503 -0.00000000000E+00 -0.00000000000E+00 -0.35785309151E+03  0.35785309151E+03  0.00000000000E+00 0. -1.
         -6    2    1    2    0  503 -0.27597928123E+02  0.22097159232E+02 -0.28985105776E+03  0.33888811413E+03  0.17199298861E+03 0.  0.
        -24    2    3    3    0    0 -0.69011600496E+02  0.71825735728E+01 -0.11075196475E+03  0.15439932791E+03  0.82212921104E+02 0.  0.
          6    2    1    2  501    0  0.27597928123E+02 -0.22097159232E+02  0.13297915669E+03  0.21994616781E+03  0.17158942432E+03 0.  0.
         24    2    5    5    0    0  0.78512383031E+02  0.11687414866E+02  0.90736008876E+02  0.14551329401E+03  0.81488069506E+02 0.  0.
          5    1    5    5  501    0 -0.50914454908E+02 -0.33784574098E+02  0.42243147810E+02  0.74432873803E+02  0.47000000000E+01 0. -1.
        -11    1    6    6    0    0  0.31239330542E+02  0.15217995294E+02 -0.82912959150E+01  0.35724343821E+02  0.00000000000E+00 0.  1.
         12    1    6    6    0    0  0.47273052488E+02 -0.35305804276E+01  0.99027304791E+02  0.10978895019E+03  0.00000000000E+00 0. -1.
         -5    1    3    3    0  503  0.41413672373E+02  0.14914585659E+02 -0.17909909300E+03  0.18448878622E+03  0.47000000000E+01 0.  1.
         13    1    4    4    0    0  0.13684437622E+02  0.74295616349E+01 -0.48364473673E+02  0.50809295732E+02  0.00000000000E+00 0. -1.
        -14    1    4    4    0    0 -0.82696038118E+02 -0.24698806210E+00 -0.62387491080E+02  0.10359003218E+03  0.00000000000E+00 0.  1.
</event>
<event>
12    1  0.8728348E-002  0.2320187E+03  0.7818608E-02  0.1125229E+00
         21   -1    0    0  501  502  0.00000000000E+00  0.00000000000E+00  0.40133004716E+03  0.40133004716E+03  0.00000000000E+00 0.  1.
         21   -1    0    0  502  503 -0.00000000000E+00 -0.00000000000E+00 -0.21417189651E+03  0.21417189651E+03  0.00000000000E+00 0. -1.
         -6    2    1    2    0  503 -0.13788151360E+03 -0.71699024340E+02 -0.94559273213E+02  0.25054767728E+03  0.17228064475E+03 0.  0.
        -24    2    3    3    0    0 -0.55410791701E+02  0.11919139124E+02  0.14183474974E+01  0.98800483208E+02  0.80914164756E+02 0.  0.
          6    2    1    2  501    0  0.13788151360E+03  0.71699024340E+02  0.28171742386E+03  0.36495426638E+03  0.17226388989E+03 0.  0.
         24    2    5    5    0    0  0.12461581137E+03  0.31464788259E+02  0.28526900499E+03  0.32218188818E+03  0.76835086520E+02 0.  0.
          5    1    5    5  501    0  0.13265702231E+02  0.40234236082E+02 -0.35515811247E+01  0.42772378204E+02  0.47000000000E+01 0. -1.
        -13    1    6    6    0    0  0.56122065489E+02  0.24075222797E+02  0.56252270095E+02  0.83027829541E+02  0.00000000000E+00 0.  1.
         14    1    6    6    0    0  0.68493745884E+02  0.73895654620E+01  0.22901673489E+03  0.23915405864E+03  0.00000000000E+00 0. -1.
         -5    1    3    3    0  503 -0.82470721903E+02 -0.83618163465E+02 -0.95977620710E+02  0.15174719407E+03  0.47000000000E+01 0.  1.
         13    1    4    4    0    0 -0.12039468631E+02 -0.27022058064E+02 -0.21075913133E+02  0.36322645021E+02  0.00000000000E+00 0. -1.
        -14    1    4    4    0    0 -0.43371323070E+02  0.38941197188E+02  0.22494260630E+02  0.62477838188E+02  0.00000000000E+00 0.  1.
</event>
<event>
12    1  0.8728348E-002  0.1798548E+03  0.7818608E-02  0.1168177E+00
         21   -1    0    0  501  502  0.00000000000E+00  0.00000000000E+00  0.59106342807E+02  0.59106342807E+02  0.00000000000E+00 0. -1.
         21   -1    0    0  502  503 -0.00000000000E+00 -0.00000000000E+00 -0.54783664987E+03  0.54783664987E+03  0.00000000000E+00 0. -1.
         -6    2    1    2    0  503  0.46005532902E+02 -0.14856647455E+02 -0.26790097243E+03  0.32213897563E+03  0.17223634797E+03 0.  0.
        -24    2    3    3    0    0  0.41512165591E+02 -0.70563149388E+02 -0.15057699738E+03  0.19209894399E+03  0.86753410307E+02 0.  0.
          6    2    1    2  501    0 -0.46005532902E+02  0.14856647455E+02 -0.22082933464E+03  0.28480401705E+03  0.17323540071E+03 0.  0.
         24    2    5    5    0    0 -0.15606853570E+02 -0.52809780620E+02 -0.80150065914E+02  0.12569533771E+03  0.79641936487E+02 0.  0.
          5    1    5    5  501    0 -0.30398679332E+02  0.67666428074E+02 -0.14067926872E+03  0.15910867934E+03  0.47000000000E+01 0. -1.
        -11    1    6    6    0    0  0.15987740380E+02  0.67197374222E+01 -0.47977369968E+02  0.51015593131E+02  0.00000000000E+00 0.  1.
         12    1    6    6    0    0 -0.31594593950E+02 -0.59529518042E+02 -0.32172695946E+02  0.74679744574E+02  0.00000000000E+00 0. -1.
         -5    1    3    3    0  503  0.44933673111E+01  0.55706501933E+02 -0.11732397505E+03  0.13004003164E+03  0.47000000000E+01 0.  1.
         13    1    4    4    0    0  0.65330744395E+02 -0.42789014303E+02 -0.75714627064E+02  0.10877366712E+03  0.00000000000E+00 0. -1.
        -14    1    4    4    0    0 -0.23818578805E+02 -0.27774135085E+02 -0.74862370315E+02  0.83325276868E+02  0.00000000000E+00 0.  1.
</event>
<event>
12    1  0.8728348E-002  0.2307675E+03  0.7818608E-02  0.1126327E+00
         21   -1    0    0  501  502  0.00000000000E+00  0.00000000000E+00  0.30600158988E+03  0.30600158988E+03  0.00000000000E+00 0.  1.
         21   -1    0    0  502  503 -0.00000000000E+00 -0.00000000000E+00 -0.19591091104E+03  0.19591091104E+03  0.00000000000E+00 0. -1.
         -6    2    1    2    0  503 -0.14576230807E+03 -0.44608101331E+02 -0.30792493122E+02  0.23153919087E+03  0.17153916789E+03 0.  0.
        -24    2    3    3    0    0 -0.12624185194E+03 -0.82615042340E+02  0.12039193449E+02  0.17085789930E+03  0.79279437262E+02 0.  0.
          6    2    1    2  501    0  0.14576230807E+03  0.44608101331E+02  0.14088317196E+03  0.27037331005E+03  0.17325451073E+03 0.  0.
         24    2    5    5    0    0  0.13844792095E+03  0.79102605478E+02  0.71517157516E+02  0.19241752107E+03  0.80527942892E+02 0.  0.
          5    1    5    5  501    0  0.73143871136E+01 -0.34494504147E+02  0.69366014440E+02  0.77955788974E+02  0.47000000000E+01 0. -1.
        -11    1    6    6    0    0  0.72914996100E+02  0.78664479701E+02  0.67560018858E+02  0.12676376916E+03  0.00000000000E+00 0.  1.
         12    1    6    6    0    0  0.65532924854E+02  0.43812577753E+00  0.39571386579E+01  0.65653751915E+02  0.00000000000E+00 0. -1.
         -5    1    3    3    0  503 -0.19520456125E+02  0.38006941009E+02 -0.42831686571E+02  0.60681291571E+02  0.47000000000E+01 0.  1.
         13    1    4    4    0    0 -0.87608294483E+01  0.15017454091E+02  0.42876792299E+01  0.17906988948E+02  0.00000000000E+00 0. -1.
        -14    1    4    4    0    0 -0.11748102249E+03 -0.97632496431E+02  0.77515142191E+01  0.15295091035E+03  0.00000000000E+00 0.  1.
</event>
<event>
12    1  0.8728348E-002  0.3194241E+03  0.7818608E-02  0.1076016E+00
         21   -1    0    0  503  502  0.00000000000E+00  0.00000000000E+00  0.36285305461E+03  0.36285305461E+03  0.00000000000E+00 0.  1.
         21   -1    0    0  501  503 -0.00000000000E+00 -0.00000000000E+00 -0.30890568163E+03  0.30890568163E+03  0.00000000000E+00 0.  1.
          6    2    1    2  501    0 -0.26866588095E+03 -0.10176957626E+02 -0.75050101334E+02  0.32727054275E+03  0.17084661071E+03 0.  0.
         24    2    3    3    0    0 -0.28593522175E+03 -0.19013630737E+00 -0.76647889206E+02  0.30671307068E+03  0.80243514513E+02 0.  0.
         -6    2    1    2    0  502  0.26866588095E+03  0.10176957626E+02  0.12899747432E+03  0.34448819350E+03  0.17247272546E+03 0.  0.
        -24    2    5    5    0    0  0.14081254049E+03 -0.47853661671E+02  0.11351616417E+03  0.20315245702E+03  0.79163481296E+02 0.  0.
          5    1    3    3  501    0  0.17269340799E+02 -0.99868213188E+01  0.15977878718E+01  0.20557472066E+02  0.47000000000E+01 0. -1.
        -11    1    4    4    0    0 -0.90654101786E+01  0.17250350835E+02 -0.67626540304E+01  0.20627403016E+02  0.00000000000E+00 0.  1.
         12    1    4    4    0    0 -0.27686981157E+03 -0.17440487143E+02 -0.69885235176E+02  0.28608566767E+03  0.00000000000E+00 0. -1.
         -5    1    5    5    0  502  0.12785334045E+03  0.58030619297E+02  0.15481310146E+02  0.14133573648E+03  0.47000000000E+01 0.  1.
         11    1    6    6    0    0  0.25346692624E+02 -0.83641896099E+01 -0.10944158957E+02  0.28847688124E+02  0.00000000000E+00 0. -1.
        -12    1    6    6    0    0  0.11546584787E+03 -0.39489472061E+02  0.12446032313E+03  0.17430476890E+03  0.00000000000E+00 0.  1.
</event>
<event>
12    1  0.8728348E-002  0.2558884E+03  0.7818608E-02  0.1109677E+00
         21   -1    0    0  503  502  0.00000000000E+00  0.00000000000E+00  0.15963463694E+03  0.15963463694E+03  0.00000000000E+00 0.  1.
         21   -1    0    0  501  503 -0.00000000000E+00 -0.00000000000E+00 -0.43666136411E+03  0.43666136411E+03  0.00000000000E+00 0.  1.
          6    2    1    2  501    0  0.98936808855E+02 -0.16153280426E+03 -0.64610822557E+02  0.26391937946E+03  0.17203936021E+03 0.  0.
         24    2    3    3    0    0  0.46878386647E+02 -0.11211798914E+03  0.26701491401E+02  0.14767854344E+03  0.79548450188E+02 0.  0.
         -6    2    1    2    0  502 -0.98936808855E+02  0.16153280426E+03 -0.21241590462E+03  0.33237662160E+03  0.17167516725E+03 0.  0.
        -24    2    5    5    0    0 -0.74443370917E+02  0.18698855788E+03 -0.18918999289E+03  0.28983891044E+03  0.87790684850E+02 0.  0.
          5    1    3    3  501    0  0.52058422208E+02 -0.49414815122E+02 -0.91312313957E+02  0.11624083601E+03  0.47000000000E+01 0. -1.
        -13    1    4    4    0    0  0.46751932985E+02 -0.76825302259E+02  0.52341380743E+02  0.10405522785E+03  0.00000000000E+00 0.  1.
         14    1    4    4    0    0  0.12645366200E+00 -0.35292686881E+02 -0.25639889343E+02  0.43623315593E+02  0.00000000000E+00 0. -1.
         -5    1    5    5    0  502 -0.24493437938E+02 -0.25455753619E+02 -0.23225911733E+02  0.42537711154E+02  0.47000000000E+01 0.  1.
         13    1    6    6    0    0 -0.20909396910E+02  0.21823705680E+02 -0.78030567866E+02  0.83679427162E+02  0.00000000000E+00 0. -1.
        -14    1    6    6    0    0 -0.53533974007E+02  0.16516485220E+03 -0.11115942502E+03  0.20615948328E+03  0.00000000000E+00 0.  1.
</event>
<event>
12    1  0.8728348E-002  0.2129614E+03  0.7818608E-02  0.1141665E+00
         21   -1    0    0  501  502  0.00000000000E+00  0.00000000000E+00  0.78722683765E+02  0.78722683765E+02  0.00000000000E+00 0. -1.
         21   -1    0    0  502  503 -0.00000000000E+00 -0.00000000000E+00 -0.61548405506E+03  0.61548405506E+03  0.00000000000E+00 0.  1.
         -6    2    1    2    0  503  0.38746839270E+01 -0.10509966460E+03 -0.14311466974E+03  0.24664639085E+03  0.17114812517E+03 0.  0.
        -24    2    3    3    0    0 -0.45040711928E+02 -0.34485730512E+02 -0.25184721690E+02  0.10067171398E+03  0.79262806218E+02 0.  0.
          6    2    1    2  501    0 -0.38746839270E+01  0.10509966460E+03 -0.39364670155E+03  0.44756034798E+03  0.18517987677E+03 0.  0.
         24    2    5    5    0    0 -0.77015087479E+02  0.63398846752E+02 -0.22947408576E+03  0.26299812373E+03  0.80987156894E+02 0.  0.
          5    1    5    5  501    0  0.73140403552E+02  0.41700817852E+02 -0.16417261579E+03  0.18456222424E+03  0.47000000000E+01 0. -1.
        -13    1    6    6    0    0 -0.51538408568E+02  0.60193865449E+02 -0.22279236670E+03  0.23646553164E+03  0.00000000000E+00 0.  1.
         14    1    6    6    0    0 -0.25476678911E+02  0.32049813029E+01 -0.66817190643E+01  0.26532592092E+02  0.00000000000E+00 0. -1.
         -5    1    3    3    0  503  0.48915395855E+02 -0.70613934092E+02 -0.11792994805E+03  0.14597467687E+03  0.47000000000E+01 0.  1.
         11    1    4    4    0    0 -0.63450410110E+02 -0.86736884197E+01 -0.25591452199E+02  0.68964554951E+02  0.00000000000E+00 0. -1.
        -12    1    4    4    0    0  0.18409698182E+02 -0.25812042092E+02  0.40673050894E+00  0.31707159031E+02  0.00000000000E+00 0.  1.
</event>
<event>
12    1  0.8728348E-002  0.1904482E+03  0.7818608E-02  0.1158282E+00
         21   -1    0    0  503  502  0.00000000000E+00  0.00000000000E+00  0.11250433475E+03  0.11250433475E+03  0.00000000000E+00 0. -1.
         21   -1    0    0  501  503 -0.00000000000E+00 -0.00000000000E+00 -0.32091200093E+03  0.32091200093E+03  0.00000000000E+00 0. -1.
          6    2    1    2  501    0 -0.34057359462E+02  0.73171102905E+02 -0.10986067306E+03  0.21986331798E+03  0.17250100601E+03 0.  0.
         24    2    3    3    0    0 -0.84213224311E+02  0.57901558292E+02 -0.10221112381E+03  0.16667144478E+03  0.82992765178E+02 0.  0.
         -6    2    1    2    0  502  0.34057359462E+02 -0.73171102905E+02 -0.98546993124E+02  0.21355301769E+03  0.17140439748E+03 0.  0.
        -24    2    5    5    0    0 -0.39090576900E+02 -0.62792195138E+02 -0.28821630485E+02  0.11185710570E+03  0.78806045066E+02 0.  0.
          5    1    3    3  501    0  0.50155864849E+02  0.15269544613E+02 -0.76495492485E+01  0.53191873206E+02  0.47000000000E+01 0. -1.
        -13    1    4    4    0    0 -0.38448641339E+02 -0.15464966489E+02 -0.52655657005E+02  0.67008069842E+02  0.00000000000E+00 0.  1.
         14    1    4    4    0    0 -0.45764582973E+02  0.73366524781E+02 -0.49555466804E+02  0.99663374935E+02  0.00000000000E+00 0. -1.
         -5    1    5    5    0  502  0.73147936362E+02 -0.10378907767E+02 -0.69725362639E+02  0.10169591199E+03  0.47000000000E+01 0.  1.
         11    1    6    6    0    0 -0.49546428275E+02 -0.18725749609E+02 -0.38579782666E+02  0.65527871046E+02  0.00000000000E+00 0. -1.
        -12    1    6    6    0    0  0.10455851375E+02 -0.44066445529E+02  0.97581521812E+01  0.46329234653E+02  0.00000000000E+00 0.  1.
</event>
<event>
12    1  0.8728348E-002  0.2499766E+03  0.7818608E-02  0.1113611E+00
         21   -1    0    0  503  502  0.00000000000E+00  0.00000000000E+00  0.40662621987E+03  0.40662621987E+03  0.00000000000E+00 0. -1.
         21   -1    0    0  501  503 -0.00000000000E+00 -0.00000000000E+00 -0.15356700969E+03  0.15356700969E+03  0.00000000000E+00 0. -1.
          6    2    1    2  501    0  0.83833923821E+02 -0.15952695060E+03  0.10325787104E+03  0.26876787878E+03  0.17057845697E+03 0.  0.
         24    2    3    3    0    0  0.61634301092E+02 -0.19156426902E+02  0.20664413801E+02  0.10432799204E+03  0.79319330323E+02 0.  0.
         -6    2    1    2    0  502 -0.83833923821E+02  0.15952695060E+03  0.14980133914E+03  0.29142535078E+03  0.17323775316E+03 0.  0.
        -24    2    5    5    0    0 -0.76020207088E+02  0.49751685563E+02  0.20073893772E+02  0.12124026605E+03  0.77729909294E+02 0.  0.
          5    1    3    3  501    0  0.22199622729E+02 -0.14037052370E+03  0.82593457238E+02  0.16443988674E+03  0.47000000000E+01 0. -1.
        -13    1    4    4    0    0 -0.17090480675E+02 -0.15391522374E+02  0.63691229315E+00  0.23008458183E+02  0.00000000000E+00 0.  1.
         14    1    4    4    0    0  0.78724781767E+02 -0.37649045283E+01  0.20027501508E+02  0.81319533859E+02  0.00000000000E+00 0. -1.
         -5    1    5    5    0  502 -0.78137167336E+01  0.10977526504E+03  0.12972744537E+03  0.17018508473E+03  0.47000000000E+01 0.  1.
         11    1    6    6    0    0 -0.18118565423E+02  0.57521602493E+02  0.30282595026E+01  0.60383669332E+02  0.00000000000E+00 0. -1.
        -12    1    6    6    0    0 -0.57901641665E+02 -0.77699169302E+01  0.17045634269E+02  0.60856596719E+02  0.00000000000E+00 0.  1.
</event>
<event>
12    1  0.8728348E-002  0.1817511E+03  0.7818608E-02  0.1170932E+00
         21   -1    0    0  503  502  0.00000000000E+00  0.00000000000E+00  0.20160845578E+03  0.20160845578E+03  0.00000000000E+00 0. -1.
         21   -1    0    0  501  503 -0.00000000000E+00 -0.00000000000E+00 -0.15158618334E+03  0.15158618334E+03  0.00000000000E+00 0. -1.
          6    2    1    2  501    0  0.57666712621E+02 -0.88426131534E+01 -0.64129722444E+01  0.16288331030E+03  0.15194145257E+03 0.  0.
         24    2    3    3    0    0  0.21897512046E+02  0.42253448100E+02 -0.27676159324E+02  0.96819278401E+02  0.79643882156E+02 0.  0.
         -6    2    1    2    0  502 -0.57666712621E+02  0.88426131534E+01  0.56435244682E+02  0.19031132883E+03  0.17213315627E+03 0.  0.
        -24    2    5    5    0    0 -0.13948272399E+02 -0.53354891927E+02  0.56805661494E+02  0.11414008188E+03  0.82217858876E+02 0.  0.
          5    1    3    3  501    0  0.35769200574E+02 -0.51096061254E+02  0.21263187080E+02  0.66064031895E+02  0.47000000000E+01 0. -1.
        -13    1    4    4    0    0 -0.29079372869E+02  0.23066493119E+02 -0.36781851237E+01  0.37298821389E+02  0.00000000000E+00 0.  1.
         14    1    4    4    0    0  0.50976884915E+02  0.19186954982E+02 -0.23997974201E+02  0.59520457011E+02  0.00000000000E+00 0. -1.
         -5    1    5    5    0  502 -0.43718440221E+02  0.62197505081E+02 -0.37041681251E+00  0.76171246952E+02  0.47000000000E+01 0.  1.
         11    1    6    6    0    0 -0.31759687387E+02 -0.10889648280E+02  0.59167916114E+02  0.68030173305E+02  0.00000000000E+00 0. -1.
        -12    1    6    6    0    0  0.17811414988E+02 -0.42465243647E+02 -0.23622546202E+01  0.46109908574E+02  0.00000000000E+00 0.  1.
</event>
<event>
12    1  0.8728348E-002  0.2311435E+03  0.7818608E-02  0.1126363E+00
         21   -1    0    0  503  502  0.00000000000E+00  0.00000000000E+00  0.11976718875E+04  0.11976718875E+04  0.00000000000E+00 0.  1.
         21   -1    0    0  501  503 -0.00000000000E+00 -0.00000000000E+00 -0.62755015711E+02  0.62755015711E+02  0.00000000000E+00 0.  1.
          6    2    1    2  501    0  0.47834798924E+02  0.14170702857E+03  0.22066771199E+03  0.31741108767E+03  0.17229773512E+03 0.  0.
         24    2    3    3    0    0 -0.12021301589E+02  0.54769252220E+02  0.17940741151E+03  0.20398519944E+03  0.79238624442E+02 0.  0.
         -6    2    1    2    0  502 -0.47834798924E+02 -0.14170702857E+03  0.91424915977E+03  0.94301581551E+03  0.17623351619E+03 0.  0.
        -24    2    5    5    0    0  0.27799486606E+02 -0.32032313008E+02  0.41931056324E+03  0.43043860892E+03  0.87505240257E+02 0.  0.
          5    1    3    3  501    0  0.59856100513E+02  0.86937776354E+02  0.41260300477E+02  0.11342588823E+03  0.47000000000E+01 0. -1.
        -11    1    4    4    0    0 -0.13186242402E+02  0.29432737461E+01 -0.34313645977E+01  0.13939659681E+02  0.00000000000E+00 0.  1.
         12    1    4    4    0    0  0.11649408127E+01  0.51825978474E+02  0.18283877611E+03  0.19004553976E+03  0.00000000000E+00 0. -1.
         -5    1    5    5    0  502 -0.75634285529E+02 -0.10967471557E+03  0.49493859654E+03  0.51257720660E+03  0.47000000000E+01 0.  1.
         11    1    6    6    0    0  0.15868451586E+02 -0.49979873047E+02  0.12790312393E+03  0.13823532318E+03  0.00000000000E+00 0. -1.
        -12    1    6    6    0    0  0.11931035020E+02  0.17947560039E+02  0.29140743931E+03  0.29220328573E+03  0.00000000000E+00 0.  1.
</event>
<event>
12    1  0.8728348E-002  0.1873649E+03  0.7818608E-02  0.1162009E+00
         21   -1    0    0  503  502  0.00000000000E+00  0.00000000000E+00  0.62490986175E+03  0.62490986175E+03  0.00000000000E+00 0.  1.
         21   -1    0    0  501  503 -0.00000000000E+00 -0.00000000000E+00 -0.58422464135E+02  0.58422464135E+02  0.00000000000E+00 0.  1.
          6    2    1    2  501    0  0.30598107661E+02 -0.58669981911E+02  0.20062901128E+03  0.27451342712E+03  0.17529178684E+03 0.  0.
         24    2    3    3    0    0  0.43773967202E+02  0.22126031014E+02  0.52123109936E+02  0.10487353879E+03  0.76654543869E+02 0.  0.
         -6    2    1    2    0  502 -0.30598107661E+02  0.58669981911E+02  0.36585838634E+03  0.40881889877E+03  0.17000624155E+03 0.  0.
        -24    2    5    5    0    0 -0.21959741383E+02  0.10876755466E+03  0.30749753469E+03  0.33127879835E+03  0.53649764298E+02 0.  0.
          5    1    3    3  501    0 -0.13175859541E+02 -0.80796012925E+02  0.14850590135E+03  0.16963988833E+03  0.47000000000E+01 0. -1.
        -11    1    4    4    0    0  0.40017014088E+01  0.38482473375E+02  0.18748236326E+01  0.38735375755E+02  0.00000000000E+00 0.  1.
         12    1    4    4    0    0  0.39772265794E+02 -0.16356442362E+02  0.50248286304E+02  0.66138163034E+02  0.00000000000E+00 0. -1.
         -5    1    5    5    0  502 -0.86383662782E+01 -0.50097572748E+02  0.58360851647E+02  0.77540100414E+02  0.47000000000E+01 0.  1.
         11    1    6    6    0    0  0.75373153856E+01  0.25132809331E+02  0.29510830261E+02  0.39488711435E+02  0.00000000000E+00 0. -1.
        -12    1    6    6    0    0 -0.29497056768E+02  0.83634745328E+02  0.27798670443E+03  0.29179008692E+03  0.00000000000E+00 0.  1.
</event>
<event>
12    1  0.8728348E-002  0.1757451E+03  0.7818608E-02  0.1172379E+00
         21   -1    0    0  501  502  0.00000000000E+00  0.00000000000E+00  0.82309832103E+03  0.82309832103E+03  0.00000000000E+00 0.  1.
         21   -1    0    0  502  503 -0.00000000000E+00 -0.00000000000E+00 -0.37731296743E+02  0.37731296743E+02  0.00000000000E+00 0.  1.
         -6    2    1    2    0  503  0.24856070226E+02 -0.24936842354E+02  0.33942863394E+03  0.38150990610E+03  0.17058235717E+03 0.  0.
        -24    2    3    3    0    0  0.19110835906E+02 -0.25483806410E+02  0.35370916850E+03  0.36540616261E+03  0.86004879812E+02 0.  0.
          6    2    1    2  501    0 -0.24856070226E+02  0.24936842354E+02  0.44593839034E+03  0.47931971167E+03  0.17218207712E+03 0.  0.
         24    2    5    5    0    0  0.29377683283E+01  0.39848108480E+02  0.43714511000E+03  0.44624018480E+03  0.80236856258E+02 0.  0.
          5    1    5    5  501    0 -0.27793838555E+02 -0.14911266126E+02  0.87932803479E+01  0.33079526876E+02  0.47000000000E+01 0. -1.
        -11    1    6    6    0    0 -0.27769325282E+02  0.48339748257E+02  0.23002853808E+03  0.23668754724E+03  0.00000000000E+00 0.  1.
         12    1    6    6    0    0  0.30707093610E+02 -0.84916397771E+01  0.20711657192E+03  0.20955263756E+03  0.00000000000E+00 0. -1.
         -5    1    3    3    0  503  0.57452343198E+01  0.54696405584E+00 -0.14280534560E+02  0.16103743490E+02  0.47000000000E+01 0.  1.
         11    1    4    4    0    0 -0.74400763361E+01  0.21892131996E+02  0.34000198145E+02  0.41117315733E+02  0.00000000000E+00 0. -1.
        -12    1    4    4    0    0  0.26550912243E+02 -0.47375938406E+02  0.31970897036E+03  0.32428884688E+03  0.00000000000E+00 0.  1.
</event>
<event>
12    1  0.8728348E-002  0.1949142E+03  0.7818608E-02  0.1154215E+00
         21   -1    0    0  501  502  0.00000000000E+00  0.00000000000E+00  0.42169600170E+03  0.42169600170E+03  0.00000000000E+00 0. -1.
         21   -1    0    0  502  503 -0.00000000000E+00 -0.00000000000E+00 -0.10983373835E+03  0.10983373835E+03  0.00000000000E+00 0.  1.
         -6    2    1    2    0  503 -0.48873327498E+02  0.72849720035E+02  0.26944972114E+03  0.33255779781E+03  0.17405703896E+03 0.  0.
        -24    2    3    3    0    0 -0.74357862097E+02  0.48144587695E+02  0.27093297785E+03  0.29672352486E+03  0.82420742146E+02 0.  0.
          6    2    1    2  501    0  0.48873327498E+02 -0.72849720035E+02  0.42412542206E+02  0.19897194225E+03  0.17348004558E+03 0.  0.
         24    2    5    5    0    0 -0.34978258185E+02 -0.92246321476E+01  0.28048392603E+02  0.92634465202E+02  0.80534833655E+02 0.  0.
          5    1    5    5  501    0  0.83851585682E+02 -0.63625087888E+02  0.14364149603E+02  0.10633747704E+03  0.47000000000E+01 0. -1.
        -11    1    6    6    0    0  0.24181435071E+02  0.56683584301E+01 -0.14342949212E+01  0.24878289557E+02  0.00000000000E+00 0.  1.
         12    1    6    6    0    0 -0.59159693255E+02 -0.14892990578E+02  0.29482687524E+02  0.67756175645E+02  0.00000000000E+00 0. -1.
         -5    1    3    3    0  503  0.25484534599E+02  0.24705132340E+02 -0.14832567072E+01  0.35834272954E+02  0.47000000000E+01 0.  1.
         13    1    4    4    0    0 -0.42004799543E+01 -0.12724170097E+02  0.11076581778E+03  0.11157336118E+03  0.00000000000E+00 0. -1.
        -14    1    4    4    0    0 -0.70157382143E+02  0.60868757792E+02  0.16016716007E+03  0.18515016368E+03  0.00000000000E+00 0.  1.
</event>
<event>
12    1  0.8728348E-002  0.1998796E+03  0.7818608E-02  0.1150022E+00
         21   -1    0    0  501  502  0.00000000000E+00  0.00000000000E+00  0.22607017508E+03  0.22607017508E+03  0.00000000000E+00 0. -1.
         21   -1    0    0  502  503 -0.00000000000E+00 -0.00000000000E+00 -0.20429796141E+03  0.20429796141E+03  0.00000000000E+00 0. -1.
         -6    2    1    2    0  503  0.93013087806E+02  0.38376583783E+02 -0.69227526986E+02  0.21152848650E+03  0.17270684243E+03 0.  0.
        -24    2    3    3    0    0  0.94653943235E+02  0.13186662154E+02 -0.10825458273E+03  0.16481204787E+03  0.79439910707E+02 0.  0.
          6    2    1    2  501    0 -0.93013087806E+02 -0.38376583783E+02  0.90999740650E+02  0.21883964999E+03  0.17171384022E+03 0.  0.
         24    2    5    5    0    0 -0.99519978985E+02  0.13090100972E+02  0.17296467373E+02  0.12858765962E+03  0.78485931628E+02 0.  0.
          5    1    5    5  501    0  0.65068911786E+01 -0.51466684755E+02  0.73703273277E+02  0.90251990361E+02  0.47000000000E+01 0. -1.
        -11    1    6    6    0    0 -0.52721853971E+02  0.33538637884E+02 -0.19708194516E+02  0.65519821797E+02  0.00000000000E+00 0.  1.
         12    1    6    6    0    0 -0.46798125014E+02 -0.20448536912E+02  0.37004661890E+02  0.63067837828E+02  0.00000000000E+00 0. -1.
         -5    1    3    3    0  503 -0.16408554281E+01  0.25189921630E+02  0.39027055745E+02  0.46716438631E+02  0.47000000000E+01 0.  1.
         13    1    4    4    0    0  0.15631696154E+02 -0.12698839984E+02 -0.70806147572E+02  0.73614679213E+02  0.00000000000E+00 0. -1.
        -14    1    4    4    0    0  0.79022247081E+02  0.25885502138E+02 -0.37448435159E+02  0.91197368660E+02  0.00000000000E+00 0.  1.
</event>
<event>
12    1  0.8728348E-002  0.1843090E+03  0.7818608E-02  0.1164952E+00
         21   -1    0    0  503  502  0.00000000000E+00  0.00000000000E+00  0.50694593129E+02  0.50694593129E+02  0.00000000000E+00 0.  1.
         21   -1    0    0  501  503 -0.00000000000E+00 -0.00000000000E+00 -0.78472805435E+03  0.78472805435E+03  0.00000000000E+00 0. -1.
          6    2    1    2  501    0  0.49666369255E+02 -0.82378533427E+01 -0.19022927916E+03  0.26123384552E+03  0.17181773173E+03 0.  0.
         24    2    3    3    0    0  0.58399384793E+02 -0.67215030287E+02 -0.13169387588E+03  0.17754957939E+03  0.79071029830E+02 0.  0.
         -6    2    1    2    0  502 -0.49666369255E+02  0.82378533427E+01 -0.54380418206E+03  0.57418880196E+03  0.17729969373E+03 0.  0.
        -24    2    5    5    0    0 -0.56584033915E+01 -0.61730403967E+01 -0.50843087599E+03  0.51572739845E+03  0.86038769681E+02 0.  0.
          5    1    3    3  501    0 -0.87330155382E+01  0.58977176944E+02 -0.58535403277E+02  0.83684266129E+02  0.47000000000E+01 0. -1.
        -11    1    4    4    0    0 -0.17834920661E+02 -0.12359744954E+01 -0.25237946611E+02  0.30928400817E+02  0.00000000000E+00 0.  1.
         12    1    4    4    0    0  0.76234305454E+02 -0.65979055791E+02 -0.10645592927E+03  0.14662117858E+03  0.00000000000E+00 0. -1.
         -5    1    5    5    0  502 -0.44007965863E+02  0.14410893739E+02 -0.35373306070E+02  0.58461403508E+02  0.47000000000E+01 0.  1.
         13    1    6    6    0    0 -0.25014794775E+02 -0.40166845428E+02 -0.27491799855E+03  0.27896060897E+03  0.00000000000E+00 0. -1.
        -14    1    6    6    0    0  0.19356391383E+02  0.33993805031E+02 -0.23351287745E+03  0.23676678948E+03  0.00000000000E+00 0.  1.
</event>
<event>
12    1  0.8728348E-002  0.1738237E+03  0.7818608E-02  0.1174020E+00
         21   -1    0    0  501  502  0.00000000000E+00  0.00000000000E+00  0.21723038459E+04  0.21723038459E+04  0.00000000000E+00 0.  1.
         21   -1    0    0  502  503 -0.00000000000E+00 -0.00000000000E+00 -0.13916977890E+02  0.13916977890E+02  0.00000000000E+00 0.  1.
         -6    2    1    2    0  503  0.17837170279E+02 -0.18822313150E+02  0.11390423841E+04  0.11522292424E+04  0.17187853293E+03 0.  0.
        -24    2    3    3    0    0  0.57620514681E+02 -0.55280006651E+02  0.89965348887E+03  0.90678879935E+03  0.80706404688E+02 0.  0.
          6    2    1    2  501    0 -0.17837170279E+02  0.18822313150E+02  0.10193444839E+04  0.10339915814E+04  0.17147294088E+03 0.  0.
         24    2    5    5    0    0  0.75593966180E+01  0.29342302722E+02  0.26124549099E+03  0.27537980399E+03  0.81649952087E+02 0.  0.
          5    1    5    5  501    0 -0.25396566897E+02 -0.10519989572E+02  0.75809899294E+03  0.75861177745E+03  0.47000000000E+01 0. -1.
        -13    1    6    6    0    0 -0.36114927012E+02  0.21775498381E+02  0.14346659002E+03  0.14953635924E+03  0.00000000000E+00 0.  1.
         14    1    6    6    0    0  0.43674323629E+02  0.75668043407E+01  0.11777890097E+03  0.12584344475E+03  0.00000000000E+00 0. -1.
         -5    1    3    3    0  503 -0.39783344402E+02  0.36457693500E+02  0.23938889523E+03  0.24544044302E+03  0.47000000000E+01 0.  1.
         13    1    4    4    0    0  0.60089226692E+02 -0.19745831482E+01  0.46345961846E+03  0.46734294911E+03  0.00000000000E+00 0. -1.
        -14    1    4    4    0    0 -0.24687120111E+01 -0.53305423502E+02  0.43619387041E+03  0.43944585025E+03  0.00000000000E+00 0.  1.
</event>
<event>
12    1  0.8728348E-002  0.2396886E+03  0.7818608E-02  0.1120068E+00
         21   -1    0    0  503  502  0.00000000000E+00  0.00000000000E+00  0.18825220807E+03  0.18825220807E+03  0.00000000000E+00 0. -1.
         21   -1    0    0  501  503 -0.00000000000E+00 -0.00000000000E+00 -0.30518600259E+03  0.30518600259E+03  0.00000000000E+00 0. -1.
          6    2    1    2  501    0  0.14900825514E+03 -0.73795602326E+02 -0.48204777756E+02  0.24409045571E+03  0.17206742559E+03 0.  0.
         24    2    3    3    0    0  0.14543386286E+03 -0.10070646022E+03 -0.68396749450E+02  0.20993234871E+03  0.90003756054E+02 0.  0.
         -6    2    1    2    0  502 -0.14900825514E+03  0.73795602326E+02 -0.68729016766E+02  0.24934775496E+03  0.17263074504E+03 0.  0.
        -24    2    5    5    0    0 -0.66223573884E+02 -0.23907549619E+02 -0.31495183848E+01  0.10539647862E+03  0.78366865277E+02 0.  0.
          5    1    3    3  501    0  0.35743922745E+01  0.26910857893E+02  0.20191971694E+02  0.34158106997E+02  0.47000000000E+01 0. -1.
        -11    1    4    4    0    0  0.10611004377E+03 -0.71981339072E+02 -0.28211451223E+01  0.12825214783E+03  0.00000000000E+00 0.  1.
         12    1    4    4    0    0  0.39323819088E+02 -0.28725121147E+02 -0.65575604328E+02  0.81680200878E+02  0.00000000000E+00 0. -1.
         -5    1    5    5    0  502 -0.82784681251E+02  0.97703151945E+02 -0.65579498381E+02  0.14395127633E+03  0.47000000000E+01 0.  1.
         13    1    6    6    0    0 -0.48274973910E+02 -0.26134199352E+02 -0.37565241058E+02  0.66517793240E+02  0.00000000000E+00 0. -1.
        -14    1    6    6    0    0 -0.17948599975E+02  0.22266497326E+01  0.34415722673E+02  0.38878685384E+02  0.00000000000E+00 0.  1.
</event>
<event>
12    1  0.8728348E-002  0.3243254E+03  0.7818608E-02  0.1074290E+00
         21   -1    0    0  501  502  0.00000000000E+00  0.00000000000E+00  0.52652740514E+02  0.52652740514E+02  0.00000000000E+00 0. -1.
         21   -1    0    0  502  503 -0.00000000000E+00 -0.00000000000E+00 -0.20356105045E+04  0.20356105045E+04  0.00000000000E+00 0.  1.
         -6    2    1    2    0  503 -0.22401624694E+02  0.26729546527E+03 -0.78867250941E+03  0.85072366864E+03  0.17256226337E+03 0.  0.
        -24    2    3    3    0    0 -0.15691312986E+00  0.21815229843E+03 -0.43356846819E+03  0.49151502713E+03  0.77556143266E+02 0.  0.
          6    2    1    2  501    0  0.22401624694E+02 -0.26729546527E+03 -0.11942852546E+04  0.12375395764E+04  0.18231356303E+03 0.  0.
         24    2    5    5    0    0  0.50020021846E+02 -0.18030241526E+03 -0.54387415365E+03  0.58073880231E+03  0.80296313513E+02 0.  0.
          5    1    5    5  501    0 -0.27618397152E+02 -0.86993050006E+02 -0.65041110095E+03  0.65680077409E+03  0.47000000000E+01 0. -1.
        -13    1    6    6    0    0  0.32313884654E+02 -0.17486092478E+03 -0.52498384341E+03  0.55428202749E+03  0.00000000000E+00 0.  1.
         14    1    6    6    0    0  0.17706137192E+02 -0.54414904847E+01 -0.18890310243E+02  0.26456774823E+02  0.00000000000E+00 0. -1.
         -5    1    3    3    0  503 -0.22244711564E+02  0.49143166840E+02 -0.35510404123E+03  0.35920864151E+03  0.47000000000E+01 0.  1.
         11    1    4    4    0    0  0.96090976727E+01  0.12351780704E+03 -0.16321065296E+03  0.20490656567E+03  0.00000000000E+00 0. -1.
        -12    1    4    4    0    0 -0.97660108025E+01  0.94634491382E+02 -0.27035781523E+03  0.28660846146E+03  0.00000000000E+00 0.  1.
</event>
<event>
12    1  0.8728348E-002  0.1801113E+03  0.7818608E-02  0.1167706E+00
         21   -1    0    0  501  502  0.00000000000E+00  0.00000000000E+00  0.59221563992E+02  0.59221563992E+02  0.00000000000E+00 0. -1.
         21   -1    0    0  502  503 -0.00000000000E+00 -0.00000000000E+00 -0.10192489970E+04  0.10192489970E+04  0.00000000000E+00 0. -1.
         -6    2    1    2    0  503 -0.38355496414E+02 -0.35125923503E+02 -0.84678111702E+03  0.86571526372E+03  0.17239397633E+03 0.  0.
        -24    2    3    3    0    0  0.21432410357E+02 -0.63103962317E+02 -0.64559237289E+03  0.65392205037E+03  0.79894165971E+02 0.  0.
          6    2    1    2  501    0  0.38355496414E+02  0.35125923503E+02 -0.11324631597E+03  0.21275529726E+03  0.17243872484E+03 0.  0.
         24    2    5    5    0    0  0.24220782314E+02 -0.19842946844E+02 -0.13671549470E+03  0.15115773887E+03  0.56366183944E+02 0.  0.
          5    1    5    5  501    0  0.14134714100E+02  0.54968870347E+02  0.23469178733E+02  0.61597558395E+02  0.47000000000E+01 0. -1.
        -11    1    6    6    0    0  0.41283487432E+02 -0.21652624254E+02 -0.89344937483E+02  0.10077539544E+03  0.00000000000E+00 0.  1.
         12    1    6    6    0    0 -0.17062705117E+02  0.18096774103E+01 -0.47370557220E+02  0.50382343431E+02  0.00000000000E+00 0. -1.
         -5    1    3    3    0  503 -0.59787906771E+02  0.27978038815E+02 -0.20118874414E+03  0.21179321335E+03  0.47000000000E+01 0.  1.
         11    1    4    4    0    0  0.33607654434E+01 -0.76822120307E+02 -0.56458044212E+03  0.56979295235E+03  0.00000000000E+00 0. -1.
        -12    1    4    4    0    0  0.18071644914E+02  0.13718157990E+02 -0.81011930761E+02  0.84129098023E+02  0.00000000000E+00 0.  1.
</event>
<event>
12    1  0.8728348E-002  0.2772550E+03  0.7818608E-02  0.1097247E+00
         21   -1    0    0  503  502  0.00000000000E+00  0.00000000000E+00  0.10730784704E+04  0.10730784704E+04  0.00000000000E+00 0. -1.
         21   -1    0    0  501  503 -0.00000000000E+00 -0.00000000000E+00 -0.11885812098E+03  0.11885812098E+03  0.00000000000E+00 0.  1.
          6    2    1    2  501    0  0.14226117965E+03  0.16348626733E+03  0.10090671856E+03  0.29471059225E+03  0.17235476348E+03 0.  0.
         24    2    3    3    0    0  0.15033534215E+03  0.98671717006E+02  0.26611547376E+02  0.19567534350E+03  0.72414382303E+02 0.  0.
         -6    2    1    2    0  502 -0.14226117965E+03 -0.16348626733E+03  0.85331363083E+03  0.89722599909E+03  0.17292870798E+03 0.  0.
        -24    2    5    5    0    0 -0.40071706151E+02 -0.93773093038E+02  0.24910953658E+03  0.28047054295E+03  0.78797396140E+02 0.  0.
          5    1    3    3  501    0 -0.80741624995E+01  0.64814550323E+02  0.74295171183E+02  0.99035248749E+02  0.47000000000E+01 0. -1.
        -11    1    4    4    0    0  0.23232449963E+01  0.38244489934E+01 -0.14468885326E+02  0.15145049356E+02  0.00000000000E+00 0.  1.
         12    1    4    4    0    0  0.14801209715E+03  0.94847268013E+02  0.41080432702E+02  0.18053029415E+03  0.00000000000E+00 0. -1.
         -5    1    5    5    0  502 -0.10218947350E+03 -0.69713174291E+02  0.60420409425E+03  0.61675545614E+03  0.47000000000E+01 0.  1.
         11    1    6    6    0    0 -0.37730749743E+02 -0.17641760607E+02  0.14880471662E+03  0.15452405923E+03  0.00000000000E+00 0. -1.
        -12    1    6    6    0    0 -0.23409564083E+01 -0.76131332431E+02  0.10030481996E+03  0.12594648372E+03  0.00000000000E+00 0.  1.
</event>
<event>
12    1  0.8728348E-002  0.1927612E+03  0.7818608E-02  0.1156563E+00
         21   -1    0    0  501  502  0.00000000000E+00  0.00000000000E+00  0.15527173738E+04  0.15527173738E+04  0.00000000000E+00 0.  1.
         21   -1    0    0  502  503 -0.00000000000E+00 -0.00000000000E+00 -0.26747886915E+02  0.26747886915E+02  0.00000000000E+00 0. -1.
         -6    2    1    2    0  503  0.46128824119E+02 -0.70256278100E+02  0.48819389674E+03  0.52393929226E+03  0.17063202552E+03 0.  0.
        -24    2    3    3    0    0  0.16161141939E+02 -0.89100946292E+02  0.47026142536E+03  0.48397872390E+03  0.69924501139E+02 0.  0.
          6    2    1    2  501    0 -0.46128824119E+02  0.70256278100E+02  0.10377755902E+04  0.10555259685E+04  0.17347357595E+03 0.  0.
         24    2    5    5    0    0  0.36282527746E+02  0.66462616281E+02  0.57631166720E+03  0.58672210225E+03  0.79837249066E+02 0.  0.
          5    1    5    5  501    0 -0.82411351865E+02  0.37936618192E+01  0.46146392295E+03  0.46880386621E+03  0.47000000000E+01 0. -1.
        -11    1    6    6    0    0  0.22183637425E+02  0.35996616736E+02  0.51573497963E+03  0.51746539923E+03  0.00000000000E+00 0.  1.
         12    1    6    6    0    0  0.14098890321E+02  0.30465999546E+02  0.60576687565E+02  0.69256703018E+02  0.00000000000E+00 0. -1.
         -5    1    3    3    0  503  0.29967682180E+02  0.18844668192E+02  0.17932471380E+02  0.39960568368E+02  0.47000000000E+01 0.  1.
         11    1    4    4    0    0  0.13475406568E+02 -0.49993052580E+02  0.10984120311E+03  0.12143303418E+03  0.00000000000E+00 0. -1.
        -12    1    4    4    0    0  0.26857353702E+01 -0.39107893712E+02  0.36042022225E+03  0.36254568972E+03  0.00000000000E+00 0.  1.
</event>
<event>
12    1  0.8728348E-002  0.2051268E+03  0.7818608E-02  0.1145621E+00
         21   -1    0    0  503  502  0.00000000000E+00  0.00000000000E+00  0.77295387198E+02  0.77295387198E+02  0.00000000000E+00 0.  1.
         21   -1    0    0  501  503 -0.00000000000E+00 -0.00000000000E+00 -0.54350382228E+03  0.54350382228E+03  0.00000000000E+00 0. -1.
          6    2    1    2  501    0 -0.10218809926E+03 -0.41749892073E+02 -0.24539756416E+03  0.31941168673E+03  0.17209997095E+03 0.  0.
         24    2    3    3    0    0 -0.65655352510E+02 -0.39945390359E+02 -0.52382793930E+02  0.12290547985E+03  0.80346377353E+02 0.  0.
         -6    2    1    2    0  502  0.10218809926E+03  0.41749892073E+02 -0.22081087092E+03  0.30138752275E+03  0.17289169163E+03 0.  0.
        -24    2    5    5    0    0  0.75160205405E+02 -0.39544814757E+02 -0.14960287314E+03  0.18988861983E+03  0.80397882053E+02 0.  0.
          5    1    3    3  501    0 -0.36532746751E+02 -0.18045017142E+01 -0.19301477023E+03  0.19650620687E+03  0.47000000000E+01 0. -1.
        -11    1    4    4    0    0  0.62582578635E+01 -0.64862129265E+01  0.15879616325E+02  0.18259215871E+02  0.00000000000E+00 0.  1.
         12    1    4    4    0    0 -0.71913610373E+02 -0.33459177433E+02 -0.68262410255E+02  0.10464626398E+03  0.00000000000E+00 0. -1.
         -5    1    5    5    0  502  0.27027893856E+02  0.81294706831E+02 -0.71207997778E+02  0.11149890292E+03  0.47000000000E+01 0.  1.
         13    1    6    6    0    0  0.38025650233E+02 -0.60398264917E+02 -0.11340484140E+03  0.13399462129E+03  0.00000000000E+00 0. -1.
        -14    1    6    6    0    0  0.37134555172E+02  0.20853450159E+02 -0.36198031736E+02  0.55893998541E+02  0.00000000000E+00 0.  1.
</event>
<event>
12    1  0.8728348E-002  0.1854365E+03  0.7818608E-02  0.1162860E+00
         21   -1    0    0  503  502  0.00000000000E+00  0.00000000000E+00  0.22785755807E+04  0.22785755807E+04  0.00000000000E+00 0.  1.
         21   -1    0    0  501  503 -0.00000000000E+00 -0.00000000000E+00 -0.11912311405E+03  0.11912311405E+03  0.00000000000E+00 0.  1.
          6    2    1    2  501    0  0.54940877233E+02  0.32841582979E+02 -0.40677620802E+02  0.18984567412E+03  0.17403919554E+03 0.  0.
         24    2    3    3    0    0  0.81276795904E+01  0.58508065317E+02 -0.77278794528E+02  0.12494590750E+03  0.78423305436E+02 0.  0.
         -6    2    1    2    0  502 -0.54940877233E+02 -0.32841582979E+02  0.22001300874E+04  0.22078530206E+04  0.17304765078E+03 0.  0.
        -24    2    5    5    0    0  0.28567580283E+02 -0.31124853174E+02  0.90711925454E+03  0.91213865640E+03  0.85713029476E+02 0.  0.
          5    1    3    3  501    0  0.46813197642E+02 -0.25666482338E+02  0.36601173726E+02  0.64899766619E+02  0.47000000000E+01 0. -1.
        -13    1    4    4    0    0 -0.13941152755E+02  0.33510526388E+02  0.45546949940E+01  0.36579452776E+02  0.00000000000E+00 0.  1.
         14    1    4    4    0    0  0.22068832346E+02  0.24997538929E+02 -0.81833489522E+02  0.88366454727E+02  0.00000000000E+00 0. -1.
         -5    1    5    5    0  502 -0.83508457515E+02 -0.17167298051E+01  0.12930108329E+04  0.12957143642E+04  0.47000000000E+01 0.  1.
         13    1    6    6    0    0 -0.19512149645E+02 -0.33732183714E+02  0.22729657037E+03  0.23061291183E+03  0.00000000000E+00 0. -1.
        -14    1    6    6    0    0  0.48079729927E+02  0.26073305397E+01  0.67982268417E+03  0.68152574457E+03  0.00000000000E+00 0.  1.
</event>
<event>
12    1  0.8728348E-002  0.1734432E+03  0.7818608E-02  0.1174444E+00
         21   -1    0    0  503  502  0.00000000000E+00  0.00000000000E+00  0.40621700338E+02  0.40621700338E+02  0.00000000000E+00 0. -1.
         21   -1    0    0  501  503 -0.00000000000E+00 -0.00000000000E+00 -0.98605657097E+03  0.98605657097E+03  0.00000000000E+00 0. -1.
          6    2    1    2  501    0  0.99276119180E+01  0.17474645968E+02 -0.73064502528E+03  0.75094920025E+03  0.17227486079E+03 0.  0.
         24    2    3    3    0    0 -0.56282270967E+02  0.12884985405E+02 -0.53780589508E+03  0.54695450985E+03  0.81180897924E+02 0.  0.
         -6    2    1    2    0  502 -0.99276119180E+01 -0.17474645968E+02 -0.21478984536E+03  0.27572907106E+03  0.17172047703E+03 0.  0.
        -24    2    5    5    0    0  0.23349374150E+02  0.30552267171E+02 -0.47022844224E+02  0.98016384806E+02  0.76924830250E+02 0.  0.
          5    1    3    3  501    0  0.66209882885E+02  0.45896605626E+01 -0.19283913020E+03  0.20399469040E+03  0.47000000000E+01 0. -1.
        -13    1    4    4    0    0 -0.14445843797E+02  0.27350979498E+02 -0.63974141251E+02  0.71059476718E+02  0.00000000000E+00 0.  1.
         14    1    4    4    0    0 -0.41836427170E+02 -0.14465994092E+02 -0.47383175383E+03  0.47589503313E+03  0.00000000000E+00 0. -1.
         -5    1    5    5    0  502 -0.33276986068E+02 -0.48026913139E+02 -0.16776700113E+03  0.17771268626E+03  0.47000000000E+01 0.  1.
         11    1    6    6    0    0  0.10909275337E+02 -0.20769632616E+02  0.48902242563E+01  0.23964645223E+02  0.00000000000E+00 0. -1.
        -12    1    6    6    0    0  0.12440098813E+02  0.51321899786E+02 -0.51913068480E+02  0.74051739583E+02  0.00000000000E+00 0.  1.
</event>
<event>
12    1  0.8728348E-002  0.1947929E+03  0.7818608E-02  0.1157044E+00
         21   -1    0    0  503  502  0.00000000000E+00  0.00000000000E+00  0.49338948968E+02  0.49338948968E+02  0.00000000000E+00 0.  1.
         21   -1    0    0  501  503 -0.00000000000E+00 -0.00000000000E+00 -0.11047662000E+04  0.11047662000E+04  0.00000000000E+00 0.  1.
          6    2    1    2  501    0 -0.58765134404E+02 -0.34600485459E+01 -0.85654324274E+03  0.87571852291E+03  0.17248562758E+03 0.  0.
         24    2    3    3    0    0 -0.32879345190E+02 -0.41690291062E+02 -0.78142573404E+03  0.78742154879E+03  0.81162712859E+02 0.  0.
         -6    2    1    2    0  502  0.58765134404E+02  0.34600485459E+01 -0.19888400831E+03  0.27838662608E+03  0.18568508788E+03 0.  0.
        -24    2    5    5    0    0  0.10374605694E+03 -0.14817633394E+02 -0.18727564044E+03  0.22824481465E+03  0.77722090329E+02 0.  0.
          5    1    3    3  501    0 -0.25885789214E+02  0.38230242516E+02 -0.75117508697E+02  0.88296974121E+02  0.47000000000E+01 0. -1.
        -11    1    4    4    0    0 -0.75655232696E+01 -0.54760553602E+02 -0.29323514158E+03  0.29840040822E+03  0.00000000000E+00 0.  1.
         12    1    4    4    0    0 -0.25313821920E+02  0.13070262540E+02 -0.48819059247E+03  0.48902114056E+03  0.00000000000E+00 0. -1.
         -5    1    5    5    0  502 -0.44980922531E+02  0.18277681940E+02 -0.11608367876E+02  0.50141811431E+02  0.47000000000E+01 0.  1.
         11    1    6    6    0    0  0.46262256060E+02 -0.10199351418E+02 -0.20206655475E+02  0.51502738089E+02  0.00000000000E+00 0. -1.
        -12    1    6    6    0    0  0.57483800875E+02 -0.46182819760E+01 -0.16706898496E+03  0.17674207656E+03  0.00000000000E+00 0.  1.
</event>
<event>
12    1  0.8728348E-002  0.1940561E+03  0.7818608E-02  0.1154941E+00
         21   -1    0    0  501  502  0.00000000000E+00  0.00000000000E+00  0.47712903914E+03  0.47712903914E+03  0.00000000000E+00 0.  1.
         21   -1    0    0  502  503 -0.00000000000E+00 -0.00000000000E+00 -0.10214229399E+03  0.10214229399E+03  0.00000000000E+00 0.  1.
         -6    2    1    2    0  503 -0.59570231936E+02  0.65153933996E+02  0.49075677318E+02  0.20016541186E+03  0.17281239062E+03 0.  0.
        -24    2    3    3    0    0 -0.86036607024E+02  0.22552400324E+02  0.77843273140E+02  0.14215658278E+03  0.78981075880E+02 0.  0.
          6    2    1    2  501    0  0.59570231936E+02 -0.65153933996E+02  0.32591106782E+03  0.37910592127E+03  0.17236481011E+03 0.  0.
         24    2    5    5    0    0  0.31123121591E+01 -0.75599963273E+02  0.29289318011E+03  0.31270646990E+03  0.79207830588E+02 0.  0.
          5    1    5    5  501    0  0.56457919777E+02  0.10446029276E+02  0.33017887710E+02  0.66399451369E+02  0.47000000000E+01 0. -1.
        -11    1    6    6    0    0  0.26885221563E+02 -0.64390458399E+02  0.12847819467E+03  0.14620394241E+03  0.00000000000E+00 0.  1.
         12    1    6    6    0    0 -0.23772909404E+02 -0.11209504874E+02  0.16441498545E+03  0.16650252749E+03  0.00000000000E+00 0. -1.
         -5    1    3    3    0  503  0.26466375088E+02  0.42601533672E+02 -0.28767595822E+02  0.58008829077E+02  0.47000000000E+01 0.  1.
         11    1    4    4    0    0 -0.19526063388E+02 -0.12093099161E+02 -0.11355706227E+02  0.25621519522E+02  0.00000000000E+00 0. -1.
        -12    1    4    4    0    0 -0.66510543637E+02  0.34645499485E+02  0.89198979367E+02  0.11653506326E+03  0.00000000000E+00 0.  1.
</event>
<event>
12    1  0.8728348E-002  0.1904963E+03  0.7818608E-02  0.1158051E+00
         21   -1    0    0  501  502  0.00000000000E+00  0.00000000000E+00  0.29315959114E+03  0.29315959114E+03  0.00000000000E+00 0.  1.
         21   -1    0    0  502  503 -0.00000000000E+00 -0.00000000000E+00 -0.48919389411E+03  0.48919389411E+03  0.00000000000E+00 0.  1.
         -6    2    1    2    0  503 -0.50293582455E+02  0.65434087871E+02 -0.43613696634E+03  0.47586023330E+03  0.17151222677E+03 0.  0.
        -24    2    3    3    0    0  0.55205661647E+01 -0.40413419247E+00 -0.10840210952E+03  0.13691758764E+03  0.83455188458E+02 0.  0.
          6    2    1    2  501    0  0.50293582455E+02 -0.65434087871E+02  0.24010266337E+03  0.30649325196E+03  0.17169088574E+03 0.  0.
         24    2    5    5    0    0  0.59437757852E+02 -0.97739946603E+02  0.12799037002E+03  0.18936707737E+03  0.79952554397E+02 0.  0.
          5    1    5    5  501    0 -0.91441753971E+01  0.32305858733E+02  0.11211229335E+03  0.11712617459E+03  0.47000000000E+01 0. -1.
        -11    1    6    6    0    0  0.33006855324E+02 -0.46764587682E+02  0.11790933260E+03  0.13106864565E+03  0.00000000000E+00 0.  1.
         12    1    6    6    0    0  0.26430902528E+02 -0.50975358922E+02  0.10081037422E+02  0.58298431721E+02  0.00000000000E+00 0. -1.
         -5    1    3    3    0  503 -0.55814148620E+02  0.65838222063E+02 -0.32773485682E+03  0.33894264566E+03  0.47000000000E+01 0.  1.
         13    1    4    4    0    0 -0.32970899633E+02 -0.17247927455E+02 -0.29343573575E+02  0.47387936590E+02  0.00000000000E+00 0. -1.
        -14    1    4    4    0    0  0.38491465798E+02  0.16843793262E+02 -0.79058535946E+02  0.89529651047E+02  0.00000000000E+00 0.  1.
</event>
<event>
12    1  0.8728348E-002  0.2280313E+03  0.7818608E-02  0.1128228E+00
         21   -1    0    0  503  502  0.00000000000E+00  0.00000000000E+00  0.88055249059E+03  0.88055249059E+03  0.00000000000E+00 0.  1.
         21   -1    0    0  501  503 -0.00000000000E+00 -0.00000000000E+00 -0.95155673704E+02  0.95155673704E+02  0.00000000000E+00 0. -1.
          6    2    1    2  501    0  0.75411140456E+01  0.14964412229E+03  0.91604684079E+02  0.24574317916E+03  0.17189549215E+03 0.  0.
         24    2    3    3    0    0 -0.41956742945E+02  0.10760108851E+03  0.90802603701E+01  0.14062407983E+03  0.79713977264E+02 0.  0.
         -6    2    1    2    0  502 -0.75411140456E+01 -0.14964412229E+03  0.69379213280E+03  0.72996498513E+03  0.17044390350E+03 0.  0.
        -24    2    5    5    0    0  0.98478189576E+01 -0.45005981087E+02  0.50530507969E+03  0.51362965566E+03  0.79747612769E+02 0.  0.
          5    1    3    3  501    0  0.49497856990E+02  0.42043033774E+02  0.82524423709E+02  0.10511909933E+03  0.47000000000E+01 0. -1.
        -13    1    4    4    0    0 -0.22580069371E+02 -0.44874904325E+01 -0.10322723147E+02  0.25230055813E+02  0.00000000000E+00 0.  1.
         14    1    4    4    0    0 -0.19376673574E+02  0.11208857895E+03  0.19402983517E+02  0.11539402402E+03  0.00000000000E+00 0. -1.
         -5    1    5    5    0  502 -0.17388933003E+02 -0.10463814120E+03  0.18848705312E+03  0.21633532947E+03  0.47000000000E+01 0.  1.
         13    1    6    6    0    0  0.89973986955E+01  0.53847906118E+01  0.66116574196E+01  0.12396094831E+02  0.00000000000E+00 0. -1.
        -14    1    6    6    0    0  0.85042026203E+00 -0.50390771699E+02  0.49869342227E+03  0.50123356083E+03  0.00000000000E+00 0.  1.
</event>
<event>
12    1  0.8728348E-002  0.2400841E+03  0.7818608E-02  0.1119902E+00
         21   -1    0    0  503  502  0.00000000000E+00  0.00000000000E+00  0.58364609249E+03  0.58364609249E+03  0.00000000000E+00 0.  1.
         21   -1    0    0  501  503 -0.00000000000E+00 -0.00000000000E+00 -0.26328838780E+03  0.26328838780E+03  0.00000000000E+00 0. -1.
          6    2    1    2  501    0 -0.14259751378E+03  0.85949584266E+02 -0.17486408686E+03  0.29701486322E+03  0.17297109044E+03 0.  0.
         24    2    3    3    0    0 -0.71009036515E+02  0.50778291237E+02 -0.18141780620E+03  0.21684647065E+03  0.80555901709E+02 0.  0.
         -6    2    1    2    0  502  0.14259751378E+03 -0.85949584266E+02  0.49522179155E+03  0.54991961707E+03  0.17159714578E+03 0.  0.
        -24    2    5    5    0    0  0.20003170204E+02 -0.68404507046E+02  0.30194374620E+03  0.32032062834E+03  0.79724373113E+02 0.  0.
          5    1    3    3  501    0 -0.71588477260E+02  0.35171293029E+02  0.65537193340E+01  0.80168392568E+02  0.47000000000E+01 0. -1.
        -13    1    4    4    0    0 -0.52517678152E+02 -0.10675877944E+02 -0.96801767968E+02  0.11064656872E+03  0.00000000000E+00 0.  1.
         14    1    4    4    0    0 -0.18491358363E+02  0.61454169180E+02 -0.84616038228E+02  0.10619990193E+03  0.00000000000E+00 0. -1.
         -5    1    5    5    0  502  0.12259434357E+03 -0.17545077220E+02  0.19327804535E+03  0.22959898873E+03  0.47000000000E+01 0.  1.
         13    1    6    6    0    0 -0.15466915147E+02 -0.28930624771E+02  0.34285632319E+02  0.47452198024E+02  0.00000000000E+00 0. -1.
        -14    1    6    6    0    0  0.35470085351E+02 -0.39473882275E+02  0.26765811388E+03  0.27286843031E+03  0.00000000000E+00 0.  1.
</event>
<event>
12    1  0.8728348E-002  0.3604022E+03  0.7818608E-02  0.1058454E+00
         21   -1    0    0  501  502  0.00000000000E+00  0.00000000000E+00  0.77278282552E+03  0.77278282552E+03  0.00000000000E+00 0. -1.
         21   -1    0    0  502  503 -0.00000000000E+00 -0.00000000000E+00 -0.24737832547E+03  0.24737832547E+03  0.00000000000E+00 0. -1.
         -6    2    1    2    0  503 -0.11547696073E+02  0.31620829921E+03 -0.26417382690E+02  0.36107302095E+03  0.17191512609E+03 0.  0.
        -24    2    3    3    0    0 -0.47738981187E+02  0.20673080440E+03  0.36250755363E+02  0.22975464252E+03  0.80351992398E+02 0.  0.
          6    2    1    2  501    0  0.11547696073E+02 -0.31620829921E+03  0.55182188274E+03  0.65908813004E+03  0.17253618495E+03 0.  0.
         24    2    5    5    0    0 -0.93873921747E+01 -0.16070536109E+03  0.17567524667E+03  0.25150031924E+03  0.80475350711E+02 0.  0.
          5    1    5    5  501    0  0.20935088248E+02 -0.15550293812E+03  0.37614663607E+03  0.40758781080E+03  0.47000000000E+01 0. -1.
        -13    1    6    6    0    0 -0.16921439573E+02 -0.19413681668E+02 -0.22593015969E+00  0.25754168547E+02  0.00000000000E+00 0.  1.
         14    1    6    6    0    0  0.75340473982E+01 -0.14129167942E+03  0.17590117683E+03  0.22574615069E+03  0.00000000000E+00 0. -1.
         -5    1    3    3    0  503  0.36191285114E+02  0.10947749480E+03 -0.62668138053E+02  0.13131837843E+03  0.47000000000E+01 0.  1.
         11    1    4    4    0    0 -0.32063708349E+02  0.14935737420E+03 -0.11910701558E+02  0.15322392578E+03  0.00000000000E+00 0. -1.
        -12    1    4    4    0    0 -0.15675272838E+02  0.57373430203E+02  0.48161456920E+02  0.76530716738E+02  0.00000000000E+00 0.  1.
</event>
<event>
12    1  0.8728348E-002  0.3037885E+03  0.7818608E-02  0.1083367E+00
         21   -1    0    0  503  502  0.00000000000E+00  0.00000000000E+00  0.50906195587E+03  0.50906195587E+03  0.00000000000E+00 0. -1.
         21   -1    0    0  501  503 -0.00000000000E+00 -0.00000000000E+00 -0.18128093955E+03  0.18128093955E+03  0.00000000000E+00 0.  1.
          6    2    1    2  501    0 -0.60879900046E+02  0.24279354710E+03  0.16076057198E+03  0.34370251228E+03  0.17214060156E+03 0.  0.
         24    2    3    3    0    0  0.72994713182E+01  0.21452409670E+03  0.12071306383E+03  0.25959852061E+03  0.82133292766E+02 0.  0.
         -6    2    1    2    0  502  0.60879900046E+02 -0.24279354710E+03  0.16702044434E+03  0.34664038314E+03  0.17207166430E+03 0.  0.
        -24    2    5    5    0    0  0.85321706729E+02 -0.87598658864E+02  0.63711691995E+02  0.15855092688E+03  0.78268116386E+02 0.  0.
          5    1    3    3  501    0 -0.68179371364E+02  0.28269450397E+02  0.40047508150E+02  0.84103991668E+02  0.47000000000E+01 0. -1.
        -13    1    4    4    0    0  0.28423917417E+02  0.16361044180E+03  0.57515758958E+02  0.17573946135E+03  0.00000000000E+00 0.  1.
         14    1    4    4    0    0 -0.21124446099E+02  0.50913654903E+02  0.63197304867E+02  0.83859059267E+02  0.00000000000E+00 0. -1.
         -5    1    5    5    0  502 -0.24441806683E+02 -0.15519488823E+03  0.10330875234E+03  0.18808945626E+03  0.47000000000E+01 0.  1.
         13    1    6    6    0    0  0.55822678115E+02 -0.98367667186E+02  0.43361745384E+02  0.12113055066E+03  0.00000000000E+00 0. -1.
        -14    1    6    6    0    0  0.29499028614E+02  0.10769008322E+02  0.20349946611E+02  0.37420376220E+02  0.00000000000E+00 0.  1.
</event>
<event>
12    1  0.8728348E-002  0.2176531E+03  0.7818608E-02  0.1136923E+00
         21   -1    0    0  503  502  0.00000000000E+00  0.00000000000E+00  0.84636864922E+03  0.84636864922E+03  0.00000000000E+00 0. -1.
         21   -1    0    0  501  503 -0.00000000000E+00 -0.00000000000E+00 -0.62088913976E+02  0.62088913976E+02  0.00000000000E+00 0. -1.
          6    2    1    2  501    0  0.80955178265E+02 -0.10785166812E+03  0.23633107245E+03  0.32128684004E+03  0.17084242615E+03 0.  0.
         24    2    3    3    0    0  0.68941495376E+02 -0.94029416783E+02  0.25694446031E+03  0.29331569477E+03  0.80119785994E+02 0.  0.
         -6    2    1    2    0  502 -0.80955178265E+02  0.10785166812E+03  0.54794866280E+03  0.58717072316E+03  0.16228369564E+03 0.  0.
        -24    2    5    5    0    0 -0.70855963508E+02  0.70077688350E+01  0.32697424405E+03  0.34401795246E+03  0.79790469039E+02 0.  0.
          5    1    3    3  501    0  0.12013682889E+02 -0.13822251336E+02 -0.20613387862E+02  0.27971145269E+02  0.47000000000E+01 0. -1.
        -13    1    4    4    0    0 -0.88015454272E+01 -0.32861434700E+02  0.11764706708E+03  0.12246703019E+03  0.00000000000E+00 0.  1.
         14    1    4    4    0    0  0.77743040804E+02 -0.61167982083E+02  0.13929739323E+03  0.17084866458E+03  0.00000000000E+00 0. -1.
         -5    1    5    5    0  502 -0.10099214756E+02  0.10084389928E+03  0.22097441875E+03  0.24315277070E+03  0.47000000000E+01 0.  1.
         11    1    6    6    0    0 -0.65062810923E+02  0.35869102153E+02  0.26796626950E+03  0.27807496012E+03  0.00000000000E+00 0. -1.
        -12    1    6    6    0    0 -0.57931525853E+01 -0.28861333318E+02  0.59007974553E+02  0.65942992339E+02  0.00000000000E+00 0.  1.
</event>
<event>
12    1  0.8728348E-002  0.2146830E+03  0.7818608E-02  0.1139662E+00
         21   -1    0    0  501  502  0.00000000000E+00  0.00000000000E+00  0.75731796240E+02  0.75731796240E+02  0.00000000000E+00 0. -1.
         21   -1    0    0  502  503 -0.00000000000E+00 -0.00000000000E+00 -0.58700097965E+03  0.58700097965E+03  0.00000000000E+00 0.  1.
         -6    2    1    2    0  503  0.69838292704E+02  0.11421367961E+03 -0.22509194531E+03  0.30498118899E+03  0.15628496427E+03 0.  0.
        -24    2    3    3    0    0  0.98658529292E+02  0.10653199352E+03 -0.21210004741E+03  0.27211032424E+03  0.89303008923E+02 0.  0.
          6    2    1    2  501    0 -0.69838292704E+02 -0.11421367961E+03 -0.28617723809E+03  0.35775158690E+03  0.16782918276E+03 0.  0.
         24    2    5    5    0    0 -0.94030924164E+01 -0.41508190962E+02 -0.56188684368E+02  0.10904427627E+03  0.83199386249E+02 0.  0.
          5    1    5    5  501    0 -0.60435200288E+02 -0.72705488649E+02 -0.22998855373E+03  0.24870731063E+03  0.47000000000E+01 0. -1.
        -11    1    6    6    0    0  0.25550119092E+02 -0.41025735510E+02 -0.56152205110E+02  0.74087716246E+02  0.00000000000E+00 0.  1.
         12    1    6    6    0    0 -0.34953211508E+02 -0.48245545186E+00 -0.36479257378E-01  0.34956560024E+02  0.00000000000E+00 0. -1.
         -5    1    3    3    0  503 -0.28820236588E+02  0.76816860863E+01 -0.12991897904E+02  0.32870864748E+02  0.47000000000E+01 0.  1.
         13    1    4    4    0    0  0.33412431478E+02 -0.43724900597E+01 -0.15370728807E+02  0.37037393950E+02  0.00000000000E+00 0. -1.
        -14    1    4    4    0    0  0.65246097815E+02  0.11090448358E+03 -0.19672931860E+03  0.23507293029E+03  0.00000000000E+00 0.  1.
</event>
<event>
12    1  0.8728348E-002  0.1763211E+03  0.7818608E-02  0.1171531E+00
         21   -1    0    0  503  502  0.00000000000E+00  0.00000000000E+00  0.15239542152E+04  0.15239542152E+04  0.00000000000E+00 0. -1.
         21   -1    0    0  501  503 -0.00000000000E+00 -0.00000000000E+00 -0.20958062515E+02  0.20958062515E+02  0.00000000000E+00 0. -1.
          6    2    1    2  501    0  0.38155962375E+02  0.64587113417E+01  0.62034947276E+03  0.64492060225E+03  0.17202186613E+03 0.  0.
         24    2    3    3    0    0 -0.17164750327E+02 -0.15253197421E+02  0.53001565136E+03  0.53668901017E+03  0.81186293522E+02 0.  0.
         -6    2    1    2    0  502 -0.38155962375E+02 -0.64587113417E+01  0.88264667991E+03  0.89999167546E+03  0.17152918678E+03 0.  0.
        -24    2    5    5    0    0 -0.82980948849E+02  0.22175170435E+02  0.70022758286E+03  0.70991801719E+03  0.79292794624E+02 0.  0.
          5    1    3    3  501    0  0.55320712702E+02  0.21711908762E+02  0.90333821400E+02  0.10823159208E+03  0.47000000000E+01 0. -1.
        -13    1    4    4    0    0 -0.15193146326E+02  0.32161310644E+02  0.18099847639E+03  0.18446037529E+03  0.00000000000E+00 0.  1.
         14    1    4    4    0    0 -0.19716040015E+01 -0.47414508064E+02  0.34901717498E+03  0.35222863487E+03  0.00000000000E+00 0. -1.
         -5    1    5    5    0  502  0.44824986474E+02 -0.28633881776E+02  0.18241909706E+03  0.19007365827E+03  0.47000000000E+01 0.  1.
         11    1    6    6    0    0 -0.19067611625E+02  0.39828942100E+02  0.40144846513E+03  0.40386976688E+03  0.00000000000E+00 0. -1.
        -12    1    6    6    0    0 -0.63913337223E+02 -0.17653771665E+02  0.29877911773E+03  0.30604825031E+03  0.00000000000E+00 0.  1.
</event>
<event>
12    1  0.8728348E-002  0.1901900E+03  0.7818608E-02  0.1158441E+00
         21   -1    0    0  503  502  0.00000000000E+00  0.00000000000E+00  0.61031117507E+03  0.61031117507E+03  0.00000000000E+00 0.  1.
         21   -1    0    0  501  503 -0.00000000000E+00 -0.00000000000E+00 -0.59433329261E+02  0.59433329261E+02  0.00000000000E+00 0. -1.
          6    2    1    2  501    0  0.45830206334E+02 -0.67520341978E+02  0.30246750225E+03  0.35729376432E+03  0.17179301416E+03 0.  0.
         24    2    3    3    0    0  0.96244184458E+02 -0.37185398108E+02  0.23195044618E+03  0.26533440804E+03  0.77172804382E+02 0.  0.
         -6    2    1    2    0  502 -0.45830206334E+02  0.67520341978E+02  0.24841034356E+03  0.31245074001E+03  0.17105075782E+03 0.  0.
        -24    2    5    5    0    0  0.21521203139E+02  0.85298583677E+02  0.14339682718E+03  0.18634678742E+03  0.80146519420E+02 0.  0.
          5    1    3    3  501    0 -0.50413978124E+02 -0.30334943870E+02  0.70517056073E+02  0.91959356278E+02  0.47000000000E+01 0. -1.
        -11    1    4    4    0    0  0.12816690441E+02 -0.41351548274E+02  0.10256704538E+03  0.11132931733E+03  0.00000000000E+00 0.  1.
         12    1    4    4    0    0  0.83427494016E+02  0.41661501656E+01  0.12938340079E+03  0.15400509071E+03  0.00000000000E+00 0. -1.
         -5    1    5    5    0  502 -0.67351409473E+02 -0.17778241699E+02  0.10501351638E+03  0.12610395259E+03  0.47000000000E+01 0.  1.
         13    1    6    6    0    0 -0.23286479390E+02  0.13391790489E+02  0.10713884745E+02  0.28920364818E+02  0.00000000000E+00 0. -1.
        -14    1    6    6    0    0  0.44807682530E+02  0.71906793188E+02  0.13268294244E+03  0.15742642261E+03  0.00000000000E+00 0.  1.
</event>
<event>
12    1  0.8728348E-002  0.1966733E+03  0.7818608E-02  0.1153303E+00
         21   -1    0    0  503  502  0.00000000000E+00  0.00000000000E+00  0.88840118375E+02  0.88840118375E+02  0.00000000000E+00 0. -1.
         21   -1    0    0  501  503 -0.00000000000E+00 -0.00000000000E+00 -0.45763579550E+03  0.45763579550E+03  0.00000000000E+00 0. -1.
          6    2    1    2  501    0 -0.41717704385E+02  0.82691122327E+02 -0.11343444574E+03  0.22415659454E+03  0.16970744481E+03 0.  0.
         24    2    3    3    0    0 -0.72607294771E+02  0.91892095813E+02 -0.12714433809E+03  0.18881715686E+03  0.75962224094E+02 0.  0.
         -6    2    1    2    0  502  0.41717704385E+02 -0.82691122327E+02 -0.25536123139E+03  0.32231931934E+03  0.17349984596E+03 0.  0.
        -24    2    5    5    0    0  0.80340320376E+01 -0.55608334810E+02 -0.26083483642E+03  0.27850017381E+03  0.79816679672E+02 0.  0.
          5    1    3    3  501    0  0.30889590386E+02 -0.92009734861E+01  0.13709892352E+02  0.35339437681E+02  0.47000000000E+01 0. -1.
        -11    1    4    4    0    0 -0.24554976705E+01 -0.99203753174E+01  0.15693204683E+01  0.10339539737E+02  0.00000000000E+00 0.  1.
         12    1    4    4    0    0 -0.70151797100E+02  0.10181247113E+03 -0.12871365856E+03  0.17847761712E+03  0.00000000000E+00 0. -1.
         -5    1    5    5    0  502  0.33683672347E+02 -0.27082787518E+02  0.54736050270E+01  0.43819145525E+02  0.47000000000E+01 0.  1.
         13    1    6    6    0    0 -0.25511932780E+02 -0.57241421929E+02 -0.14667301659E+03  0.15950051064E+03  0.00000000000E+00 0. -1.
        -14    1    6    6    0    0  0.33545964817E+02  0.16330871197E+01 -0.11416181983E+03  0.11899966317E+03  0.00000000000E+00 0.  1.
</event>
<event>
12    1  0.8728348E-002  0.2175865E+03  0.7818608E-02  0.1135938E+00
         21   -1    0    0  503  502  0.00000000000E+00  0.00000000000E+00  0.87910196697E+02  0.87910196697E+02  0.00000000000E+00 0. -1.
         21   -1    0    0  501  503 -0.00000000000E+00 -0.00000000000E+00 -0.54112078720E+03  0.54112078720E+03  0.00000000000E+00 0. -1.
          6    2    1    2  501    0 -0.30960066178E+02 -0.12864928433E+03 -0.19356971224E+03  0.29027258209E+03  0.17111333775E+03 0.  0.
         24    2    3    3    0    0 -0.20371875774E+02  0.38720813939E+01 -0.82056453458E+02  0.11668882987E+03  0.80330661178E+02 0.  0.
         -6    2    1    2    0  502  0.30960066178E+02  0.12864928433E+03 -0.25964087826E+03  0.33875840181E+03  0.17272725632E+03 0.  0.
        -24    2    5    5    0    0 -0.78985475805E+01  0.13580981382E+03 -0.25330962137E+03  0.29846646887E+03  0.80061077810E+02 0.  0.
          5    1    3    3  501    0 -0.10588190404E+02 -0.13252136572E+03 -0.11151325878E+03  0.17358375222E+03  0.47000000000E+01 0. -1.
        -13    1    4    4    0    0  0.14254225980E+02  0.10587947366E+02  0.83675936990E+01  0.19629167379E+02  0.00000000000E+00 0.  1.
         14    1    4    4    0    0 -0.34626101754E+02 -0.67158659717E+01 -0.90424047157E+02  0.97059662490E+02  0.00000000000E+00 0. -1.
         -5    1    5    5    0  502  0.38858613759E+02 -0.71605294936E+01 -0.63312568946E+01  0.40291932937E+02  0.47000000000E+01 0.  1.
         13    1    6    6    0    0  0.73770757330E+01  0.12539760290E+03 -0.16038714175E+03  0.20372288850E+03  0.00000000000E+00 0. -1.
        -14    1    6    6    0    0 -0.15275623314E+02  0.10412210921E+02 -0.92922479616E+02  0.94743580373E+02  0.00000000000E+00 0.  1.
</event>
<event>
12    1  0.8728348E-002  0.2067795E+03  0.7818608E-02  0.1144515E+00
         21   -1    0    0  501  502  0.00000000000E+00  0.00000000000E+00  0.14815809029E+03  0.14815809029E+03  0.00000000000E+00 0.  1.
         21   -1    0    0  502  503 -0.00000000000E+00 -0.00000000000E+00 -0.51390531913E+03  0.51390531913E+03  0.00000000000E+00 0. -1.
         -6    2    1    2    0  503  0.10165380551E+03  0.47973637927E+02 -0.40375804218E+03  0.45362795423E+03  0.17355920640E+03 0.  0.
        -24    2    3    3    0    0  0.13297787202E+03  0.48729850861E+02 -0.38188977679E+03  0.41513016167E+03  0.80221796880E+02 0.  0.
          6    2    1    2  501    0 -0.10165380551E+03 -0.47973637927E+02  0.38010813333E+02  0.20843545519E+03  0.17136379705E+03 0.  0.
         24    2    5    5    0    0 -0.59404345485E+02 -0.76638440812E+02  0.72060630476E+02  0.14688736144E+03  0.83551395039E+02 0.  0.
          5    1    5    5  501    0 -0.42249460021E+02  0.28664802885E+02 -0.34049817143E+02  0.61548093748E+02  0.47000000000E+01 0. -1.
        -13    1    6    6    0    0 -0.74033791124E+02 -0.52305872448E+02  0.75912553377E+02  0.11823545272E+03  0.00000000000E+00 0.  1.
         14    1    6    6    0    0  0.14629445640E+02 -0.24332568364E+02 -0.38519229003E+01  0.28651908713E+02  0.00000000000E+00 0. -1.
         -5    1    3    3    0  503 -0.31324066517E+02 -0.75621293429E+00 -0.21868265383E+02  0.38497792561E+02  0.47000000000E+01 0.  1.
         11    1    4    4    0    0  0.62121692884E+02 -0.41879126231E+01 -0.23993316859E+03  0.24788014993E+03  0.00000000000E+00 0. -1.
        -12    1    4    4    0    0  0.70856179139E+02  0.52917763484E+02 -0.14195660820E+03  0.16725001174E+03  0.00000000000E+00 0.  1.
</event>
<event>
12    1  0.8728348E-002  0.2549273E+03  0.7818608E-02  0.1110274E+00
         21   -1    0    0  501  502  0.00000000000E+00  0.00000000000E+00  0.62521624814E+03  0.62521624814E+03  0.00000000000E+00 0. -1.
         21   -1    0    0  502  503 -0.00000000000E+00 -0.00000000000E+00 -0.14963415841E+03  0.14963415841E+03  0.00000000000E+00 0. -1.
         -6    2    1    2    0  503  0.14145700254E+03 -0.12246214824E+03  0.23339254167E+02  0.25570540361E+03  0.17272368491E+03 0.  0.
        -24    2    3    3    0    0  0.15240614829E+03 -0.50654870241E+02  0.28851766897E+02  0.18270782308E+03  0.82195950287E+02 0.  0.
          6    2    1    2  501    0 -0.14145700254E+03  0.12246214824E+03  0.45224283556E+03  0.51914500295E+03  0.17314990744E+03 0.  0.
         24    2    5    5    0    0 -0.77897769091E+02  0.58940711081E+02  0.11890185083E+03  0.17387257248E+03  0.80944125661E+02 0.  0.
          5    1    5    5  501    0 -0.63559233452E+02  0.63521437161E+02  0.33334098474E+03  0.34527243047E+03  0.47000000000E+01 0. -1.
        -13    1    6    6    0    0  0.11850865216E+02 -0.77414815482E+01  0.74220680012E+01  0.15983135999E+02  0.00000000000E+00 0.  1.
         14    1    6    6    0    0 -0.89748634307E+02  0.66682192629E+02  0.11147978282E+03  0.15788943648E+03  0.00000000000E+00 0. -1.
         -5    1    3    3    0  503 -0.10949145750E+02 -0.71807278001E+02 -0.55125127297E+01  0.72997580530E+02  0.47000000000E+01 0.  1.
         13    1    4    4    0    0  0.44223984406E+02 -0.56877821983E+02  0.10740469036E+02  0.72843703265E+02  0.00000000000E+00 0. -1.
        -14    1    4    4    0    0  0.10818216389E+03  0.62229517419E+01  0.18111297861E+02  0.10986411981E+03  0.00000000000E+00 0.  1.
</event>
<event>
12    1  0.8728348E-002  0.2204762E+03  0.7818608E-02  0.1133544E+00
         21   -1    0    0  501  502  0.00000000000E+00  0.00000000000E+00  0.22147810336E+03  0.22147810336E+03  0.00000000000E+00 0. -1.
         21   -1    0    0  502  503 -0.00000000000E+00 -0.00000000000E+00 -0.22798125978E+03  0.22798125978E+03  0.00000000000E+00 0. -1.
         -6    2    1    2    0  503  0.13608604376E+03 -0.17956445261E+02 -0.46864015585E+02  0.22540186693E+03  0.17253382401E+03 0.  0.
        -24    2    3    3    0    0  0.94813228395E+01 -0.25089107176E+02  0.88703827172E+01  0.86808781321E+02  0.82083628350E+02 0.  0.
          6    2    1    2  501    0 -0.13608604376E+03  0.17956445261E+02  0.40360859162E+02  0.22405749621E+03  0.17242655660E+03 0.  0.
         24    2    5    5    0    0 -0.82830138739E+02  0.64553811677E+02 -0.16011961304E+02  0.13346229289E+03  0.80794642357E+02 0.  0.
          5    1    5    5  501    0 -0.53255905020E+02 -0.46597366416E+02  0.56372820466E+02  0.90595203315E+02  0.47000000000E+01 0. -1.
        -11    1    6    6    0    0 -0.14831633847E+02  0.82246746519E+00 -0.35293999493E+02  0.38292560838E+02  0.00000000000E+00 0.  1.
         12    1    6    6    0    0 -0.67998504892E+02  0.63731344212E+02  0.19282038189E+02  0.95169732054E+02  0.00000000000E+00 0. -1.
         -5    1    3    3    0  503  0.12660472092E+03  0.71326619156E+01 -0.55734398302E+02  0.13859308561E+03  0.47000000000E+01 0.  1.
         13    1    4    4    0    0  0.92293194934E+00 -0.55112426100E+02  0.64378476345E+01  0.55494839366E+02  0.00000000000E+00 0. -1.
        -14    1    4    4    0    0  0.85583908902E+01  0.30023318924E+02  0.24325350828E+01  0.31313941955E+02  0.00000000000E+00 0.  1.
</event>
<event>
12    1  0.8728348E-002  0.2049581E+03  0.7818608E-02  0.1145868E+00
         21   -1    0    0  503  502  0.00000000000E+00  0.00000000000E+00  0.46138397767E+02  0.46138397767E+02  0.00000000000E+00 0. -1.
         21   -1    0    0  501  503 -0.00000000000E+00 -0.00000000000E+00 -0.94536413657E+03  0.94536413657E+03  0.00000000000E+00 0.  1.
          6    2    1    2  501    0 -0.92890169591E+02  0.58642566137E+02 -0.55311290660E+03  0.58986583472E+03  0.17303260197E+03 0.  0.
         24    2    3    3    0    0 -0.80051602360E+02  0.91990901942E+02 -0.52310584861E+03  0.54296749958E+03  0.79393901927E+02 0.  0.
         -6    2    1    2    0  502  0.92890169591E+02 -0.58642566137E+02 -0.34611283220E+03  0.40163669962E+03  0.17161122254E+03 0.  0.
        -24    2    5    5    0    0  0.12085710203E+03 -0.17161867953E+02 -0.20168032167E+03  0.24871306597E+03  0.79260760866E+02 0.  0.
          5    1    3    3  501    0 -0.12838567231E+02 -0.33348335805E+02 -0.30007057989E+02  0.46898335138E+02  0.47000000000E+01 0. -1.
        -11    1    4    4    0    0  0.56639741055E+01 -0.92493865380E+01 -0.70267031905E+02  0.71099138720E+02  0.00000000000E+00 0.  1.
         12    1    4    4    0    0 -0.85715576465E+02  0.10124028848E+03 -0.45283881671E+03  0.47186836086E+03  0.00000000000E+00 0. -1.
         -5    1    5    5    0  502 -0.27966932435E+02 -0.41480698184E+02 -0.14443251053E+03  0.15292363365E+03  0.47000000000E+01 0.  1.
         11    1    6    6    0    0  0.36200790941E+02 -0.41434483872E+02 -0.56174555964E+02  0.78631383406E+02  0.00000000000E+00 0. -1.
        -12    1    6    6    0    0  0.84656311084E+02  0.24272615919E+02 -0.14550576571E+03  0.17008168256E+03  0.00000000000E+00 0.  1.
</event>
<event>
12    1  0.8728348E-002  0.2532442E+03  0.7818608E-02  0.1111494E+00
         21   -1    0    0  503  502  0.00000000000E+00  0.00000000000E+00  0.30993327285E+03  0.30993327285E+03  0.00000000000E+00 0. -1.
         21   -1    0    0  501  503 -0.00000000000E+00 -0.00000000000E+00 -0.31652107697E+03  0.31652107697E+03  0.00000000000E+00 0. -1.
          6    2    1    2  501    0 -0.12831431427E+03  0.13216367521E+03  0.18199007547E+03  0.31185412554E+03  0.17378379602E+03 0.  0.
         24    2    3    3    0    0 -0.39250343781E+02  0.13400862293E+03  0.93125090753E+02  0.18593800195E+03  0.80010983840E+02 0.  0.
         -6    2    1    2    0  502  0.12831431427E+03 -0.13216367521E+03 -0.18857787959E+03  0.31460022427E+03  0.17169707088E+03 0.  0.
        -24    2    5    5    0    0  0.85232281808E+02 -0.14291153663E+03 -0.86721185838E+02  0.20338667245E+03  0.78468626171E+02 0.  0.
          5    1    3    3  501    0 -0.89063970491E+02 -0.18449477225E+01  0.88864984715E+02  0.12591612359E+03  0.47000000000E+01 0. -1.
        -11    1    4    4    0    0 -0.45571016754E+02  0.60323057040E+02  0.12669551658E+02  0.76655765066E+02  0.00000000000E+00 0.  1.
         12    1    4    4    0    0  0.63206729738E+01  0.73685565894E+02  0.80455539094E+02  0.10928223689E+03  0.00000000000E+00 0. -1.
         -5    1    5    5    0  502  0.43082032464E+02  0.10747861424E+02 -0.10185669375E+03  0.11121355182E+03  0.47000000000E+01 0.  1.
         13    1    6    6    0    0  0.30316321437E+02 -0.74397230338E+02 -0.82984297332E+02  0.11550073953E+03  0.00000000000E+00 0. -1.
        -14    1    6    6    0    0  0.54915960371E+02 -0.68514306297E+02 -0.37368885054E+01  0.87885932928E+02  0.00000000000E+00 0.  1.
</event>
<event>
12    1  0.8728348E-002  0.1915311E+03  0.7818608E-02  0.1157744E+00
         21   -1    0    0  503  502  0.00000000000E+00  0.00000000000E+00  0.23378211483E+03  0.23378211483E+03  0.00000000000E+00 0. -1.
         21   -1    0    0  501  503 -0.00000000000E+00 -0.00000000000E+00 -0.16009342191E+03  0.16009342191E+03  0.00000000000E+00 0. -1.
          6    2    1    2  501    0  0.76900140025E+02 -0.31624467929E+02 -0.12854773700E+00  0.18861192253E+03  0.16929472020E+03 0.  0.
         24    2    3    3    0    0  0.75399779703E+02 -0.44855437272E+02  0.55215977850E+02  0.13149435830E+03  0.80900092846E+02 0.  0.
         -6    2    1    2    0  502 -0.76900140025E+02  0.31624467929E+02  0.73817240661E+02  0.20526361421E+03  0.17254109016E+03 0.  0.
        -24    2    5    5    0    0  0.27132745227E+01 -0.33976403081E+02  0.45734561363E+02  0.98247274665E+02  0.79994493879E+02 0.  0.
          5    1    3    3  501    0  0.15003603221E+01  0.13230969343E+02 -0.55344525587E+02  0.57117564228E+02  0.47000000000E+01 0. -1.
        -11    1    4    4    0    0  0.88441885103E+02 -0.53751551319E+02  0.46504236185E+02  0.11346294678E+03  0.00000000000E+00 0.  1.
         12    1    4    4    0    0 -0.13042105400E+02  0.88961140468E+01  0.87117416646E+01  0.18031411515E+02  0.00000000000E+00 0. -1.
         -5    1    5    5    0  502 -0.79613414548E+02  0.65600871010E+02  0.28082679298E+02  0.10701633955E+03  0.47000000000E+01 0.  1.
         13    1    6    6    0    0  0.19230237396E+02  0.12516323954E+02  0.43112740336E+02  0.48838189718E+02  0.00000000000E+00 0. -1.
        -14    1    6    6    0    0 -0.16516962873E+02 -0.46492727035E+02  0.26218210270E+01  0.49409084946E+02  0.00000000000E+00 0.  1.
</event>
<event>
12    1  0.8728348E-002  0.2481787E+03  0.7818608E-02  0.1114530E+00
         21   -1    0    0  501  502  0.00000000000E+00  0.00000000000E+00  0.49904565688E+03  0.49904565688E+03  0.00000000000E+00 0.  1.
         21   -1    0    0  502  503 -0.00000000000E+00 -0.00000000000E+00 -0.13526531689E+03  0.13526531689E+03  0.00000000000E+00 0. -1.
         -6    2    1    2    0  503  0.32656786717E+02  0.17618371394E+03  0.27644061878E+03  0.37121235603E+03  0.17109070921E+03 0.  0.
        -24    2    3    3    0    0 -0.39393831255E+02  0.14116098679E+03  0.18003376878E+03  0.24577610251E+03  0.80718254039E+02 0.  0.
          6    2    1    2  501    0 -0.32656786717E+02 -0.17618371394E+03  0.87339721213E+02  0.26309861774E+03  0.17171339196E+03 0.  0.
         24    2    5    5    0    0 -0.56696590881E+02 -0.38539746721E+02  0.59926863668E+02  0.12062992414E+03  0.79123537043E+02 0.  0.
          5    1    5    5  501    0  0.24039804164E+02 -0.13764396722E+03  0.27412857545E+02  0.14246869360E+03  0.47000000000E+01 0. -1.
        -13    1    6    6    0    0 -0.65261593545E+02 -0.58810574753E+01  0.20361354495E+02  0.68616668426E+02  0.00000000000E+00 0.  1.
         14    1    6    6    0    0  0.85650026639E+01 -0.32658689246E+02  0.39565509173E+02  0.52013255714E+02  0.00000000000E+00 0. -1.
         -5    1    3    3    0  503  0.72050617972E+02  0.35022727158E+02  0.96406850007E+02  0.12543625352E+03  0.47000000000E+01 0.  1.
         13    1    4    4    0    0 -0.42934930643E+02  0.74163149308E+02  0.49381650310E+02  0.98904642823E+02  0.00000000000E+00 0. -1.
        -14    1    4    4    0    0  0.35410993887E+01  0.66997837478E+02  0.13065211847E+03  0.14687145969E+03  0.00000000000E+00 0.  1.
</event>
<event>
12    1  0.8728348E-002  0.2366126E+03  0.7818608E-02  0.1122256E+00
         21   -1    0    0  501  502  0.00000000000E+00  0.00000000000E+00  0.20662621701E+04  0.20662621701E+04  0.00000000000E+00 0. -1.
         21   -1    0    0  502  503 -0.00000000000E+00 -0.00000000000E+00 -0.74262362320E+02  0.74262362320E+02  0.00000000000E+00 0.  1.
         -6    2    1    2    0  503  0.37984962606E+02 -0.15533647842E+03  0.14275310572E+03  0.27634035858E+03  0.17439399552E+03 0.  0.
        -24    2    3    3    0    0  0.43702809679E+01 -0.53895963798E+02  0.13899862131E+03  0.16930620057E+03  0.80125517499E+02 0.  0.
          6    2    1    2  501    0 -0.37984962606E+02  0.15533647842E+03  0.18492467020E+04  0.18641841738E+04  0.17290746085E+03 0.  0.
         24    2    5    5    0    0  0.16432480188E+02  0.99440403511E+02  0.63051746739E+03  0.64295173622E+03  0.75340813419E+02 0.  0.
          5    1    5    5  501    0 -0.54417442794E+02  0.55896074908E+02  0.12187292346E+04  0.12212324376E+04  0.47000000000E+01 0. -1.
        -13    1    6    6    0    0  0.23317168435E+02  0.84603430872E+01  0.56180968456E+02  0.61413100928E+02  0.00000000000E+00 0.  1.
         14    1    6    6    0    0 -0.68846882474E+01  0.90980060424E+02  0.57433649893E+03  0.58153863529E+03  0.00000000000E+00 0. -1.
         -5    1    3    3    0  503  0.33614681638E+02 -0.10144051462E+03  0.37544844126E+01  0.10703415801E+03  0.47000000000E+01 0. -1.
         11    1    4    4    0    0  0.25061224824E+02  0.42899947628E+01  0.79827096999E+02  0.83778484469E+02  0.00000000000E+00 0. -1.
        -12    1    4    4    0    0 -0.20690943856E+02 -0.58185958561E+02  0.59171524311E+02  0.85527716096E+02  0.00000000000E+00 0.  1.
</event>
<event>
12    1  0.8728348E-002  0.1967413E+03  0.7818608E-02  0.1152936E+00
         21   -1    0    0  503  502  0.00000000000E+00  0.00000000000E+00  0.23767473506E+03  0.23767473506E+03  0.00000000000E+00 0.  1.
         21   -1    0    0  501  503 -0.00000000000E+00 -0.00000000000E+00 -0.16239598661E+03  0.16239598661E+03  0.00000000000E+00 0.  1.
          6    2    1    2  501    0  0.64425391626E+02 -0.73044433425E+02  0.20766066488E+02  0.19591690261E+03  0.16871894639E+03 0.  0.
         24    2    3    3    0    0  0.71472030218E+02  0.28238201128E+01  0.44704379666E+02  0.11591202871E+03  0.79504036215E+02 0.  0.
         -6    2    1    2    0  502 -0.64425391626E+02  0.73044433425E+02  0.54512681962E+02  0.20415381906E+03  0.17094159529E+03 0.  0.
        -24    2    5    5    0    0 -0.55030263512E+02  0.11585372545E+03  0.52715658765E+02  0.16003779920E+03  0.79892057736E+02 0.  0.
          5    1    3    3  501    0 -0.70466385922E+01 -0.75868253538E+02 -0.23938313178E+02  0.80004873902E+02  0.47000000000E+01 0. -1.
        -11    1    4    4    0    0  0.45015808254E+00  0.22030652683E+02 -0.10031567981E+02  0.24211250610E+02  0.00000000000E+00 0.  1.
         12    1    4    4    0    0  0.71021872136E+02 -0.19206832571E+02  0.54735947647E+02  0.91700778099E+02  0.00000000000E+00 0. -1.
         -5    1    5    5    0  502 -0.93951281142E+01 -0.42809292028E+02  0.17970231966E+01  0.44116019863E+02  0.47000000000E+01 0.  1.
         11    1    6    6    0    0 -0.60966987751E+02  0.79433619889E+02  0.57342311714E+01  0.10029733282E+03  0.00000000000E+00 0. -1.
        -12    1    6    6    0    0  0.59367242389E+01  0.36420105564E+02  0.46981427594E+02  0.59740466375E+02  0.00000000000E+00 0.  1.
</event>
<event>
12    1  0.8728348E-002  0.2783234E+03  0.7818608E-02  0.1096735E+00
         21   -1    0    0  503  502  0.00000000000E+00  0.00000000000E+00  0.77436280786E+03  0.77436280786E+03  0.00000000000E+00 0.  1.
         21   -1    0    0  501  503 -0.00000000000E+00 -0.00000000000E+00 -0.10374865611E+03  0.10374865611E+03  0.00000000000E+00 0.  1.
          6    2    1    2  501    0  0.13050953248E+03 -0.17151548211E+03  0.42144328892E+03  0.50454747367E+03  0.17465225090E+03 0.  0.
         24    2    3    3    0    0 -0.90376395084E+01 -0.54108226812E+02  0.13733031623E+03  0.16690839410E+03  0.77391324633E+02 0.  0.
         -6    2    1    2    0  502 -0.13050953248E+03  0.17151548211E+03  0.24917086283E+03  0.37356399030E+03  0.17610689168E+03 0.  0.
        -24    2    5    5    0    0 -0.21154477507E+02  0.75192581849E+01  0.81755911957E+02  0.11490756706E+03  0.77560741779E+02 0.  0.
          5    1    3    3  501    0  0.13954717199E+03 -0.11740725530E+03  0.28411297269E+03  0.33763907957E+03  0.47000000000E+01 0. -1.
        -13    1    4    4    0    0 -0.75385883655E+01 -0.45438490803E+02  0.14687464985E+03  0.15392741643E+03  0.00000000000E+00 0.  1.
         14    1    4    4    0    0 -0.14990511429E+01 -0.86697360090E+01 -0.95443336237E+01  0.12980977664E+02  0.00000000000E+00 0. -1.
         -5    1    5    5    0  502 -0.10935505497E+03  0.16399622392E+03  0.16741495087E+03  0.25865642324E+03  0.47000000000E+01 0.  1.
         11    1    6    6    0    0  0.20306431751E+01  0.15895120559E+02 -0.10669292517E+02  0.19251290142E+02  0.00000000000E+00 0. -1.
        -12    1    6    6    0    0 -0.23185120682E+02 -0.83758623744E+01  0.92425204474E+02  0.95656276917E+02  0.00000000000E+00 0.  1.
</event>
<event>
12    1  0.8728348E-002  0.1837375E+03  0.7818608E-02  0.1164751E+00
         21   -1    0    0  503  502  0.00000000000E+00  0.00000000000E+00  0.15784873772E+04  0.15784873772E+04  0.00000000000E+00 0. -1.
         21   -1    0    0  501  503 -0.00000000000E+00 -0.00000000000E+00 -0.33249131904E+02  0.33249131904E+02  0.00000000000E+00 0. -1.
          6    2    1    2  501    0 -0.37499803643E+02 -0.53786675159E+02  0.28911050941E+03  0.34255562177E+03  0.17163981373E+03 0.  0.
         24    2    3    3    0    0 -0.83915961607E+02 -0.35979486496E+02  0.25513309473E+03  0.28215603240E+03  0.78630264720E+02 0.  0.
         -6    2    1    2    0  502  0.37499803643E+02  0.53786675159E+02  0.12561277359E+04  0.12691808874E+04  0.16930444240E+03 0.  0.
        -24    2    5    5    0    0  0.15653777742E+02  0.81912954198E+02  0.11728949850E+04  0.11785270554E+04  0.79300704342E+02 0.  0.
          5    1    3    3  501    0  0.46416157964E+02 -0.17807188663E+02  0.33977414681E+02  0.60399589374E+02  0.47000000000E+01 0. -1.
        -13    1    4    4    0    0 -0.13019084128E+02  0.20878284776E+02  0.93942346976E+02  0.97111090418E+02  0.00000000000E+00 0.  1.
         14    1    4    4    0    0 -0.70896877479E+02 -0.56857771272E+02  0.16119074775E+03  0.18504494198E+03  0.00000000000E+00 0. -1.
         -5    1    5    5    0  502  0.21846025901E+02 -0.28126279039E+02  0.83232750912E+02  0.90653831936E+02  0.47000000000E+01 0.  1.
         11    1    6    6    0    0  0.56550669272E+01  0.48836968333E+02  0.10416501029E+04  0.10428096500E+04  0.00000000000E+00 0. -1.
        -12    1    6    6    0    0  0.99987108144E+01  0.33075985864E+02  0.13124488214E+03  0.13571740547E+03  0.00000000000E+00 0.  1.
</event>
<event>
12    1  0.8728348E-002  0.1895771E+03  0.7818608E-02  0.1159150E+00
         21   -1    0    0  501  502  0.00000000000E+00  0.00000000000E+00  0.29601330252E+02  0.29601330252E+02  0.00000000000E+00 0.  1.
         21   -1    0    0  502  503 -0.00000000000E+00 -0.00000000000E+00 -0.21773674154E+04  0.21773674154E+04  0.00000000000E+00 0.  1.
         -6    2    1    2    0  503 -0.20015958511E+02  0.76227629915E+02 -0.18132451701E+04  0.18231284986E+04  0.17241863367E+03 0.  0.
        -24    2    3    3    0    0  0.80558294003E+01 -0.23588159098E+02 -0.93494965578E+03  0.93872117302E+03  0.80282527289E+02 0.  0.
          6    2    1    2  501    0  0.20015958511E+02 -0.76227629915E+02 -0.33452091497E+03  0.38384024701E+03  0.17093215763E+03 0.  0.
         24    2    5    5    0    0  0.31268767619E+02 -0.99359909662E+02 -0.33281005262E+03  0.35763442458E+03  0.79307774186E+02 0.  0.
          5    1    5    5  501    0 -0.11252809108E+02  0.23132279747E+02 -0.17108623538E+01  0.26205822428E+02  0.47000000000E+01 0. -1.
        -11    1    6    6    0    0 -0.17854214050E+02 -0.40949470122E+01 -0.20743051519E+02  0.27673375954E+02  0.00000000000E+00 0.  1.
         12    1    6    6    0    0  0.49122981669E+02 -0.95264962650E+02 -0.31206700110E+03  0.32996104863E+03  0.00000000000E+00 0. -1.
         -5    1    3    3    0  503 -0.28071787911E+02  0.99815789013E+02 -0.87829551435E+03  0.88440732558E+03  0.47000000000E+01 0.  1.
         13    1    4    4    0    0 -0.27722769806E+02  0.20409376579E+00 -0.14640563490E+03  0.14900739428E+03  0.00000000000E+00 0. -1.
        -14    1    4    4    0    0  0.35778599207E+02 -0.23792252863E+02 -0.78854402088E+03  0.78971377874E+03  0.00000000000E+00 0.  1.
</event>
<event>
12    1  0.8728348E-002  0.3426630E+03  0.7818608E-02  0.1065841E+00
         21   -1    0    0  503  502  0.00000000000E+00  0.00000000000E+00  0.11560188392E+04  0.11560188392E+04  0.00000000000E+00 0.  1.
         21   -1    0    0  501  503 -0.00000000000E+00 -0.00000000000E+00 -0.14059780855E+03  0.14059780855E+03  0.00000000000E+00 0. -1.
          6    2    1    2  501    0  0.12321818309E+03 -0.26827337626E+03  0.16314956074E+03  0.37803917054E+03  0.17071177532E+03 0.  0.
         24    2    3    3    0    0  0.11505642681E+03 -0.14703408059E+03  0.15671040285E+03  0.25626423947E+03  0.79096193754E+02 0.  0.
         -6    2    1    2    0  502 -0.12321818309E+03  0.26827337626E+03  0.85227146991E+03  0.91857747722E+03  0.17396723303E+03 0.  0.
        -24    2    5    5    0    0 -0.58711977203E+02  0.12772200050E+03  0.25428478089E+03  0.30089964041E+03  0.78229394293E+02 0.  0.
          5    1    3    3  501    0  0.81617562851E+01 -0.12123929567E+03  0.64391578896E+01  0.12177493106E+03  0.47000000000E+01 0. -1.
        -11    1    4    4    0    0  0.10026667151E+02 -0.75552222949E+01 -0.90772014174E+01  0.15492289168E+02  0.00000000000E+00 0.  1.
         12    1    4    4    0    0  0.10502975965E+03 -0.13947885829E+03  0.16578760427E+03  0.24077195030E+03  0.00000000000E+00 0. -1.
         -5    1    5    5    0  502 -0.64506205888E+02  0.14055137576E+03  0.59798668903E+03  0.61767783680E+03  0.47000000000E+01 0.  1.
         13    1    6    6    0    0 -0.91693814390E+01 -0.77182270258E+01  0.51734662351E+01  0.13054245948E+02  0.00000000000E+00 0. -1.
        -14    1    6    6    0    0 -0.49542595764E+02  0.13544022752E+03  0.24911131465E+03  0.28784539447E+03  0.00000000000E+00 0.  1.
</event>
<event>
12    1  0.8728348E-002  0.2385681E+03  0.7818608E-02  0.1121050E+00
         21   -1    0    0  503  502  0.00000000000E+00  0.00000000000E+00  0.29563964402E+03  0.29563964402E+03  0.00000000000E+00 0.  1.
         21   -1    0    0  501  503 -0.00000000000E+00 -0.00000000000E+00 -0.75937169761E+03  0.75937169761E+03  0.00000000000E+00 0.  1.
          6    2    1    2  501    0  0.16142747940E+03 -0.30823059661E+02 -0.68798266049E+03  0.72759255605E+03  0.17047549490E+03 0.  0.
         24    2    3    3    0    0  0.42695202773E+02 -0.26173334872E+02 -0.47389575746E+03  0.48269611772E+03  0.76879316642E+02 0.  0.
         -6    2    1    2    0  502 -0.16142747940E+03  0.30823059661E+02  0.22425060690E+03  0.32741878558E+03  0.17293303428E+03 0.  0.
        -24    2    5    5    0    0 -0.10866255832E+03  0.85962399930E+02  0.12993696817E+03  0.20600364570E+03  0.79729546363E+02 0.  0.
          5    1    3    3  501    0  0.11873227663E+03 -0.46497247898E+01 -0.21408690303E+03  0.24489643832E+03  0.47000000000E+01 0. -1.
        -13    1    4    4    0    0  0.53206078345E+02 -0.41679526121E+02 -0.28640280755E+03  0.29426966857E+03  0.00000000000E+00 0.  1.
         14    1    4    4    0    0 -0.10510875571E+02  0.15506191249E+02 -0.18749294992E+03  0.18842644915E+03  0.00000000000E+00 0. -1.
         -5    1    5    5    0  502 -0.52764921083E+02 -0.55139340268E+02  0.94313638733E+02  0.12141513988E+03  0.47000000000E+01 0.  1.
         11    1    6    6    0    0 -0.18919731660E+02 -0.13798493382E+01 -0.72010320032E+01  0.20290763717E+02  0.00000000000E+00 0. -1.
        -12    1    6    6    0    0 -0.89742826656E+02  0.87342249268E+02  0.13713800017E+03  0.18571288198E+03  0.00000000000E+00 0.  1.
</event>
<event>
12    1  0.8728348E-002  0.2022102E+03  0.7818608E-02  0.1148998E+00
         21   -1    0    0  503  502  0.00000000000E+00  0.00000000000E+00  0.44815275911E+03  0.44815275911E+03  0.00000000000E+00 0.  1.
         21   -1    0    0  501  503 -0.00000000000E+00 -0.00000000000E+00 -0.20224082990E+03  0.20224082990E+03  0.00000000000E+00 0.  1.
          6    2    1    2  501    0  0.10238489645E+03  0.25606737207E+02 -0.11979187340E+03  0.23502993262E+03  0.17248363483E+03 0.  0.
         24    2    3    3    0    0  0.66110318937E+02 -0.52325518657E+02 -0.68690289580E+02  0.13491628047E+03  0.79846807582E+02 0.  0.
         -6    2    1    2    0  502 -0.10238489645E+03 -0.25606737207E+02  0.36570380260E+03  0.41536365639E+03  0.16628085819E+03 0.  0.
        -24    2    5    5    0    0 -0.10108143934E+03 -0.36915497253E+02  0.37610546560E+03  0.39924312144E+03  0.79746708048E+02 0.  0.
          5    1    3    3  501    0  0.36274577511E+02  0.77932255864E+02 -0.51101583816E+02  0.10011365215E+03  0.47000000000E+01 0. -1.
        -11    1    4    4    0    0 -0.86965306830E+01  0.10954281184E+02  0.19547567031E+01  0.14122570444E+02  0.00000000000E+00 0.  1.
         12    1    4    4    0    0  0.74806849620E+02 -0.63279799841E+02 -0.70645046284E+02  0.12079371003E+03  0.00000000000E+00 0. -1.
         -5    1    5    5    0  502 -0.13034571097E+01  0.11308760046E+02 -0.10401662994E+02  0.16120534956E+02  0.47000000000E+01 0.  1.
         13    1    6    6    0    0 -0.14635747746E+02 -0.43483360648E+02  0.15839855251E+03  0.16490939695E+03  0.00000000000E+00 0. -1.
        -14    1    6    6    0    0 -0.86445691593E+02  0.65678633952E+01  0.21770691309E+03  0.23433372448E+03  0.00000000000E+00 0.  1.
</event>
<event>
12    1  0.8728348E-002  0.3160412E+03  0.7818608E-02  0.1078082E+00
         21   -1    0    0  501  502  0.00000000000E+00  0.00000000000E+00  0.47398053629E+03  0.47398053629E+03  0.00000000000E+00 0.  1.
         21   -1    0    0  502  503 -0.00000000000E+00 -0.00000000000E+00 -0.47009907178E+03  0.47009907178E+03  0.00000000000E+00 0.  1.
         -6    2    1    2    0  503 -0.19943111531E+03  0.17655057330E+03  0.35482858020E+03  0.47516880025E+03  0.17011523363E+03 0.  0.
        -24    2    3    3    0    0 -0.12902053462E+03  0.15755610778E+03  0.17561484451E+03  0.28162786749E+03  0.83686657730E+02 0.  0.
          6    2    1    2  501    0  0.19943111531E+03 -0.17655057330E+03 -0.35094711569E+03  0.46891080783E+03  0.16053221795E+03 0.  0.
         24    2    5    5    0    0  0.17305471270E+03 -0.12499980815E+03 -0.34063845228E+03  0.40990610850E+03  0.80097296975E+02 0.  0.
          5    1    5    5  501    0  0.26376402604E+02 -0.51550765150E+02 -0.10308663407E+02  0.59004699331E+02  0.47000000000E+01 0. -1.
        -13    1    6    6    0    0  0.42017808118E+02 -0.57605800463E+02 -0.17062285177E+03  0.18492182671E+03  0.00000000000E+00 0.  1.
         14    1    6    6    0    0  0.13103690458E+03 -0.67394007691E+02 -0.17001560051E+03  0.22498428179E+03  0.00000000000E+00 0. -1.
         -5    1    3    3    0  503 -0.70410580683E+02  0.18994465528E+02  0.17921373569E+03  0.19354093275E+03  0.47000000000E+01 0.  1.
         11    1    4    4    0    0 -0.14728865486E+02  0.51574140323E+02  0.87352265268E+02  0.10250487635E+03  0.00000000000E+00 0. -1.
        -12    1    4    4    0    0 -0.11429166914E+03  0.10598196745E+03  0.88262579245E+02  0.17912299114E+03  0.00000000000E+00 0.  1.
</event>
<event>
12    1  0.8728348E-002  0.2021705E+03  0.7818608E-02  0.1147958E+00
         21   -1    0    0  501  502  0.00000000000E+00  0.00000000000E+00  0.27523390784E+03  0.27523390784E+03  0.00000000000E+00 0. -1.
         21   -1    0    0  502  503 -0.00000000000E+00 -0.00000000000E+00 -0.70119476282E+03  0.70119476282E+03  0.00000000000E+00 0.  1.
         -6    2    1    2    0  503 -0.93810547634E+02  0.43458160065E+02 -0.64645564689E+03  0.67727842718E+03  0.17352848183E+03 0.  0.
        -24    2    3    3    0    0 -0.37707716298E+02  0.73214824497E+02 -0.20864566044E+03  0.23486158641E+03  0.69603669130E+02 0.  0.
          6    2    1    2  501    0  0.93810547634E+02 -0.43458160065E+02  0.22049479191E+03  0.29915024349E+03  0.17373509834E+03 0.  0.
         24    2    5    5    0    0  0.74095242713E+02 -0.94314622125E+02  0.13387542117E+03  0.19668035343E+03  0.79844724886E+02 0.  0.
          5    1    5    5  501    0  0.19715304921E+02  0.50856462060E+02  0.86619370742E+02  0.10246989006E+03  0.47000000000E+01 0. -1.
        -13    1    6    6    0    0  0.86201813890E+01 -0.69108700592E+02  0.42910379057E+02  0.81802326712E+02  0.00000000000E+00 0.  1.
         14    1    6    6    0    0  0.65475061324E+02 -0.25205921533E+02  0.90965042109E+02  0.11487802671E+03  0.00000000000E+00 0. -1.
         -5    1    3    3    0  503 -0.56102831336E+02 -0.29756664432E+02 -0.43780998644E+03  0.44241684076E+03  0.47000000000E+01 0.  1.
         11    1    4    4    0    0  0.19630682859E+02  0.29039957173E+02 -0.58929002490E+02  0.68566100637E+02  0.00000000000E+00 0. -1.
        -12    1    4    4    0    0 -0.57338399157E+02  0.44174867324E+02 -0.14971665795E+03  0.16629548577E+03  0.00000000000E+00 0.  1.
</event>
<event>
12    1  0.8728348E-002  0.1762177E+03  0.7818608E-02  0.1171669E+00
         21   -1    0    0  501  502  0.00000000000E+00  0.00000000000E+00  0.15881177126E+03  0.15881177126E+03  0.00000000000E+00 0.  1.
         21   -1    0    0  502  503 -0.00000000000E+00 -0.00000000000E+00 -0.56923321918E+03  0.56923321918E+03  0.00000000000E+00 0.  1.
         -6    2    1    2    0  503 -0.11956661160E+02  0.35758484903E+02 -0.50055452838E+03  0.53066703548E+03  0.17213667732E+03 0.  0.
        -24    2    3    3    0    0  0.59398730989E+02  0.33544592938E+02 -0.27166288036E+03  0.29085467167E+03  0.78372638763E+02 0.  0.
          6    2    1    2  501    0  0.11956661160E+02 -0.35758484903E+02  0.90133080468E+02  0.19737795496E+03  0.17150059452E+03 0.  0.
         24    2    5    5    0    0 -0.22573083738E+02  0.40185243162E+02  0.50586515840E+02  0.10493459993E+03  0.79547952831E+02 0.  0.
          5    1    5    5  501    0  0.34529744898E+02 -0.75943728065E+02  0.39546564628E+02  0.92443355029E+02  0.47000000000E+01 0. -1.
        -11    1    6    6    0    0  0.45928125019E+01 -0.22831924080E+02  0.11787319475E+02  0.26102329097E+02  0.00000000000E+00 0.  1.
         12    1    6    6    0    0 -0.27165896240E+02  0.63017167242E+02  0.38799196365E+02  0.78832270831E+02  0.00000000000E+00 0. -1.
         -5    1    3    3    0  503 -0.71355392149E+02  0.22138919652E+01 -0.22889164802E+03  0.23981236382E+03  0.47000000000E+01 0.  1.
         13    1    4    4    0    0 -0.17132203094E+02  0.77899848217E+01 -0.24875169010E+02  0.31192471522E+02  0.00000000000E+00 0. -1.
        -14    1    4    4    0    0  0.76530934083E+02  0.25754608116E+02 -0.24678771135E+03  0.25966220014E+03  0.00000000000E+00 0.  1.
</event>
<event>
12    1  0.8728348E-002  0.2199972E+03  0.7818608E-02  0.1135572E+00
         21   -1    0    0  501  502  0.00000000000E+00  0.00000000000E+00  0.59613757282E+03  0.59613757282E+03  0.00000000000E+00 0. -1.
         21   -1    0    0  502  503 -0.00000000000E+00 -0.00000000000E+00 -0.10144945885E+03  0.10144945885E+03  0.00000000000E+00 0. -1.
         -6    2    1    2    0  503 -0.45532991951E+02 -0.11157077397E+03  0.83416274088E+02  0.23528079018E+03  0.18405837250E+03 0.  0.
        -24    2    3    3    0    0 -0.82331345169E+02 -0.18827468167E+02  0.68021344652E+02  0.13421381525E+03  0.79079206619E+02 0.  0.
          6    2    1    2  501    0  0.45532991951E+02  0.11157077397E+03  0.41127183988E+03  0.46230624150E+03  0.17338178592E+03 0.  0.
         24    2    5    5    0    0  0.82036430492E+02  0.81907658423E+02  0.19265599022E+03  0.23863822597E+03  0.79956437445E+02 0.  0.
          5    1    5    5  501    0 -0.36503438541E+02  0.29663115543E+02  0.21861584966E+03  0.22366801553E+03  0.47000000000E+01 0. -1.
        -13    1    6    6    0    0  0.12108138890E+00 -0.13959099135E+02  0.12510925863E+02  0.18745516139E+02  0.00000000000E+00 0.  1.
         14    1    6    6    0    0  0.81915349103E+02  0.95866757558E+02  0.18014506436E+03  0.21989270983E+03  0.00000000000E+00 0. -1.
         -5    1    3    3    0  503  0.36798353218E+02 -0.92743305799E+02  0.15394929436E+02  0.10106697493E+03  0.47000000000E+01 0.  1.
         11    1    4    4    0    0 -0.69030607889E+01 -0.26813182578E+02  0.48573427309E+02  0.55910435956E+02  0.00000000000E+00 0. -1.
        -12    1    4    4    0    0 -0.75428284380E+02  0.79857144109E+01  0.19447917342E+02  0.78303379289E+02  0.00000000000E+00 0.  1.
</event>
<event>
12    1  0.8728348E-002  0.1872687E+03  0.7818608E-02  0.1161019E+00
         21   -1    0    0  501  502  0.00000000000E+00  0.00000000000E+00  0.45668403025E+03  0.45668403025E+03  0.00000000000E+00 0.  1.
         21   -1    0    0  502  503 -0.00000000000E+00 -0.00000000000E+00 -0.12848960929E+03  0.12848960929E+03  0.00000000000E+00 0.  1.
         -6    2    1    2    0  503  0.76102694234E+01  0.71816812373E+02 -0.21639754754E+02  0.18851486978E+03  0.17278311955E+03 0.  0.
        -24    2    3    3    0    0  0.57873265138E+02  0.13900386059E+01  0.23589604204E+01  0.98601981208E+02  0.79784327903E+02 0.  0.
          6    2    1    2  501    0 -0.76102694234E+01 -0.71816812373E+02  0.34983417572E+03  0.39665876976E+03  0.17244900228E+03 0.  0.
         24    2    5    5    0    0 -0.11784905844E+02 -0.86664910625E+02  0.35903600749E+03  0.37809382110E+03  0.79989950209E+02 0.  0.
          5    1    5    5  501    0  0.41746364204E+01  0.14848098252E+02 -0.92018317736E+01  0.18564948665E+02  0.47000000000E+01 0. -1.
        -13    1    6    6    0    0  0.68321065230E+00 -0.73540234523E+02  0.13848881462E+03  0.15680492545E+03  0.00000000000E+00 0.  1.
         14    1    6    6    0    0 -0.12468116496E+02 -0.13124676102E+02  0.22054719287E+03  0.22128889565E+03  0.00000000000E+00 0. -1.
         -5    1    3    3    0  503 -0.50262995714E+02  0.70426773767E+02 -0.23998715175E+02  0.89912888573E+02  0.47000000000E+01 0.  1.
         11    1    4    4    0    0  0.18023416534E+02  0.65440862764E+01  0.39484899750E+02  0.43894486180E+02  0.00000000000E+00 0. -1.
        -12    1    4    4    0    0  0.39849848604E+02 -0.51540476705E+01 -0.37125939330E+02  0.54707495028E+02  0.00000000000E+00 0.  1.
</event>
<event>
12    1  0.8728348E-002  0.1787988E+03  0.7818608E-02  0.1170609E+00
         21   -1    0    0  503  502  0.00000000000E+00  0.00000000000E+00  0.46616184396E+03  0.46616184396E+03  0.00000000000E+00 0. -1.
         21   -1    0    0  501  503 -0.00000000000E+00 -0.00000000000E+00 -0.12148841660E+03  0.12148841660E+03  0.00000000000E+00 0. -1.
          6    2    1    2  501    0 -0.50313164558E+02 -0.17606208939E+02 -0.24319859297E+02  0.18044523291E+03  0.17066819681E+03 0.  0.
         24    2    3    3    0    0 -0.28285907200E+02 -0.12888220927E+02  0.50938434654E+02  0.10174732769E+03  0.82411138698E+02 0.  0.
         -6    2    1    2    0  502  0.50313164558E+02  0.17606208939E+02  0.36899328666E+03  0.40720502765E+03  0.16376353632E+03 0.  0.
        -24    2    5    5    0    0  0.37699423938E+02  0.43209587537E+02  0.36456950322E+03  0.37794243536E+03  0.81493844847E+02 0.  0.
          5    1    3    3  501    0 -0.22027257358E+02 -0.47179880120E+01 -0.75258293951E+02  0.78697905220E+02  0.47000000000E+01 0. -1.
        -11    1    4    4    0    0 -0.12796390599E+02 -0.32586090218E+02 -0.95382222888E+01  0.36284687852E+02  0.00000000000E+00 0.  1.
         12    1    4    4    0    0 -0.15489516600E+02  0.19697869291E+02  0.60476656943E+02  0.65462639835E+02  0.00000000000E+00 0. -1.
         -5    1    5    5    0  502  0.12613740620E+02 -0.25603378598E+02  0.44237834428E+01  0.29262592299E+02  0.47000000000E+01 0.  1.
         11    1    6    6    0    0  0.57514866008E+02  0.22069311561E+02  0.31096226714E+03  0.31700559287E+03  0.00000000000E+00 0. -1.
        -12    1    6    6    0    0 -0.19815442071E+02  0.21140275977E+02  0.53607236078E+02  0.60936842491E+02  0.00000000000E+00 0.  1.
</event>
<event>
12    1  0.8728348E-002  0.1995681E+03  0.7818608E-02  0.1151709E+00
         21   -1    0    0  501  502  0.00000000000E+00  0.00000000000E+00  0.71469477121E+03  0.71469477121E+03  0.00000000000E+00 0.  1.
         21   -1    0    0  502  503 -0.00000000000E+00 -0.00000000000E+00 -0.12075033976E+03  0.12075033976E+03  0.00000000000E+00 0. -1.
         -6    2    1    2    0  503  0.43674747992E+02 -0.94161694275E+02 -0.11842491845E+02  0.19991915070E+03  0.17045091353E+03 0.  0.
        -24    2    3    3    0    0  0.60208740554E+01 -0.44757722765E+02 -0.70600879140E+02  0.11428501789E+03  0.77698626168E+02 0.  0.
          6    2    1    2  501    0 -0.43674747992E+02  0.94161694275E+02  0.60578692330E+03  0.63552596027E+03  0.16168346068E+03 0.  0.
         24    2    5    5    0    0  0.20168507977E+02  0.85007858920E+02  0.23939345108E+03  0.26346948537E+03  0.66886773784E+02 0.  0.
          5    1    5    5  501    0 -0.63843255969E+02  0.91538353552E+01  0.36639347222E+03  0.37205647491E+03  0.47000000000E+01 0. -1.
        -11    1    6    6    0    0  0.99181545015E+01 -0.43412471735E+01  0.41051389454E+01  0.11578790157E+02  0.00000000000E+00 0.  1.
         12    1    6    6    0    0  0.10250353475E+02  0.89349106094E+02  0.23528831214E+03  0.25189069521E+03  0.00000000000E+00 0. -1.
         -5    1    3    3    0  503  0.37653873936E+02 -0.49403971510E+02  0.58758387295E+02  0.85634132803E+02  0.47000000000E+01 0.  1.
         11    1    4    4    0    0  0.38072341041E+01 -0.65473256117E+02 -0.38599617394E+02  0.76099755329E+02  0.00000000000E+00 0. -1.
        -12    1    4    4    0    0  0.22136399513E+01  0.20715533352E+02 -0.32001261746E+02  0.38185262566E+02  0.00000000000E+00 0.  1.
</event>
<event>
12    1  0.8728348E-002  0.1837515E+03  0.7818608E-02  0.1164239E+00
         21   -1    0    0  501  502  0.00000000000E+00  0.00000000000E+00  0.13161619400E+03  0.13161619400E+03  0.00000000000E+00 0.  1.
         21   -1    0    0  502  503 -0.00000000000E+00 -0.00000000000E+00 -0.47324765795E+03  0.47324765795E+03  0.00000000000E+00 0.  1.
         -6    2    1    2    0  503  0.64471649504E+02  0.86460399028E+01 -0.37550097385E+03  0.41801700776E+03  0.17177278546E+03 0.  0.
        -24    2    3    3    0    0  0.46451187133E+02  0.29055861061E+02 -0.91016162969E+02  0.13219364363E+03  0.78671860578E+02 0.  0.
          6    2    1    2  501    0 -0.64471649504E+02 -0.86460399028E+01  0.33869509893E+02  0.18684684419E+03  0.17185241310E+03 0.  0.
         24    2    5    5    0    0 -0.32474964929E+02 -0.37027770928E+02 -0.42042259817E+02  0.99588622457E+02  0.75661502400E+02 0.  0.
          5    1    5    5  501    0 -0.31996684574E+02  0.28381731025E+02  0.75911769710E+02  0.87258221734E+02  0.47000000000E+01 0. -1.
        -13    1    6    6    0    0 -0.53314442283E+02 -0.38709605590E+02 -0.19206566048E+02  0.68627658420E+02  0.00000000000E+00 0.  1.
         14    1    6    6    0    0  0.20839477353E+02  0.16818346621E+01 -0.22835693769E+02  0.30960964037E+02  0.00000000000E+00 0. -1.
         -5    1    3    3    0  503  0.18020462370E+02 -0.20409821158E+02 -0.28448481088E+03  0.28582336413E+03  0.47000000000E+01 0.  1.
         11    1    4    4    0    0  0.45901355964E+02  0.29372414175E+02 -0.10494505062E+03  0.11825031435E+03  0.00000000000E+00 0. -1.
        -12    1    4    4    0    0  0.54983116967E+00 -0.31655311427E+00  0.13928887653E+02  0.13943329281E+02  0.00000000000E+00 0.  1.
</event>
<event>
12    1  0.8728348E-002  0.1847726E+03  0.7818608E-02  0.1163448E+00
         21   -1    0    0  503  502  0.00000000000E+00  0.00000000000E+00  0.55230344917E+03  0.55230344917E+03  0.00000000000E+00 0. -1.
         21   -1    0    0  501  503 -0.00000000000E+00 -0.00000000000E+00 -0.16245828746E+03  0.16245828746E+03  0.00000000000E+00 0. -1.
          6    2    1    2  501    0 -0.65946979375E+02 -0.18261745039E+02 -0.86576141455E+02  0.20404989442E+03  0.17163459943E+03 0.  0.
         24    2    3    3    0    0 -0.10145862380E+03 -0.20432724770E+02 -0.98447280354E+02  0.16625037086E+03  0.85064506204E+02 0.  0.
         -6    2    1    2    0  502  0.65946979375E+02  0.18261745039E+02  0.47642130316E+03  0.51071184221E+03  0.17078299754E+03 0.  0.
        -24    2    5    5    0    0  0.27419363966E+02  0.73302960243E+02  0.34674205078E+03  0.36458617363E+03  0.81042474801E+02 0.  0.
          5    1    3    3  501    0  0.35511644425E+02  0.21709797316E+01  0.11871138899E+02  0.37799523562E+02  0.47000000000E+01 0. -1.
        -13    1    4    4    0    0  0.83791069979E+01 -0.15713061662E+02  0.12323034108E+01  0.17850162816E+02  0.00000000000E+00 0.  1.
         14    1    4    4    0    0 -0.10983773080E+03 -0.47196631087E+01 -0.99679583765E+02  0.14840020804E+03  0.00000000000E+00 0. -1.
         -5    1    5    5    0  502  0.38527615409E+02 -0.55041215204E+02  0.12967925238E+03  0.14612566858E+03  0.47000000000E+01 0.  1.
         11    1    6    6    0    0  0.12205552505E+02  0.85057809442E+02  0.21644253470E+03  0.23287588387E+03  0.00000000000E+00 0. -1.
        -12    1    6    6    0    0  0.15213811461E+02 -0.11754849199E+02  0.13029951608E+03  0.13171028976E+03  0.00000000000E+00 0.  1.
</event>
<event>
12    1  0.8728348E-002  0.1945595E+03  0.7818608E-02  0.1154450E+00
         21   -1    0    0  501  502  0.00000000000E+00  0.00000000000E+00  0.57969541960E+03  0.57969541960E+03  0.00000000000E+00 0. -1.
         21   -1    0    0  502  503 -0.00000000000E+00 -0.00000000000E+00 -0.78124556154E+02  0.78124556154E+02  0.00000000000E+00 0.  1.
         -6    2    1    2    0  503  0.90261307192E+02  0.11912214421E+01  0.11711839084E+03  0.22694054513E+03  0.17215333563E+03 0.  0.
        -24    2    3    3    0    0  0.12003285534E+01  0.95873235975E+01  0.39782526450E+00  0.79807500319E+02  0.79219450136E+02 0.  0.
          6    2    1    2  501    0 -0.90261307192E+02 -0.11912214421E+01  0.38445247261E+03  0.43087943062E+03  0.17235097173E+03 0.  0.
         24    2    5    5    0    0 -0.10407741298E+02  0.32508525857E+02  0.93197821100E+02  0.12696558267E+03  0.79178911286E+02 0.  0.
          5    1    5    5  501    0 -0.79853565894E+02 -0.33699747299E+02  0.29125465151E+03  0.30391384796E+03  0.47000000000E+01 0. -1.
        -13    1    6    6    0    0  0.20526112091E+02  0.16789475430E+02 -0.10443290700E+01  0.26538620650E+02  0.00000000000E+00 0.  1.
         14    1    6    6    0    0 -0.30933853389E+02  0.15719050427E+02  0.94242150170E+02  0.10042696202E+03  0.00000000000E+00 0. -1.
         -5    1    3    3    0  503  0.89060978638E+02 -0.83961021554E+01  0.11672056557E+03  0.14713304481E+03  0.47000000000E+01 0.  1.
         11    1    4    4    0    0 -0.33566269156E+02  0.24770863989E+02  0.26687561370E+01  0.41802061996E+02  0.00000000000E+00 0. -1.
        -12    1    4    4    0    0  0.34766597709E+02 -0.15183540391E+02 -0.22709308725E+01  0.38005438323E+02  0.00000000000E+00 0.  1.
</event>
<event>
12    1  0.8728348E-002  0.1979380E+03  0.7818608E-02  0.1152008E+00
         21   -1    0    0  501  502  0.00000000000E+00  0.00000000000E+00  0.78833712544E+02  0.78833712544E+02  0.00000000000E+00 0. -1.
         21   -1    0    0  502  503 -0.00000000000E+00 -0.00000000000E+00 -0.71977388377E+03  0.71977388377E+03  0.00000000000E+00 0.  1.
         -6    2    1    2    0  503  0.77114840534E+02 -0.50749951872E+02 -0.54426371102E+03  0.57832186803E+03  0.17236861565E+03 0.  0.
        -24    2    3    3    0    0  0.41322882227E+02  0.17307108630E+02 -0.43723451049E+03  0.44645008360E+03  0.78336092412E+02 0.  0.
          6    2    1    2  501    0 -0.77114840534E+02  0.50749951872E+02 -0.96676460208E+02  0.22028572829E+03  0.17509199834E+03 0.  0.
         24    2    5    5    0    0 -0.99120475786E+02 -0.15544563541E+02 -0.65090760170E+02  0.14348105914E+03  0.79268563097E+02 0.  0.
          5    1    5    5  501    0  0.22005635252E+02  0.66294515413E+02 -0.31585700039E+02  0.76804669152E+02  0.47000000000E+01 0. -1.
        -13    1    6    6    0    0 -0.44083500030E+02 -0.45792170889E+02 -0.43703431338E+02  0.77137978975E+02  0.00000000000E+00 0.  1.
         14    1    6    6    0    0 -0.55036975756E+02  0.30247607348E+02 -0.21387328832E+02  0.66343080160E+02  0.00000000000E+00 0. -1.
         -5    1    3    3    0  503  0.35791958307E+02 -0.68057060501E+02 -0.10702920053E+03  0.13187178444E+03  0.47000000000E+01 0.  1.
         13    1    4    4    0    0 -0.23098611994E+02 -0.11249742453E+01 -0.10282658964E+03  0.10539506146E+03  0.00000000000E+00 0. -1.
        -14    1    4    4    0    0  0.64421494221E+02  0.18432082875E+02 -0.33440792085E+03  0.34105502214E+03  0.00000000000E+00 0.  1.
</event>
<event>
12    1  0.8728348E-002  0.2371476E+03  0.7818608E-02  0.1121724E+00
         21   -1    0    0  501  502  0.00000000000E+00  0.00000000000E+00  0.66155823347E+03  0.66155823347E+03  0.00000000000E+00 0.  1.
         21   -1    0    0  502  503 -0.00000000000E+00 -0.00000000000E+00 -0.21273105471E+03  0.21273105471E+03  0.00000000000E+00 0. -1.
         -6    2    1    2    0  503  0.16498624879E+03 -0.73300486779E+01 -0.11437239926E+03  0.26319784540E+03  0.17005254544E+03 0.  0.
        -24    2    3    3    0    0  0.12973434299E+03 -0.52327059426E+02 -0.33856991029E+02  0.16434316013E+03  0.79330054458E+02 0.  0.
          6    2    1    2  501    0 -0.16498624879E+03  0.73300486779E+01  0.56319957802E+03  0.61109144278E+03  0.17019046639E+03 0.  0.
         24    2    5    5    0    0 -0.38712662181E+02 -0.38903681673E+02  0.30459446411E+03  0.31957596902E+03  0.79616868508E+02 0.  0.
          5    1    5    5  501    0 -0.12627358661E+03  0.46233730351E+02  0.25860511391E+03  0.29151547375E+03  0.47000000000E+01 0. -1.
        -11    1    6    6    0    0  0.10762655568E+01  0.18779011850E+02  0.13144674410E+03  0.13278575288E+03  0.00000000000E+00 0.  1.
         12    1    6    6    0    0 -0.39788927738E+02 -0.57682693523E+02  0.17314772001E+03  0.18679021615E+03  0.00000000000E+00 0. -1.
         -5    1    3    3    0  503  0.35251905798E+02  0.44997010748E+02 -0.80515408226E+02  0.98854685273E+02  0.47000000000E+01 0.  1.
         11    1    4    4    0    0  0.30229119063E+02 -0.45816388786E+02 -0.34109085730E+02  0.64624847002E+02  0.00000000000E+00 0. -1.
        -12    1    4    4    0    0  0.99505223929E+02 -0.65106706404E+01  0.25209470110E+00  0.99718313128E+02  0.00000000000E+00 0.  1.
</event>
<event>
12    1  0.8728348E-002  0.1831173E+03  0.7818608E-02  0.1164845E+00
         21   -1    0    0  503  502  0.00000000000E+00  0.00000000000E+00  0.32187295563E+04  0.32187295563E+04  0.00000000000E+00 0.  1.
         21   -1    0    0  501  503 -0.00000000000E+00 -0.00000000000E+00 -0.13609045214E+02  0.13609045214E+02  0.00000000000E+00 0.  1.
          6    2    1    2  501    0  0.62324196263E+02  0.20104173400E+02  0.81953749681E+03  0.83974618657E+03  0.17100721027E+03 0.  0.
         24    2    3    3    0    0 -0.18460134883E+02 -0.10731646573E+02  0.56894319220E+03  0.57461121820E+03  0.77625712972E+02 0.  0.
         -6    2    1    2    0  502 -0.62324196263E+02 -0.20104173400E+02  0.23855830143E+04  0.23925924150E+04  0.17089079198E+03 0.  0.
        -24    2    5    5    0    0 -0.59660573418E+02 -0.16636115794E+01  0.70470775468E+03  0.71160732354E+03  0.78802358932E+02 0.  0.
          5    1    3    3  501    0  0.80784331146E+02  0.30835819973E+02  0.25059430461E+03  0.26513496838E+03  0.47000000000E+01 0. -1.
        -13    1    4    4    0    0  0.39868026002E+01 -0.63204409015E+01  0.27601917214E+01  0.79662554880E+01  0.00000000000E+00 0.  1.
         14    1    4    4    0    0 -0.22446937483E+02 -0.44112056716E+01  0.56618300048E+03  0.56664496271E+03  0.00000000000E+00 0. -1.
         -5    1    5    5    0  502 -0.26636228448E+01 -0.18440561821E+02  0.16808752596E+04  0.16809850914E+04  0.47000000000E+01 0.  1.
         11    1    6    6    0    0  0.18620950493E+02  0.57708519721E+01  0.17756540269E+03  0.17863234523E+03  0.00000000000E+00 0. -1.
        -12    1    6    6    0    0 -0.78281523911E+02 -0.74344635515E+01  0.52714235199E+03  0.53297497831E+03  0.00000000000E+00 0.  1.
</event>
<event>
12    1  0.8728348E-002  0.2517526E+03  0.7818608E-02  0.1112689E+00
         21   -1    0    0  503  502  0.00000000000E+00  0.00000000000E+00  0.78618093736E+03  0.78618093736E+03  0.00000000000E+00 0.  1.
         21   -1    0    0  501  503 -0.00000000000E+00 -0.00000000000E+00 -0.79650796963E+02  0.79650796963E+02  0.00000000000E+00 0.  1.
          6    2    1    2  501    0  0.10163144769E+03  0.15377142237E+03  0.34849671273E+03  0.42991779650E+03  0.17147813700E+03 0.  0.
         24    2    3    3    0    0  0.19685240833E+02  0.13485025036E+03  0.16474437291E+03  0.22777872567E+03  0.78551516424E+02 0.  0.
         -6    2    1    2    0  502 -0.10163144769E+03 -0.15377142237E+03  0.35803342766E+03  0.43591393782E+03  0.16690843107E+03 0.  0.
        -24    2    5    5    0    0 -0.30390742328E+02 -0.24914489063E+02  0.72254543866E+02  0.11440031791E+03  0.79513424303E+02 0.  0.
          5    1    3    3  501    0  0.81946206857E+02  0.18921172008E+02  0.18375233982E+03  0.20213907084E+03  0.47000000000E+01 0. -1.
        -13    1    4    4    0    0  0.36975565622E+02  0.13203852002E+03  0.13039290856E+03  0.18921858742E+03  0.00000000000E+00 0.  1.
         14    1    4    4    0    0 -0.17290324788E+02  0.28117303400E+01  0.34351464348E+02  0.38560138248E+02  0.00000000000E+00 0. -1.
         -5    1    5    5    0  502 -0.71240705363E+02 -0.12885693330E+03  0.28577888380E+03  0.32151361991E+03  0.47000000000E+01 0.  1.
         11    1    6    6    0    0 -0.40136737946E+01 -0.38480934410E+02  0.26982310197E+01  0.38783660748E+02  0.00000000000E+00 0. -1.
        -12    1    6    6    0    0 -0.26377068533E+02  0.13566445347E+02  0.69556312846E+02  0.75616657163E+02  0.00000000000E+00 0.  1.
</event>
<event>
12    1  0.8728348E-002  0.1890876E+03  0.7818608E-02  0.1159546E+00
         21   -1    0    0  501  502  0.00000000000E+00  0.00000000000E+00  0.29885167574E+03  0.29885167574E+03  0.00000000000E+00 0. -1.
         21   -1    0    0  502  503 -0.00000000000E+00 -0.00000000000E+00 -0.14179957490E+03  0.14179957490E+03  0.00000000000E+00 0. -1.
         -6    2    1    2    0  503 -0.16780804014E+02 -0.76947567806E+02  0.16683186758E+03  0.25131092482E+03  0.17065106304E+03 0.  0.
        -24    2    3    3    0    0  0.47058975001E+01 -0.10641341770E+03  0.16823468846E+03  0.21451455871E+03  0.79797396957E+02 0.  0.
          6    2    1    2  501    0  0.16780804014E+02  0.76947567806E+02 -0.97797667425E+01  0.18934032581E+03  0.17190576362E+03 0.  0.
         24    2    5    5    0    0 -0.40736652356E+02  0.86685932420E+02  0.15155417937E+02  0.12572470692E+03  0.80019307116E+02 0.  0.
          5    1    5    5  501    0  0.57517456370E+02 -0.97383646145E+01 -0.24935184680E+02  0.63615618897E+02  0.47000000000E+01 0. -1.
        -11    1    6    6    0    0 -0.20006560973E+02  0.27391786046E+02  0.44860954878E+02  0.56241245517E+02  0.00000000000E+00 0.  1.
         12    1    6    6    0    0 -0.20730091383E+02  0.59294146374E+02 -0.29705536940E+02  0.69483461399E+02  0.00000000000E+00 0. -1.
         -5    1    3    3    0  503 -0.21486701514E+02  0.29465849899E+02 -0.14028208724E+01  0.36796366106E+02  0.47000000000E+01 0.  1.
         11    1    4    4    0    0  0.27287617579E+02 -0.27936367006E+02  0.10248638324E+03  0.10967457967E+03  0.00000000000E+00 0. -1.
        -12    1    4    4    0    0 -0.22581720079E+02 -0.78477050699E+02  0.65748305211E+02  0.10483997905E+03  0.00000000000E+00 0.  1.
</event>
<event>
12    1  0.8728348E-002  0.1909064E+03  0.7818608E-02  0.1157968E+00
         21   -1    0    0  501  502  0.00000000000E+00  0.00000000000E+00  0.91431784752E+02  0.91431784752E+02  0.00000000000E+00 0.  1.
         21   -1    0    0  502  503 -0.00000000000E+00 -0.00000000000E+00 -0.80258402534E+03  0.80258402534E+03  0.00000000000E+00 0. -1.
         -6    2    1    2    0  503  0.61422538131E+02 -0.62657501442E+02 -0.67322147258E+03  0.69937771628E+03  0.16793852509E+03 0.  0.
        -24    2    3    3    0    0 -0.24094813899E+02 -0.60263266048E+02 -0.34169435803E+03  0.35695799205E+03  0.80322801779E+02 0.  0.
          6    2    1    2  501    0 -0.61422538131E+02  0.62657501442E+02 -0.37930768007E+02  0.19463809381E+03  0.16954808676E+03 0.  0.
         24    2    5    5    0    0 -0.94215853914E+01  0.81649068286E+02 -0.66233495276E+02  0.13228496183E+03  0.79731415432E+02 0.  0.
          5    1    5    5  501    0 -0.52000952740E+02 -0.18991566843E+02  0.28302727269E+02  0.62353131981E+02  0.47000000000E+01 0. -1.
        -13    1    6    6    0    0  0.31467829968E+02  0.37893045119E+02 -0.10261601522E+02  0.50313096278E+02  0.00000000000E+00 0.  1.
         14    1    6    6    0    0 -0.40889415359E+02  0.43756023166E+02 -0.55971893753E+02  0.81971865552E+02  0.00000000000E+00 0. -1.
         -5    1    3    3    0  503  0.85517352030E+02 -0.23942353944E+01 -0.33152711455E+03  0.34241972423E+03  0.47000000000E+01 0.  1.
         11    1    4    4    0    0 -0.48862535775E+02 -0.19980563287E+02 -0.13572047752E+03  0.14562561015E+03  0.00000000000E+00 0. -1.
        -12    1    4    4    0    0  0.24767721876E+02 -0.40282702761E+02 -0.20597388051E+03  0.21133238190E+03  0.00000000000E+00 0.  1.
</event>
<event>
12    1  0.8728348E-002  0.1829375E+03  0.7818608E-02  0.1165781E+00
         21   -1    0    0  503  502  0.00000000000E+00  0.00000000000E+00  0.36647650795E+02  0.36647650795E+02  0.00000000000E+00 0. -1.
         21   -1    0    0  501  503 -0.00000000000E+00 -0.00000000000E+00 -0.11381997367E+04  0.11381997367E+04  0.00000000000E+00 0.  1.
          6    2    1    2  501    0  0.43509748663E+02 -0.33444328730E+02 -0.81736253857E+03  0.83686835335E+03  0.17104239249E+03 0.  0.
         24    2    3    3    0    0  0.91571835958E+02 -0.39879123939E+02 -0.52550192452E+03  0.54096958880E+03  0.80746997921E+02 0.  0.
         -6    2    1    2    0  502 -0.43509748663E+02  0.33444328730E+02 -0.28418954734E+03  0.33797903415E+03  0.17451219830E+03 0.  0.
        -24    2    5    5    0    0 -0.95919652625E+02  0.29156629859E+02 -0.22177863177E+03  0.25623311818E+03  0.80118415605E+02 0.  0.
          5    1    3    3  501    0 -0.48062087295E+02  0.64347952090E+01 -0.29186061405E+03  0.29589876454E+03  0.47000000000E+01 0. -1.
        -13    1    4    4    0    0  0.54999764408E+02 -0.26184128595E+02 -0.46490677758E+03  0.46888046932E+03  0.00000000000E+00 0.  1.
         14    1    4    4    0    0  0.36572071550E+02 -0.13694995344E+02 -0.60595146938E+02  0.72089119480E+02  0.00000000000E+00 0. -1.
         -5    1    5    5    0  502  0.52409903962E+02  0.42876988716E+01 -0.62410915566E+02  0.81745915963E+02  0.47000000000E+01 0.  1.
         13    1    6    6    0    0 -0.48009163704E+02  0.16699757494E+02 -0.31908955135E+02  0.60016190463E+02  0.00000000000E+00 0. -1.
        -14    1    6    6    0    0 -0.47910488921E+02  0.12456872365E+02 -0.18986967664E+03  0.19621692772E+03  0.00000000000E+00 0.  1.
</event>
<event>
12    1  0.8728348E-002  0.1919081E+03  0.7818608E-02  0.1158221E+00
         21   -1    0    0  503  502  0.00000000000E+00  0.00000000000E+00  0.17243549207E+04  0.17243549207E+04  0.00000000000E+00 0.  1.
         21   -1    0    0  501  503 -0.00000000000E+00 -0.00000000000E+00 -0.11677444121E+03  0.11677444121E+03  0.00000000000E+00 0.  1.
          6    2    1    2  501    0  0.74826854523E+02  0.43384159184E+02 -0.33872485515E+02  0.18849614517E+03  0.16401892587E+03 0.  0.
         24    2    3    3    0    0  0.88364559755E+02  0.43638670256E+02 -0.71809862711E+02  0.14794162844E+03  0.83770162239E+02 0.  0.
         -6    2    1    2    0  502 -0.74826854523E+02 -0.43384159184E+02  0.16414529650E+04  0.16526332167E+04  0.17131103099E+03 0.  0.
        -24    2    5    5    0    0 -0.11447381649E+03 -0.96482277340E+01  0.12074778157E+04  0.12155216579E+04  0.79327690305E+02 0.  0.
          5    1    3    3  501    0 -0.13537705232E+02 -0.25451107264E+00  0.37937377195E+02  0.40554516731E+02  0.47000000000E+01 0. -1.
        -11    1    4    4    0    0  0.42539921563E+02  0.65851862804E+02 -0.44890897799E+02  0.90339943915E+02  0.00000000000E+00 0.  1.
         12    1    4    4    0    0  0.45824638192E+02 -0.22213192548E+02 -0.26918964911E+02  0.57601684528E+02  0.00000000000E+00 0. -1.
         -5    1    5    5    0  502  0.39646961967E+02 -0.33735931450E+02  0.43397514930E+03  0.43711155884E+03  0.47000000000E+01 0.  1.
         11    1    6    6    0    0 -0.85625293275E+02 -0.41430369488E+01  0.48995150035E+03  0.49739453988E+03  0.00000000000E+00 0. -1.
        -12    1    6    6    0    0 -0.28848523215E+02 -0.55051907852E+01  0.71752631533E+03  0.71812711800E+03  0.00000000000E+00 0.  1.
</event>
<event>
12    1  0.8728348E-002  0.2069273E+03  0.7818608E-02  0.1148051E+00
         21   -1    0    0  501  502  0.00000000000E+00  0.00000000000E+00  0.10694769807E+03  0.10694769807E+03  0.00000000000E+00 0. -1.
         21   -1    0    0  502  503 -0.00000000000E+00 -0.00000000000E+00 -0.40657330581E+03  0.40657330581E+03  0.00000000000E+00 0. -1.
         -6    2    1    2    0  503 -0.63306555147E+02 -0.34707341296E+02 -0.23875379715E+03  0.31594664891E+03  0.19392418580E+03 0.  0.
        -24    2    3    3    0    0 -0.11547223418E+03 -0.88722483793E+01 -0.20744655997E+03  0.24968245651E+03  0.76776950881E+02 0.  0.
          6    2    1    2  501    0  0.63306555147E+02  0.34707341296E+02 -0.60871810589E+02  0.19757435498E+03  0.17354517843E+03 0.  0.
         24    2    5    5    0    0  0.52242222351E+02 -0.23129130209E+02  0.18637519382E+02  0.98522346169E+02  0.78071051649E+02 0.  0.
          5    1    5    5  501    0  0.11064332796E+02  0.57836471506E+02 -0.79509329971E+02  0.99052008807E+02  0.47000000000E+01 0. -1.
        -11    1    6    6    0    0  0.88424460252E+01 -0.44298116966E+02  0.21748481862E+02  0.50134902829E+02  0.00000000000E+00 0.  1.
         12    1    6    6    0    0  0.43399776326E+02  0.21168986756E+02 -0.31109624803E+01  0.48387443340E+02  0.00000000000E+00 0. -1.
         -5    1    3    3    0  503  0.52165679030E+02 -0.25835092917E+02 -0.31307237178E+02  0.66264192400E+02  0.47000000000E+01 0.  1.
         13    1    4    4    0    0 -0.29202925498E+02 -0.26490249549E+02 -0.11695784952E+03  0.12342480603E+03  0.00000000000E+00 0. -1.
        -14    1    4    4    0    0 -0.86269308679E+02  0.17618001170E+02 -0.90488710448E+02  0.12625765048E+03  0.00000000000E+00 0.  1.
</event>
<event>
12    1  0.8728348E-002  0.2440640E+03  0.7818608E-02  0.1117383E+00
         21   -1    0    0  501  502  0.00000000000E+00  0.00000000000E+00  0.30961479138E+03  0.30961479138E+03  0.00000000000E+00 0. -1.
         21   -1    0    0  502  503 -0.00000000000E+00 -0.00000000000E+00 -0.48999527021E+03  0.48999527021E+03  0.00000000000E+00 0. -1.
         -6    2    1    2    0  503 -0.16948440535E+03  0.22595000097E+02 -0.40232807041E+03  0.46971924203E+03  0.17185107625E+03 0.  0.
        -24    2    3    3    0    0 -0.15390829482E+03  0.20652387502E+02 -0.41423677731E+03  0.44946347092E+03  0.79441926536E+02 0.  0.
          6    2    1    2  501    0  0.16948440535E+03 -0.22595000097E+02  0.22194759158E+03  0.32989081957E+03  0.17416004634E+03 0.  0.
         24    2    5    5    0    0  0.71100714014E+02  0.10951741173E+02  0.29583573209E+02  0.11118841872E+03  0.79450767691E+02 0.  0.
          5    1    5    5  501    0  0.98383691335E+02 -0.33546741270E+02  0.19236401837E+03  0.21870240084E+03  0.47000000000E+01 0. -1.
        -11    1    6    6    0    0 -0.57149557084E+01  0.23179769278E+02  0.22961974620E+02  0.33124231327E+02  0.00000000000E+00 0.  1.
         12    1    6    6    0    0  0.76815669722E+02 -0.12228028105E+02  0.66215985890E+01  0.78064187398E+02  0.00000000000E+00 0. -1.
         -5    1    3    3    0  503 -0.15576110533E+02  0.19426125943E+01  0.11908706905E+02  0.20255771108E+02  0.47000000000E+01 0.  1.
         13    1    4    4    0    0 -0.15514232566E+03  0.30763879619E+02 -0.40784104190E+03  0.43743556435E+03  0.00000000000E+00 0. -1.
        -14    1    4    4    0    0  0.12340308487E+01 -0.10111492116E+02 -0.63957354099E+01  0.12027906567E+02  0.00000000000E+00 0.  1.
</event>
<event>
12    1  0.8728348E-002  0.2037832E+03  0.7818608E-02  0.1146784E+00
         21   -1    0    0  501  502  0.00000000000E+00  0.00000000000E+00  0.11362544095E+04  0.11362544095E+04  0.00000000000E+00 0.  1.
         21   -1    0    0  502  503 -0.00000000000E+00 -0.00000000000E+00 -0.75393044255E+02  0.75393044255E+02  0.00000000000E+00 0.  1.
         -6    2    1    2    0  503  0.10573977783E+03 -0.25693224644E+02  0.94002350928E+02  0.22354626161E+03  0.17115912682E+03 0.  0.
        -24    2    3    3    0    0  0.14222759441E+03 -0.28073799437E+02  0.73535146492E+02  0.18137963556E+03  0.80463206516E+02 0.  0.
          6    2    1    2  501    0 -0.10573977783E+03  0.25693224644E+02  0.96685901431E+03  0.98810119213E+03  0.17229791041E+03 0.  0.
         24    2    5    5    0    0 -0.36592782187E+01  0.41031798328E+02  0.29850113534E+03  0.31180240858E+03  0.80129990705E+02 0.  0.
          5    1    5    5  501    0 -0.10208049961E+03 -0.15338573684E+02  0.66835787897E+03  0.67629878354E+03  0.47000000000E+01 0. -1.
        -13    1    6    6    0    0 -0.33279677234E+02  0.38892348111E+02  0.24790625920E+03  0.25313566522E+03  0.00000000000E+00 0.  1.
         14    1    6    6    0    0  0.29620399016E+02  0.21394502169E+01  0.50594876137E+02  0.58666743360E+02  0.00000000000E+00 0. -1.
         -5    1    3    3    0  503 -0.36487816578E+02  0.23805747933E+01  0.20467204436E+02  0.42166626050E+02  0.47000000000E+01 0.  1.
         13    1    4    4    0    0  0.67663388321E+02  0.19000368954E+02  0.64389087434E+01  0.70574837480E+02  0.00000000000E+00 0. -1.
        -14    1    4    4    0    0  0.74564206084E+02 -0.47074168391E+02  0.67096237748E+02  0.11080479809E+03  0.00000000000E+00 0.  1.
</event>
<event>
12    1  0.8728348E-002  0.2263227E+03  0.7818608E-02  0.1130408E+00
         21   -1    0    0  503  502  0.00000000000E+00  0.00000000000E+00  0.42963103173E+03  0.42963103173E+03  0.00000000000E+00 0. -1.
         21   -1    0    0  501  503 -0.00000000000E+00 -0.00000000000E+00 -0.12109460007E+03  0.12109460007E+03  0.00000000000E+00 0.  1.
          6    2    1    2  501    0 -0.77328646013E+02  0.12629826571E+03  0.99426804232E+02  0.24719964887E+03  0.17114615270E+03 0.  0.
         24    2    3    3    0    0 -0.11128097277E+03  0.75551361613E+02  0.34251411534E+02  0.15776849892E+03  0.75008512283E+02 0.  0.
         -6    2    1    2    0  502  0.77328646013E+02 -0.12629826571E+03  0.20910962743E+03  0.30352598293E+03  0.16269669516E+03 0.  0.
        -24    2    5    5    0    0  0.70119567459E+02 -0.70720412533E+02  0.20739318241E+03  0.24725960966E+03  0.90593884855E+02 0.  0.
          5    1    3    3  501    0  0.33952326762E+02  0.50746904097E+02  0.65175392698E+02  0.89431149950E+02  0.47000000000E+01 0. -1.
        -13    1    4    4    0    0 -0.20646685804E+02  0.13596886217E+02 -0.23161705645E+02  0.33876622587E+02  0.00000000000E+00 0.  1.
         14    1    4    4    0    0 -0.90634286970E+02  0.61954475396E+02  0.57413117179E+02  0.12389187633E+03  0.00000000000E+00 0. -1.
         -5    1    5    5    0  502  0.72090785532E+01 -0.55577853178E+02  0.17164450214E+01  0.56266373270E+02  0.47000000000E+01 0.  1.
         11    1    6    6    0    0 -0.11828589408E+02 -0.30106029049E+02  0.10546063234E+03  0.11030971619E+03  0.00000000000E+00 0. -1.
        -12    1    6    6    0    0  0.81948156867E+02 -0.40614383484E+02  0.10193255007E+03  0.13694989348E+03  0.00000000000E+00 0.  1.
</event>
<event>
12    1  0.8728348E-002  0.1768512E+03  0.7818608E-02  0.1171991E+00
         21   -1    0    0  501  502  0.00000000000E+00  0.00000000000E+00  0.92727800479E+03  0.92727800479E+03  0.00000000000E+00 0. -1.
         21   -1    0    0  502  503 -0.00000000000E+00 -0.00000000000E+00 -0.58589747480E+02  0.58589747480E+02  0.00000000000E+00 0. -1.
         -6    2    1    2    0  503  0.17251292276E+02 -0.18603024183E+02  0.10483990152E+03  0.20181375599E+03  0.17056877663E+03 0.  0.
        -24    2    3    3    0    0  0.42449478482E+02 -0.64427747480E+02  0.96617038677E+02  0.14866717259E+03  0.82548065846E+02 0.  0.
          6    2    1    2  501    0 -0.17251292276E+02  0.18603024183E+02  0.76384835579E+03  0.78405399628E+03  0.17502193820E+03 0.  0.
         24    2    5    5    0    0  0.14636644105E+02 -0.12395994292E+02  0.70649254993E+03  0.71132464802E+03  0.80517946744E+02 0.  0.
          5    1    5    5  501    0 -0.31887936380E+02  0.30999018475E+02  0.57355805861E+02  0.72729348264E+02  0.47000000000E+01 0. -1.
        -13    1    6    6    0    0 -0.57020811038E+01 -0.14527527268E+02  0.24647329767E+02  0.29172823691E+02  0.00000000000E+00 0.  1.
         14    1    6    6    0    0  0.20338725208E+02  0.21315329759E+01  0.68184522016E+03  0.68215182433E+03  0.00000000000E+00 0. -1.
         -5    1    3    3    0  503 -0.25198186207E+02  0.45824723296E+02  0.82228628425E+01  0.53146583396E+02  0.47000000000E+01 0.  1.
         13    1    4    4    0    0  0.41144291010E+02 -0.69715667003E+01  0.71608704768E+01  0.42340683638E+02  0.00000000000E+00 0. -1.
        -14    1    4    4    0    0  0.13051874727E+01 -0.57456180779E+02  0.89456168200E+02  0.10632648895E+03  0.00000000000E+00 0.  1.
</event>
<event>
12    1  0.8728348E-002  0.2043414E+03  0.7818608E-02  0.1148926E+00
         21   -1    0    0  501  502  0.00000000000E+00  0.00000000000E+00  0.14713327826E+04  0.14713327826E+04  0.00000000000E+00 0. -1.
         21   -1    0    0  502  503 -0.00000000000E+00 -0.00000000000E+00 -0.37025412044E+02  0.37025412044E+02  0.00000000000E+00 0. -1.
         -6    2    1    2    0  503  0.19268218298E+02  0.81215554910E+02  0.29960119607E+03  0.35539960804E+03  0.17199062215E+03 0.  0.
        -24    2    3    3    0    0 -0.37073112557E+02  0.86724501449E+02  0.25408940702E+03  0.28261151150E+03  0.80076743480E+02 0.  0.
          6    2    1    2  501    0 -0.19268218298E+02 -0.81215554910E+02  0.11347061745E+04  0.11529585866E+04  0.18651586911E+03 0.  0.
         24    2    5    5    0    0 -0.85287105219E+02 -0.58773836319E+02  0.63240620997E+03  0.64582007642E+03  0.80110564533E+02 0.  0.
          5    1    5    5  501    0  0.66018886921E+02 -0.22441718592E+02  0.50229996454E+03  0.50713851021E+03  0.47000000000E+01 0. -1.
        -11    1    6    6    0    0 -0.50664771108E+02  0.36447239734E+01  0.38456733722E+03  0.38790751463E+03  0.00000000000E+00 0.  1.
         12    1    6    6    0    0 -0.34622334110E+02 -0.62418560292E+02  0.24783887275E+03  0.25791256180E+03  0.00000000000E+00 0. -1.
         -5    1    3    3    0  503  0.56341330855E+02 -0.55089465384E+01  0.45511789054E+02  0.72788096536E+02  0.47000000000E+01 0.  1.
         11    1    4    4    0    0 -0.54533692418E+02  0.33993316794E+02  0.10052229074E+03  0.11930716714E+03  0.00000000000E+00 0. -1.
        -12    1    4    4    0    0  0.17460579861E+02  0.52731184655E+02  0.15356711628E+03  0.16330434436E+03  0.00000000000E+00 0.  1.
</event>
<event>
12    1  0.8728348E-002  0.1867898E+03  0.7818608E-02  0.1161431E+00
         21   -1    0    0  501  502  0.00000000000E+00  0.00000000000E+00  0.24638877752E+03  0.24638877752E+03  0.00000000000E+00 0.  1.
         21   -1    0    0  502  503 -0.00000000000E+00 -0.00000000000E+00 -0.26465074515E+03  0.26465074515E+03  0.00000000000E+00 0.  1.
         -6    2    1    2    0  503  0.47441463346E+02 -0.56858558585E+02 -0.18345865270E+03  0.26181577383E+03  0.17148420933E+03 0.  0.
        -24    2    3    3    0    0 -0.25363202104E+02  0.65152850451E+01 -0.11071132777E+03  0.14085699303E+03  0.83053918814E+02 0.  0.
          6    2    1    2  501    0 -0.47441463346E+02  0.56858558585E+02  0.16519668507E+03  0.24922374883E+03  0.17128614683E+03 0.  0.
         24    2    5    5    0    0 -0.15498281968E+02 -0.16074536179E+02  0.14607015874E+03  0.16720230555E+03  0.78240221430E+02 0.  0.
          5    1    5    5  501    0 -0.31943181379E+02  0.72933094764E+02  0.19126526326E+02  0.82021443280E+02  0.47000000000E+01 0. -1.
        -11    1    6    6    0    0 -0.32693163366E+02 -0.15473780528E+02  0.14556289453E+03  0.14998945655E+03  0.00000000000E+00 0.  1.
         12    1    6    6    0    0  0.17194881398E+02 -0.60075565115E+00  0.50726421719E+00  0.17212848998E+02  0.00000000000E+00 0. -1.
         -5    1    3    3    0  503  0.72804665450E+02 -0.63373843630E+02 -0.72747324935E+02  0.12095878080E+03  0.47000000000E+01 0.  1.
         13    1    4    4    0    0  0.15244640709E+02 -0.24049351575E+01  0.63070477178E+01  0.16672181452E+02  0.00000000000E+00 0. -1.
        -14    1    4    4    0    0 -0.40607842813E+02  0.89202202027E+01 -0.11701837548E+03  0.12418481158E+03  0.00000000000E+00 0.  1.
</event>
<event>
12    1  0.8728348E-002  0.1842780E+03  0.7818608E-02  0.1163868E+00
         21   -1    0    0  501  502  0.00000000000E+00  0.00000000000E+00  0.79091972954E+02  0.79091972954E+02  0.00000000000E+00 0.  1.
         21   -1    0    0  502  503 -0.00000000000E+00 -0.00000000000E+00 -0.43977609146E+03  0.43977609146E+03  0.00000000000E+00 0.  1.
         -6    2    1    2    0  503  0.67031099197E+02 -0.72195874672E+01 -0.22259971201E+03  0.28859498196E+03  0.17085415161E+03 0.  0.
        -24    2    3    3    0    0 -0.30147135318E+02  0.23782785557E+02 -0.10346276895E+03  0.13168590766E+03  0.71848194546E+02 0.  0.
          6    2    1    2  501    0 -0.67031099197E+02  0.72195874672E+01 -0.13808440649E+03  0.23027308245E+03  0.17150247370E+03 0.  0.
         24    2    5    5    0    0 -0.61115596667E+02  0.69035585792E+02 -0.96912414777E+02  0.15561764916E+03  0.79522376281E+02 0.  0.
          5    1    5    5  501    0 -0.59155025295E+01 -0.61815998325E+02 -0.41171991715E+02  0.74655433297E+02  0.47000000000E+01 0. -1.
        -11    1    6    6    0    0 -0.27030231494E+02  0.40904438847E+02  0.82588643910E-01  0.49028699278E+02  0.00000000000E+00 0.  1.
         12    1    6    6    0    0 -0.34085365174E+02  0.28131146945E+02 -0.96995003421E+02  0.10658894988E+03  0.00000000000E+00 0. -1.
         -5    1    3    3    0  503  0.97178234514E+02 -0.31002373025E+02 -0.11913694306E+03  0.15690907430E+03  0.47000000000E+01 0.  1.
         11    1    4    4    0    0 -0.28552349024E+02  0.44947947779E+02 -0.45785732802E+02  0.70227401864E+02  0.00000000000E+00 0. -1.
        -12    1    4    4    0    0 -0.15947862931E+01 -0.21165162222E+02 -0.57677036151E+02  0.61458505793E+02  0.00000000000E+00 0.  1.
</event>
<event>
12    1  0.8728348E-002  0.2769113E+03  0.7818608E-02  0.1097418E+00
         21   -1    0    0  501  502  0.00000000000E+00  0.00000000000E+00  0.68186392736E+02  0.68186392736E+02  0.00000000000E+00 0.  1.
         21   -1    0    0  502  503 -0.00000000000E+00 -0.00000000000E+00 -0.12426585834E+04  0.12426585834E+04  0.00000000000E+00 0.  1.
         -6    2    1    2    0  503 -0.63001130125E+02 -0.20743389801E+03 -0.79025415433E+03  0.83736581014E+03  0.17228437862E+03 0.  0.
        -24    2    3    3    0    0  0.28858928314E+02 -0.66651132534E+02 -0.27291164891E+03  0.29337737708E+03  0.79462607933E+02 0.  0.
          6    2    1    2  501    0  0.63001130125E+02  0.20743389801E+03 -0.38421803631E+03  0.47347916597E+03  0.17193329155E+03 0.  0.
         24    2    5    5    0    0  0.90141201208E+02  0.16792398173E+03 -0.36864287575E+03  0.42286007304E+03  0.81173713336E+02 0.  0.
          5    1    5    5  501    0 -0.27140071083E+02  0.39509916276E+02 -0.15575160562E+02  0.50619092930E+02  0.47000000000E+01 0. -1.
        -11    1    6    6    0    0  0.26176241552E+02 -0.11195580344E+01 -0.40562389170E+02  0.48288264073E+02  0.00000000000E+00 0.  1.
         12    1    6    6    0    0  0.63964959656E+02  0.16904353977E+03 -0.32808048658E+03  0.37457180897E+03  0.00000000000E+00 0. -1.
         -5    1    3    3    0  503 -0.91860058439E+02 -0.14078276547E+03 -0.51734250542E+03  0.54398843306E+03  0.47000000000E+01 0.  1.
         13    1    4    4    0    0  0.42303992368E+02 -0.41931512163E+02 -0.25026827585E+03  0.25725879845E+03  0.00000000000E+00 0. -1.
        -14    1    4    4    0    0 -0.13445064054E+02 -0.24719620371E+02 -0.22643373061E+02  0.36118578631E+02  0.00000000000E+00 0.  1.
</event>
<event>
12    1  0.8728348E-002  0.3498842E+03  0.7818608E-02  0.1063308E+00
         21   -1    0    0  503  502  0.00000000000E+00  0.00000000000E+00  0.21486509201E+03  0.21486509201E+03  0.00000000000E+00 0. -1.
         21   -1    0    0  501  503 -0.00000000000E+00 -0.00000000000E+00 -0.55975376926E+03  0.55975376926E+03  0.00000000000E+00 0. -1.
          6    2    1    2  501    0  0.28298759388E+03  0.10621260909E+03 -0.16565793942E+03  0.38149981328E+03  0.16351286805E+03 0.  0.
         24    2    3    3    0    0  0.28662107569E+03  0.69304027731E+02 -0.15449978731E+03  0.34248648317E+03  0.80449472247E+02 0.  0.
         -6    2    1    2    0  502 -0.28298759388E+03 -0.10621260909E+03 -0.17923073783E+03  0.39311904800E+03  0.17622664922E+03 0.  0.
        -24    2    5    5    0    0 -0.19413757723E+03 -0.29943371209E+02 -0.47549777501E+02  0.21684287996E+03  0.78573843465E+02 0.  0.
          5    1    3    3  501    0 -0.36334818084E+01  0.36908581355E+02 -0.11158152108E+02  0.39013330109E+02  0.47000000000E+01 0. -1.
        -11    1    4    4    0    0  0.76786151883E+02  0.48503082797E+02 -0.21998360439E+02  0.93448328096E+02  0.00000000000E+00 0.  1.
         12    1    4    4    0    0  0.20983492380E+03  0.20800944933E+02 -0.13250142687E+03  0.24903815507E+03  0.00000000000E+00 0. -1.
         -5    1    5    5    0  502 -0.88850016652E+02 -0.76269237876E+02 -0.13168096033E+03  0.17627616804E+03  0.47000000000E+01 0.  1.
         13    1    6    6    0    0 -0.70264619024E+02 -0.43119274100E+02 -0.41066994841E+02  0.92102587101E+02  0.00000000000E+00 0. -1.
        -14    1    6    6    0    0 -0.12387295820E+03  0.13175902890E+02 -0.64827826609E+01  0.12474029286E+03  0.00000000000E+00 0.  1.
</event>
<event>
12    1  0.8728348E-002  0.4090506E+03  0.7818608E-02  0.1040737E+00
         21   -1    0    0  501  502  0.00000000000E+00  0.00000000000E+00  0.11846012445E+04  0.11846012445E+04  0.00000000000E+00 0.  1.
         21   -1    0    0  502  503 -0.00000000000E+00 -0.00000000000E+00 -0.40295554083E+03  0.40295554083E+03  0.00000000000E+00 0. -1.
         -6    2    1    2    0  503 -0.14826028854E+03 -0.33962972373E+03 -0.24921033165E+03  0.47850920873E+03  0.17185985871E+03 0.  0.
        -24    2    3    3    0    0 -0.15855045051E+03 -0.33262070497E+03 -0.26230389785E+03  0.45983984203E+03  0.82913007173E+02 0.  0.
          6    2    1    2  501    0  0.14826028854E+03  0.33962972373E+03  0.10308560353E+04  0.11090475766E+04  0.17318458131E+03 0.  0.
         24    2    5    5    0    0  0.34407008424E+02  0.15159050105E+03  0.61149856909E+03  0.63554563031E+03  0.76316616575E+02 0.  0.
          5    1    5    5  501    0  0.11385328012E+03  0.18803922268E+03  0.41935746625E+03  0.47350194631E+03  0.47000000000E+01 0. -1.
        -13    1    6    6    0    0 -0.56359607634E+01  0.32562244623E+02  0.26381737366E+03  0.26587905234E+03  0.00000000000E+00 0.  1.
         14    1    6    6    0    0  0.40042969187E+02  0.11902825643E+03  0.34768119543E+03  0.36966657797E+03  0.00000000000E+00 0. -1.
         -5    1    3    3    0  503  0.10290161965E+02 -0.70090187669E+01  0.13093566199E+02  0.18669366704E+02  0.47000000000E+01 0.  1.
         13    1    4    4    0    0 -0.60176781563E+02 -0.10207685628E+03 -0.40753601139E+02  0.12530676611E+03  0.00000000000E+00 0. -1.
        -14    1    4    4    0    0 -0.98373668945E+02 -0.23054384869E+03 -0.22155029671E+03  0.33453307592E+03  0.00000000000E+00 0.  1.
</event>
<event>
12    1  0.8728348E-002  0.1810268E+03  0.7818608E-02  0.1167161E+00
         21   -1    0    0  503  502  0.00000000000E+00  0.00000000000E+00  0.37285962408E+02  0.37285962408E+02  0.00000000000E+00 0.  1.
         21   -1    0    0  501  503 -0.00000000000E+00 -0.00000000000E+00 -0.88661377447E+03  0.88661377447E+03  0.00000000000E+00 0.  1.
          6    2    1    2  501    0  0.51156616695E+02 -0.51152172343E+01 -0.48580330090E+03  0.51843567927E+03  0.17357287085E+03 0.  0.
         24    2    3    3    0    0 -0.14802105365E+02  0.15661885075E+02 -0.11508416296E+03  0.14129245683E+03  0.79087273475E+02 0.  0.
         -6    2    1    2    0  502 -0.51156616695E+02  0.51152172343E+01 -0.36352451116E+03  0.40546405760E+03  0.17206936659E+03 0.  0.
        -24    2    5    5    0    0 -0.63510084493E+02  0.49835709172E+02 -0.32774893724E+03  0.34668895867E+03  0.79099554102E+02 0.  0.
          5    1    3    3  501    0  0.65958722060E+02 -0.20777102309E+02 -0.37071913794E+03  0.37714322244E+03  0.47000000000E+01 0. -1.
        -11    1    4    4    0    0  0.24151810208E+02  0.26525741984E+02 -0.28809227279E+02  0.46009743539E+02  0.00000000000E+00 0.  1.
         12    1    4    4    0    0 -0.38953915573E+02 -0.10863856909E+02 -0.86274935684E+02  0.95282713294E+02  0.00000000000E+00 0. -1.
         -5    1    5    5    0  502  0.12353467799E+02 -0.44720491938E+02 -0.35775573917E+02  0.58775098936E+02  0.47000000000E+01 0.  1.
         11    1    6    6    0    0  0.12107477512E+01  0.43259847014E+02 -0.85114466873E+02  0.95484829920E+02  0.00000000000E+00 0. -1.
        -12    1    6    6    0    0 -0.64720832244E+02  0.65758621582E+01 -0.24263447037E+03  0.25120412875E+03  0.00000000000E+00 0.  1.
</event>
<event>
12    1  0.8728348E-002  0.1750990E+03  0.7818608E-02  0.1172886E+00
         21   -1    0    0  501  502  0.00000000000E+00  0.00000000000E+00  0.23831361418E+04  0.23831361418E+04  0.00000000000E+00 0.  1.
         21   -1    0    0  502  503 -0.00000000000E+00 -0.00000000000E+00 -0.12792269223E+02  0.12792269223E+02  0.00000000000E+00 0.  1.
         -6    2    1    2    0  503  0.21193154717E+02  0.18363867963E+02  0.11715552091E+04  0.11844194731E+04  0.17181821454E+03 0.  0.
        -24    2    3    3    0    0  0.69676942970E+02  0.48623780121E+02  0.77217363303E+03  0.78094199751E+03  0.79994597033E+02 0.  0.
          6    2    1    2  501    0 -0.21193154717E+02 -0.18363867963E+02  0.11987886635E+04  0.12115089379E+04  0.17283884262E+03 0.  0.
         24    2    5    5    0    0 -0.64497108641E+02 -0.52617681343E+02  0.64092364677E+03  0.65089853574E+03  0.77183453120E+02 0.  0.
          5    1    5    5  501    0  0.43303953924E+02  0.34253813380E+02  0.55786501672E+03  0.56061040218E+03  0.47000000000E+01 0. -1.
        -11    1    6    6    0    0 -0.29326566886E+02 -0.60114274491E+01  0.60055440180E+02  0.67103209167E+02  0.00000000000E+00 0.  1.
         12    1    6    6    0    0 -0.35170541755E+02 -0.46606253894E+02  0.58086820659E+03  0.58379532658E+03  0.00000000000E+00 0. -1.
         -5    1    3    3    0  503 -0.48483788254E+02 -0.30259912158E+02  0.39938157606E+03  0.40347747558E+03  0.47000000000E+01 0.  1.
         11    1    4    4    0    0  0.47243494014E+02 -0.14118666307E+02  0.37305236333E+03  0.37629689110E+03  0.00000000000E+00 0. -1.
        -12    1    4    4    0    0  0.22433448956E+02  0.62742446428E+02  0.39912126969E+03  0.40464510640E+03  0.00000000000E+00 0.  1.
</event>
<event>
12    1  0.8728348E-002  0.2561069E+03  0.7818608E-02  0.1109512E+00
         21   -1    0    0  503  502  0.00000000000E+00  0.00000000000E+00  0.60756198293E+02  0.60756198293E+02  0.00000000000E+00 0.  1.
         21   -1    0    0  501  503 -0.00000000000E+00 -0.00000000000E+00 -0.26536191591E+04  0.26536191591E+04  0.00000000000E+00 0. -1.
          6    2    1    2  501    0  0.11911957995E+03 -0.14850625166E+03 -0.23417202419E+04  0.23556785520E+04  0.17124300847E+03 0.  0.
         24    2    3    3    0    0  0.65984059193E+02 -0.82884097052E+01 -0.11187721293E+04  0.11235630530E+04  0.79500081608E+02 0.  0.
         -6    2    1    2    0  502 -0.11911957995E+03  0.14850625166E+03 -0.25114271889E+03  0.35869680537E+03  0.17131010426E+03 0.  0.
        -24    2    5    5    0    0 -0.18372463079E+02  0.28406075526E+02 -0.14955147157E+03  0.17183614767E+03  0.77572975118E+02 0.  0.
          5    1    3    3  501    0  0.53135520758E+02 -0.14021784196E+03 -0.12229481126E+04  0.12321154990E+04  0.47000000000E+01 0. -1.
        -13    1    4    4    0    0  0.15973662482E+02 -0.34442119398E+02 -0.24037512995E+03  0.24335492717E+03  0.00000000000E+00 0.  1.
         14    1    4    4    0    0  0.50010396711E+02  0.26153709693E+02 -0.87839699936E+03  0.88020812584E+03  0.00000000000E+00 0. -1.
         -5    1    5    5    0  502 -0.10074711687E+03  0.12010017614E+03 -0.10159124732E+03  0.18686065770E+03  0.47000000000E+01 0.  1.
         13    1    6    6    0    0 -0.48906843274E+02  0.17287476077E+02 -0.98403212520E+02  0.11123816064E+03  0.00000000000E+00 0. -1.
        -14    1    6    6    0    0  0.30534380194E+02  0.11118599449E+02 -0.51148259053E+02  0.60597987026E+02  0.00000000000E+00 0.  1.
</event>
<event>
12    1  0.8728348E-002  0.2182310E+03  0.7818608E-02  0.1135376E+00
         21   -1    0    0  503  502  0.00000000000E+00  0.00000000000E+00  0.23433706886E+03  0.23433706886E+03  0.00000000000E+00 0.  1.
         21   -1    0    0  501  503 -0.00000000000E+00 -0.00000000000E+00 -0.26672234957E+03  0.26672234957E+03  0.00000000000E+00 0. -1.
          6    2    1    2  501    0 -0.40831556101E+02 -0.12683872869E+03 -0.13919008872E+03  0.25809431828E+03  0.17170765057E+03 0.  0.
         24    2    3    3    0    0 -0.68591639912E+02 -0.12941506290E+03 -0.15294497542E+03  0.22665315642E+03  0.80786237937E+02 0.  0.
         -6    2    1    2    0  502  0.40831556101E+02  0.12683872869E+03  0.10680480800E+03  0.24296510014E+03  0.17282793121E+03 0.  0.
        -24    2    5    5    0    0 -0.25282865997E+02  0.44375003426E+02  0.96879151113E+02  0.13670131770E+03  0.81812689107E+02 0.  0.
          5    1    3    3  501    0  0.27760083811E+02  0.25763342070E+01  0.13754886698E+02  0.31441161862E+02  0.47000000000E+01 0. -1.
        -13    1    4    4    0    0 -0.14268906723E+02  0.19942706258E+01  0.39203071320E+01  0.14931430688E+02  0.00000000000E+00 0.  1.
         14    1    4    4    0    0 -0.54322733189E+02 -0.13140933353E+03 -0.15686528255E+03  0.21172172573E+03  0.00000000000E+00 0. -1.
         -5    1    5    5    0  502  0.66114422098E+02  0.82463725267E+02  0.99256568897E+01  0.10626378244E+03  0.47000000000E+01 0.  1.
         11    1    6    6    0    0 -0.15709265885E+02  0.23391864267E+02 -0.80201201699E+01  0.29296461835E+02  0.00000000000E+00 0. -1.
        -12    1    6    6    0    0 -0.95736001123E+01  0.20983139159E+02  0.10489927128E+03  0.10740485587E+03  0.00000000000E+00 0.  1.
</event>
<event>
12    1  0.8728348E-002  0.3206191E+03  0.7818608E-02  0.1075490E+00
         21   -1    0    0  503  502  0.00000000000E+00  0.00000000000E+00  0.57288807094E+03  0.57288807094E+03  0.00000000000E+00 0. -1.
         21   -1    0    0  501  503 -0.00000000000E+00 -0.00000000000E+00 -0.18087018511E+03  0.18087018511E+03  0.00000000000E+00 0.  1.
          6    2    1    2  501    0  0.19366264961E+03  0.18966900476E+03  0.23642142135E+03  0.39836128918E+03  0.17122229709E+03 0.  0.
         24    2    3    3    0    0  0.50612932257E+02  0.13485175292E+03  0.13857573425E+03  0.21652614071E+03  0.83268669439E+02 0.  0.
         -6    2    1    2    0  502 -0.19366264961E+03 -0.18966900476E+03  0.15559646448E+03  0.35539696688E+03  0.16916616412E+03 0.  0.
        -24    2    5    5    0    0 -0.96189031180E+02 -0.26346716024E+02  0.76803420397E+02  0.14947049921E+03  0.80598918017E+02 0.  0.
          5    1    3    3  501    0  0.14304971735E+03  0.54817251840E+02  0.97845687097E+02  0.18183514847E+03  0.47000000000E+01 0. -1.
        -11    1    4    4    0    0 -0.87682594294E+01  0.54679535887E+02  0.89728560209E+02  0.10544168310E+03  0.00000000000E+00 0.  1.
         12    1    4    4    0    0  0.59381191686E+02  0.80172217033E+02  0.48847174042E+02  0.11108445761E+03  0.00000000000E+00 0. -1.
         -5    1    5    5    0  502 -0.97473618431E+02 -0.16332228874E+03  0.78793044082E+02  0.20592646766E+03  0.47000000000E+01 0.  1.
         11    1    6    6    0    0 -0.92839635737E+02 -0.23572492220E+02  0.92514671696E+02  0.13316840779E+03  0.00000000000E+00 0. -1.
        -12    1    6    6    0    0 -0.33493954435E+01 -0.27742238039E+01 -0.15711251298E+02  0.16302091427E+02  0.00000000000E+00 0.  1.
</event>
<event>
12    1  0.8728348E-002  0.2835905E+03  0.7818608E-02  0.1093901E+00
         21   -1    0    0  503  502  0.00000000000E+00  0.00000000000E+00  0.14555342018E+03  0.14555342018E+03  0.00000000000E+00 0.  1.
         21   -1    0    0  501  503 -0.00000000000E+00 -0.00000000000E+00 -0.65978293011E+03  0.65978293011E+03  0.00000000000E+00 0. -1.
          6    2    1    2  501    0 -0.22412512797E+03  0.61045802938E+01 -0.93498800911E+02  0.29860605368E+03  0.17364967790E+03 0.  0.
         24    2    3    3    0    0 -0.24132462703E+02 -0.73722996275E+01 -0.19485839983E+02  0.84880292861E+02  0.78665364669E+02 0.  0.
         -6    2    1    2    0  502  0.22412512797E+03 -0.61045802938E+01 -0.42073070902E+03  0.50673029661E+03  0.17173213185E+03 0.  0.
        -24    2    5    5    0    0  0.11157534462E+03  0.63674984622E+02 -0.24692892719E+03  0.28817643420E+03  0.74620378921E+02 0.  0.
          5    1    3    3  501    0 -0.19999266526E+03  0.13476879921E+02 -0.74012960928E+02  0.21372576082E+03  0.47000000000E+01 0. -1.
        -11    1    4    4    0    0 -0.26239432038E+02  0.24714210536E+02  0.13801993607E+02  0.38597862941E+02  0.00000000000E+00 0.  1.
         12    1    4    4    0    0  0.21069693349E+01 -0.32086510163E+02 -0.33287833590E+02  0.46282429920E+02  0.00000000000E+00 0. -1.
         -5    1    5    5    0  502  0.11254978334E+03 -0.69779564916E+02 -0.17380178183E+03  0.21855386242E+03  0.47000000000E+01 0.  1.
         11    1    6    6    0    0  0.76913550460E+02  0.11919680662E+02 -0.18326804434E+03  0.19911039428E+03  0.00000000000E+00 0. -1.
        -12    1    6    6    0    0  0.34661794164E+02  0.51755303960E+02 -0.63660882842E+02  0.89066039919E+02  0.00000000000E+00 0.  1.
</event>
<event>
12    1  0.8728348E-002  0.1992044E+03  0.7818608E-02  0.1150438E+00
         21   -1    0    0  503  502  0.00000000000E+00  0.00000000000E+00  0.12825280680E+04  0.12825280680E+04  0.00000000000E+00 0.  1.
         21   -1    0    0  501  503 -0.00000000000E+00 -0.00000000000E+00 -0.31331143467E+02  0.31331143467E+02  0.00000000000E+00 0.  1.
          6    2    1    2  501    0  0.84202810122E+02  0.54626745353E+02  0.55066621152E+03  0.58559002224E+03  0.17207034345E+03 0.  0.
         24    2    3    3    0    0  0.12117008279E+03  0.51380193090E+02  0.49676486201E+03  0.51998083973E+03  0.79263057938E+02 0.  0.
         -6    2    1    2    0  502 -0.84202810122E+02 -0.54626745353E+02  0.70053071299E+03  0.72826918921E+03  0.17192596536E+03 0.  0.
        -24    2    5    5    0    0 -0.92584873076E+02 -0.24132440516E+02  0.28007934279E+03  0.30660391163E+03  0.80044905922E+02 0.  0.
          5    1    3    3  501    0 -0.36967272670E+02  0.32465522628E+01  0.53901349513E+02  0.65609182510E+02  0.47000000000E+01 0. -1.
        -13    1    4    4    0    0  0.10395988299E+02 -0.19486314092E+02  0.76187095243E+02  0.79323807846E+02  0.00000000000E+00 0.  1.
         14    1    4    4    0    0  0.11077409449E+03  0.70866507182E+02  0.42057776677E+03  0.44065703189E+03  0.00000000000E+00 0. -1.
         -5    1    5    5    0  502  0.83820629540E+01 -0.30494304838E+02  0.42045137020E+03  0.42166527758E+03  0.47000000000E+01 0.  1.
         13    1    6    6    0    0 -0.15301600654E+02 -0.42561858547E+02  0.10646227977E+03  0.11567137848E+03  0.00000000000E+00 0. -1.
        -14    1    6    6    0    0 -0.77283272422E+02  0.18429418031E+02  0.17361706302E+03  0.19093253316E+03  0.00000000000E+00 0.  1.
</event>
<event>
12    1  0.8728348E-002  0.2259780E+03  0.7818608E-02  0.1129601E+00
         21   -1    0    0  503  502  0.00000000000E+00  0.00000000000E+00  0.24662590668E+03  0.24662590668E+03  0.00000000000E+00 0.  1.
         21   -1    0    0  501  503 -0.00000000000E+00 -0.00000000000E+00 -0.21959754793E+03  0.21959754793E+03  0.00000000000E+00 0. -1.
          6    2    1    2  501    0  0.11874920346E+03  0.85300604959E+02  0.70331164738E+02  0.23666969251E+03  0.17230352316E+03 0.  0.
         24    2    3    3    0    0  0.10200674745E+03  0.11316830393E+01  0.54193619637E+01  0.12896477438E+03  0.78713952487E+02 0.  0.
         -6    2    1    2    0  502 -0.11874920346E+03 -0.85300604959E+02 -0.43302805981E+02  0.22955376209E+03  0.17158738344E+03 0.  0.
        -24    2    5    5    0    0 -0.29532189680E+02 -0.10420414020E+03 -0.27259820203E+02  0.13683652214E+03  0.79059995771E+02 0.  0.
          5    1    3    3  501    0  0.16742456018E+02  0.84168921920E+02  0.64911802775E+02  0.10770491813E+03  0.47000000000E+01 0. -1.
        -11    1    4    4    0    0  0.87103161214E+02  0.23696512233E+02 -0.19320079923E+02  0.92313329881E+02  0.00000000000E+00 0.  1.
         12    1    4    4    0    0  0.14903586232E+02 -0.22564829193E+02  0.24739441886E+02  0.36651444500E+02  0.00000000000E+00 0. -1.
         -5    1    5    5    0  502 -0.89217013784E+02  0.18903535236E+02 -0.16042985778E+02  0.92717239959E+02  0.47000000000E+01 0.  1.
         11    1    6    6    0    0  0.24996668147E+02 -0.35342522248E+02  0.43000784342E+01  0.43501930669E+02  0.00000000000E+00 0. -1.
        -12    1    6    6    0    0 -0.54528857827E+02 -0.68861617947E+02 -0.31559898637E+02  0.93334591467E+02  0.00000000000E+00 0.  1.
</event>
<event>
12    1  0.8728348E-002  0.2497063E+03  0.7818608E-02  0.1113744E+00
         21   -1    0    0  501  502  0.00000000000E+00  0.00000000000E+00  0.95308027982E+03  0.95308027982E+03  0.00000000000E+00 0.  1.
         21   -1    0    0  502  503 -0.00000000000E+00 -0.00000000000E+00 -0.21203177919E+03  0.21203177919E+03  0.00000000000E+00 0.  1.
         -6    2    1    2    0  503 -0.17785511505E+03 -0.25949972734E+02 -0.11494275215E+03  0.27344268465E+03  0.17103573453E+03 0.  0.
        -24    2    3    3    0    0 -0.74920530443E+02 -0.68909568757E+02 -0.31606224462E+02  0.13412964705E+03  0.81426004729E+02 0.  0.
          6    2    1    2  501    0  0.17785511505E+03  0.25949972734E+02  0.85599125278E+03  0.89166937435E+03  0.17334187402E+03 0.  0.
         24    2    5    5    0    0  0.14755673846E+03  0.13285173828E+02  0.38217451627E+03  0.41669276593E+03  0.75006755569E+02 0.  0.
          5    1    5    5  501    0  0.30298376589E+02  0.12664798906E+02  0.47381673651E+03  0.47497660843E+03  0.47000000000E+01 0. -1.
        -11    1    6    6    0    0  0.22814441290E+02  0.32180603843E+02  0.10458287576E+03  0.11177507726E+03  0.00000000000E+00 0.  1.
         12    1    6    6    0    0  0.12474229717E+03 -0.18895430015E+02  0.27759164051E+03  0.30491768866E+03  0.00000000000E+00 0. -1.
         -5    1    3    3    0  503 -0.10293458460E+03  0.42959596023E+02 -0.83336527686E+02  0.13931303760E+03  0.47000000000E+01 0.  1.
         11    1    4    4    0    0 -0.83556301349E+02 -0.54253980219E+02 -0.16009383639E+01  0.99637908792E+02  0.00000000000E+00 0. -1.
        -12    1    4    4    0    0  0.86357709060E+01 -0.14655588538E+02 -0.30005286098E+02  0.34491738263E+02  0.00000000000E+00 0.  1.
</event>
<event>
12    1  0.8728348E-002  0.2523316E+03  0.7818608E-02  0.1111912E+00
         21   -1    0    0  503  502  0.00000000000E+00  0.00000000000E+00  0.44893155831E+03  0.44893155831E+03  0.00000000000E+00 0. -1.
         21   -1    0    0  501  503 -0.00000000000E+00 -0.00000000000E+00 -0.26206810378E+03  0.26206810378E+03  0.00000000000E+00 0. -1.
          6    2    1    2  501    0  0.14059838442E+03 -0.11962604985E+03 -0.14758069225E+03  0.29232054319E+03  0.17202599148E+03 0.  0.
         24    2    3    3    0    0  0.15667515013E+03 -0.13504970968E+03 -0.10408814820E+03  0.24322835374E+03  0.74432269312E+02 0.  0.
         -6    2    1    2    0  502 -0.14059838442E+03  0.11962604985E+03  0.33444414678E+03  0.41867911889E+03  0.17135057566E+03 0.  0.
        -24    2    5    5    0    0 -0.81796791406E+01  0.70658828683E+02  0.18290414338E+03  0.21151019051E+03  0.78886360057E+02 0.  0.
          5    1    3    3  501    0 -0.16076765708E+02  0.15423659822E+02 -0.43492544046E+02  0.49092189455E+02  0.47000000000E+01 0. -1.
        -11    1    4    4    0    0  0.34906265893E+02 -0.56631169130E+02 -0.29766723973E+01  0.66591270405E+02  0.00000000000E+00 0.  1.
         12    1    4    4    0    0  0.12176888423E+03 -0.78418540547E+02 -0.10111147580E+03  0.17663708333E+03  0.00000000000E+00 0. -1.
         -5    1    5    5    0  502 -0.13241870528E+03  0.48967221172E+02  0.15154000339E+03  0.20716892838E+03  0.47000000000E+01 0.  1.
         13    1    6    6    0    0 -0.29780704863E+02  0.75167343188E+02  0.16228114736E+03  0.18130689632E+03  0.00000000000E+00 0. -1.
        -14    1    6    6    0    0  0.21601025722E+02 -0.45085145054E+01  0.20622996022E+02  0.30203294195E+02  0.00000000000E+00 0.  1.
</event>
<event>
12    1  0.8728348E-002  0.1813207E+03  0.7818608E-02  0.1168510E+00
         21   -1    0    0  501  502  0.00000000000E+00  0.00000000000E+00  0.32181941180E+02  0.32181941180E+02  0.00000000000E+00 0.  1.
         21   -1    0    0  502  503 -0.00000000000E+00 -0.00000000000E+00 -0.99848348354E+03  0.99848348354E+03  0.00000000000E+00 0.  1.
         -6    2    1    2    0  503 -0.14535948996E+02  0.96294748813E+01 -0.54849450433E+03  0.57520970389E+03  0.17238318241E+03 0.  0.
        -24    2    3    3    0    0  0.49071776656E+02  0.36178507586E+02 -0.38201966147E+03  0.39496887277E+03  0.79652150204E+02 0.  0.
          6    2    1    2  501    0  0.14535948996E+02 -0.96294748813E+01 -0.41780703803E+03  0.45545572083E+03  0.18048039229E+03 0.  0.
         24    2    5    5    0    0  0.42444918390E+02 -0.61334382258E+02 -0.18163137632E+03  0.21203562879E+03  0.80035451330E+02 0.  0.
          5    1    5    5  501    0 -0.27908969394E+02  0.51704907377E+02 -0.23617566171E+03  0.24342009203E+03  0.47000000000E+01 0. -1.
        -11    1    6    6    0    0  0.55632426765E+02 -0.25909820111E+02 -0.15227095134E+03  0.16417286105E+03  0.00000000000E+00 0.  1.
         12    1    6    6    0    0 -0.13187508374E+02 -0.35424562147E+02 -0.29360424986E+02  0.47862767741E+02  0.00000000000E+00 0. -1.
         -5    1    3    3    0  503 -0.63607725653E+02 -0.26549032705E+02 -0.16647484286E+03  0.18024083113E+03  0.47000000000E+01 0.  1.
         13    1    4    4    0    0  0.47515280863E+02 -0.11509111081E+02 -0.13999873648E+03  0.14828960775E+03  0.00000000000E+00 0. -1.
        -14    1    4    4    0    0  0.15564957937E+01  0.47687618666E+02 -0.24202092499E+03  0.24667926502E+03  0.00000000000E+00 0.  1.
</event>
<event>
12    1  0.8728348E-002  0.2114195E+03  0.7818608E-02  0.1140774E+00
         21   -1    0    0  503  502  0.00000000000E+00  0.00000000000E+00  0.22717770596E+04  0.22717770596E+04  0.00000000000E+00 0.  1.
         21   -1    0    0  501  503 -0.00000000000E+00 -0.00000000000E+00 -0.21237244795E+02  0.21237244795E+02  0.00000000000E+00 0.  1.
          6    2    1    2  501    0 -0.96221549443E+02  0.73927939372E+02  0.14552434316E+04  0.14705208715E+04  0.17313076406E+03 0.  0.
         24    2    3    3    0    0 -0.24544795833E+02 -0.78174186154E+01  0.95650825311E+03  0.96005174526E+03  0.78279986490E+02 0.  0.
         -6    2    1    2    0  502  0.96221549443E+02 -0.73927939372E+02  0.79529638318E+03  0.82249343289E+03  0.17109992180E+03 0.  0.
        -24    2    5    5    0    0 -0.14757432041E+02 -0.33941033785E+02  0.42491396798E+03  0.43375121696E+03  0.78857228316E+02 0.  0.
          5    1    3    3  501    0 -0.71676753610E+02  0.81745357987E+02  0.49873517851E+03  0.51046912624E+03  0.47000000000E+01 0. -1.
        -13    1    4    4    0    0 -0.53211085122E+02 -0.26203693920E+01  0.61957998416E+03  0.62186625788E+03  0.00000000000E+00 0.  1.
         14    1    4    4    0    0  0.28666289290E+02 -0.51970492234E+01  0.33692826894E+03  0.33818548738E+03  0.00000000000E+00 0. -1.
         -5    1    5    5    0  502  0.11097898148E+03 -0.39986905587E+02  0.37038241521E+03  0.38874221593E+03  0.47000000000E+01 0.  1.
         11    1    6    6    0    0 -0.18882238773E+02  0.22596787811E+02  0.11602886972E+03  0.11970736138E+03  0.00000000000E+00 0. -1.
        -12    1    6    6    0    0  0.41248067328E+01 -0.56537821596E+02  0.30888509826E+03  0.31404385558E+03  0.00000000000E+00 0.  1.
</event>
<event>
12    1  0.8728348E-002  0.3423102E+03  0.7818608E-02  0.1065889E+00
         21   -1    0    0  503  502  0.00000000000E+00  0.00000000000E+00  0.86165081986E+03  0.86165081986E+03  0.00000000000E+00 0.  1.
         21   -1    0    0  501  503 -0.00000000000E+00 -0.00000000000E+00 -0.23514416656E+03  0.23514416656E+03  0.00000000000E+00 0. -1.
          6    2    1    2  501    0 -0.62126112977E+02 -0.28902903634E+03 -0.43526461069E+02  0.34438510803E+03  0.17119904222E+03 0.  0.
         24    2    3    3    0    0 -0.55664640353E+02 -0.28896841059E+03 -0.73339778405E+02  0.31351962254E+03  0.79464055486E+02 0.  0.
         -6    2    1    2    0  502  0.62126112977E+02  0.28902903634E+03  0.67003311437E+03  0.75240987839E+03  0.17256538755E+03 0.  0.
        -24    2    5    5    0    0 -0.84197849988E+01  0.19417713565E+03  0.31839375063E+03  0.38140322223E+03  0.79487009593E+02 0.  0.
          5    1    3    3  501    0 -0.64614726240E+01 -0.60625746148E-01  0.29813317336E+02  0.30865485490E+02  0.47000000000E+01 0. -1.
        -11    1    4    4    0    0 -0.79860943482E+01 -0.12283460187E+03  0.62127630229E+01  0.12325062087E+03  0.00000000000E+00 0.  1.
         12    1    4    4    0    0 -0.47678546005E+02 -0.16613380872E+03 -0.79552541428E+02  0.19026900167E+03  0.00000000000E+00 0. -1.
         -5    1    5    5    0  502  0.70545897976E+02  0.94851900688E+02  0.35163936374E+03  0.37100665616E+03  0.47000000000E+01 0.  1.
         11    1    6    6    0    0  0.32485041153E+02  0.86338698994E+02  0.11330692918E+03  0.14610992110E+03  0.00000000000E+00 0. -1.
        -12    1    6    6    0    0 -0.40904826152E+02  0.10783843666E+03  0.20508682145E+03  0.23529330113E+03  0.00000000000E+00 0.  1.
</event>
<event>
12    1  0.8728348E-002  0.1806492E+03  0.7818608E-02  0.1167771E+00
         21   -1    0    0  501  502  0.00000000000E+00  0.00000000000E+00  0.10924630923E+03  0.10924630923E+03  0.00000000000E+00 0.  1.
         21   -1    0    0  502  503 -0.00000000000E+00 -0.00000000000E+00 -0.32375642089E+03  0.32375642089E+03  0.00000000000E+00 0.  1.
         -6    2    1    2    0  503  0.40483681351E+02 -0.33707928544E+02 -0.41708047602E+02  0.18301335456E+03  0.17023270488E+03 0.  0.
        -24    2    3    3    0    0  0.62845912284E+02  0.32516144376E+02 -0.32918845313E+02  0.11240855810E+03  0.80901948194E+02 0.  0.
          6    2    1    2  501    0 -0.40483681351E+02  0.33707928544E+02 -0.17280206406E+03  0.24998937556E+03  0.17279751632E+03 0.  0.
         24    2    5    5    0    0 -0.36931357997E+01  0.21025379689E+01 -0.18400400826E+03  0.19998919047E+03  0.78231332155E+02 0.  0.
          5    1    5    5  501    0 -0.36790545551E+02  0.31605390575E+02  0.11201944201E+02  0.50000185092E+02  0.47000000000E+01 0. -1.
        -13    1    6    6    0    0 -0.24397112100E+02  0.16586170675E+02 -0.24078900264E+02  0.38080356805E+02  0.00000000000E+00 0.  1.
         14    1    6    6    0    0  0.20703976300E+02 -0.14483632706E+02 -0.15992510799E+03  0.16190883366E+03  0.00000000000E+00 0. -1.
         -5    1    3    3    0  503 -0.22362230933E+02 -0.66224072920E+02 -0.87892022888E+01  0.70604796461E+02  0.47000000000E+01 0.  1.
         11    1    4    4    0    0  0.82380873501E+02  0.30412894933E+02 -0.26122171889E+02  0.91618340747E+02  0.00000000000E+00 0. -1.
        -12    1    4    4    0    0 -0.19534961217E+02  0.21032494435E+01 -0.67966734244E+01  0.20790217354E+02  0.00000000000E+00 0.  1.
</event>
<event>
12    1  0.8728348E-002  0.1810919E+03  0.7818608E-02  0.1167241E+00
         21   -1    0    0  501  502  0.00000000000E+00  0.00000000000E+00  0.31877647417E+03  0.31877647417E+03  0.00000000000E+00 0.  1.
         21   -1    0    0  502  503 -0.00000000000E+00 -0.00000000000E+00 -0.21150375577E+03  0.21150375577E+03  0.00000000000E+00 0.  1.
         -6    2    1    2    0  503 -0.49304459395E+02  0.14829825562E+02 -0.13723566380E+03  0.22721771331E+03  0.17361857153E+03 0.  0.
        -24    2    3    3    0    0 -0.10569459630E+02  0.53344825005E+02 -0.19181253056E+02  0.97053435243E+02  0.78064492517E+02 0.  0.
          6    2    1    2  501    0  0.49304459395E+02 -0.14829825562E+02  0.24450838219E+03  0.30306251663E+03  0.17149835738E+03 0.  0.
         24    2    5    5    0    0  0.13562374596E+02 -0.70306834371E+02  0.11677801032E+03  0.15921421796E+03  0.81148472217E+02 0.  0.
          5    1    5    5  501    0  0.35742084799E+02  0.55477008809E+02  0.12773037187E+03  0.14384829867E+03  0.47000000000E+01 0. -1.
        -13    1    6    6    0    0 -0.19107531028E+02 -0.51387768831E+01  0.69655783630E+02  0.72411552690E+02  0.00000000000E+00 0.  1.
         14    1    6    6    0    0  0.32669905623E+02 -0.65168057488E+02  0.47122226689E+02  0.86802665272E+02  0.00000000000E+00 0. -1.
         -5    1    3    3    0  503 -0.38734999765E+02 -0.38514999443E+02 -0.11805441074E+03  0.13016427807E+03  0.47000000000E+01 0.  1.
         11    1    4    4    0    0  0.55442110616E+01  0.49932171694E+02 -0.44323382654E+02  0.66996434952E+02  0.00000000000E+00 0. -1.
        -12    1    4    4    0    0 -0.16113670691E+02  0.34126533113E+01  0.25142129598E+02  0.30057000291E+02  0.00000000000E+00 0.  1.
</event>
<event>
12    1  0.8728348E-002  0.2084346E+03  0.7818608E-02  0.1142912E+00
         21   -1    0    0  501  502  0.00000000000E+00  0.00000000000E+00  0.12803227397E+03  0.12803227397E+03  0.00000000000E+00 0. -1.
         21   -1    0    0  502  503 -0.00000000000E+00 -0.00000000000E+00 -0.42491468685E+03  0.42491468685E+03  0.00000000000E+00 0. -1.
         -6    2    1    2    0  503  0.30366083469E+02 -0.11482192677E+03 -0.27325199453E+03  0.34367372569E+03  0.17128573590E+03 0.  0.
        -24    2    3    3    0    0 -0.20996332469E+02 -0.71252538224E+02 -0.24835273687E+03  0.27171226085E+03  0.81429113999E+02 0.  0.
          6    2    1    2  501    0 -0.30366083469E+02  0.11482192677E+03 -0.23630418345E+02  0.20927323513E+03  0.17067722865E+03 0.  0.
         24    2    5    5    0    0 -0.28283282700E+02  0.29715579927E+02 -0.68146247364E+02  0.11309019419E+03  0.80389807946E+02 0.  0.
          5    1    5    5  501    0 -0.20828007692E+01  0.85106346843E+02  0.44515829019E+02  0.96183040944E+02  0.47000000000E+01 0. -1.
        -13    1    6    6    0    0 -0.45717444303E+02 -0.10069540635E+02 -0.35693456296E+02  0.58868524565E+02  0.00000000000E+00 0.  1.
         14    1    6    6    0    0  0.17434161602E+02  0.39785120561E+02 -0.32452791068E+02  0.54221669626E+02  0.00000000000E+00 0. -1.
         -5    1    3    3    0  503  0.51362415939E+02 -0.43569388546E+02 -0.24899257661E+02  0.71961464836E+02  0.47000000000E+01 0.  1.
         13    1    4    4    0    0 -0.35223001110E+02 -0.83322081598E+02 -0.21880397842E+03  0.23676657294E+03  0.00000000000E+00 0. -1.
        -14    1    4    4    0    0  0.14226668640E+02  0.12069543374E+02 -0.29548758453E+02  0.34945687917E+02  0.00000000000E+00 0.  1.
</event>
<event>
12    1  0.8728348E-002  0.1858430E+03  0.7818608E-02  0.1162583E+00
         21   -1    0    0  503  502  0.00000000000E+00  0.00000000000E+00  0.58127363769E+03  0.58127363769E+03  0.00000000000E+00 0. -1.
         21   -1    0    0  501  503 -0.00000000000E+00 -0.00000000000E+00 -0.64919969885E+02  0.64919969885E+02  0.00000000000E+00 0. -1.
          6    2    1    2  501    0 -0.91114526603E+01  0.67631629135E+02  0.15958923405E+03  0.24392693473E+03  0.17139011066E+03 0.  0.
         24    2    3    3    0    0  0.20764022240E+02  0.49114512791E+02  0.18814272857E+02  0.98754253767E+02  0.80963237260E+02 0.  0.
         -6    2    1    2    0  502  0.91114526603E+01 -0.67631629135E+02  0.35676443376E+03  0.40226667285E+03  0.17285994060E+03 0.  0.
        -24    2    5    5    0    0 -0.62306781093E+02 -0.37214651462E+02  0.19618024486E+03  0.22384265998E+03  0.79698072136E+02 0.  0.
          5    1    3    3  501    0 -0.29875474901E+02  0.18517116345E+02  0.14077496119E+03  0.14517268096E+03  0.47000000000E+01 0. -1.
        -11    1    4    4    0    0 -0.23452500351E+02  0.28700366556E+02 -0.14445305827E+02  0.39779362408E+02  0.00000000000E+00 0.  1.
         12    1    4    4    0    0  0.44216522591E+02  0.20414146235E+02  0.33259578684E+02  0.58974891359E+02  0.00000000000E+00 0. -1.
         -5    1    5    5    0  502  0.71418233753E+02 -0.30416977673E+02  0.16058418890E+03  0.17842401287E+03  0.47000000000E+01 0.  1.
         11    1    6    6    0    0 -0.31322834470E+02 -0.44352106089E+01  0.11383804776E+02  0.33621155000E+02  0.00000000000E+00 0. -1.
        -12    1    6    6    0    0 -0.30983946623E+02 -0.32779440853E+02  0.18479644008E+03  0.19022150498E+03  0.00000000000E+00 0.  1.
</event>
<event>
12    1  0.8728348E-002  0.2189124E+03  0.7818608E-02  0.1134982E+00
         21   -1    0    0  503  502  0.00000000000E+00  0.00000000000E+00  0.15929954788E+03  0.15929954788E+03  0.00000000000E+00 0.  1.
         21   -1    0    0  501  503 -0.00000000000E+00 -0.00000000000E+00 -0.13492640549E+04  0.13492640549E+04  0.00000000000E+00 0. -1.
          6    2    1    2  501    0 -0.98921508483E+02 -0.88604898234E+02 -0.12600805209E+04  0.12786965105E+04  0.17212075431E+03 0.  0.
         24    2    3    3    0    0 -0.46055312607E+02 -0.85668060488E+02 -0.11447261976E+04  0.11516840325E+04  0.80733727410E+02 0.  0.
         -6    2    1    2    0  502  0.98921508483E+02  0.88604898234E+02  0.70116013857E+02  0.22986709227E+03  0.17402968677E+03 0.  0.
        -24    2    5    5    0    0  0.13304292978E+03  0.10039247412E+03  0.49983701824E+02  0.18826639126E+03  0.71880411851E+02 0.  0.
          5    1    3    3  501    0 -0.52866195876E+02 -0.29368377459E+01 -0.11535432329E+03  0.12701247806E+03  0.47000000000E+01 0. -1.
        -11    1    4    4    0    0 -0.24488267485E+02 -0.41645179980E+02 -0.93728095968E+03  0.93852522269E+03  0.00000000000E+00 0.  1.
         12    1    4    4    0    0 -0.21567045122E+02 -0.44022880508E+02 -0.20744523795E+03  0.21315880979E+03  0.00000000000E+00 0. -1.
         -5    1    5    5    0  502 -0.34121421293E+02 -0.11787575885E+02  0.20132312034E+02  0.41600701006E+02  0.47000000000E+01 0.  1.
         11    1    6    6    0    0  0.74031403042E+02  0.12103403815E+02  0.15367836710E+02  0.76572262768E+02  0.00000000000E+00 0. -1.
        -12    1    6    6    0    0  0.59011526735E+02  0.88289070304E+02  0.34615865114E+02  0.11169412850E+03  0.00000000000E+00 0.  1.
</event>
<event>
12    1  0.8728348E-002  0.2086958E+03  0.7818608E-02  0.1143927E+00
         21   -1    0    0  501  502  0.00000000000E+00  0.00000000000E+00  0.18829621798E+04  0.18829621798E+04  0.00000000000E+00 0. -1.
         21   -1    0    0  502  503 -0.00000000000E+00 -0.00000000000E+00 -0.25538845425E+02  0.25538845425E+02  0.00000000000E+00 0. -1.
         -6    2    1    2    0  503 -0.55791589725E+02  0.11114339579E+03  0.12495570762E+04  0.12658072190E+04  0.15940349120E+03 0.  0.
        -24    2    3    3    0    0 -0.92487971357E+02  0.76524210626E+02  0.74410900943E+03  0.75782596872E+03  0.78689270505E+02 0.  0.
          6    2    1    2  501    0  0.55791589725E+02 -0.11114339579E+03  0.60786625815E+03  0.64269380622E+03  0.16759589749E+03 0.  0.
         24    2    5    5    0    0  0.82119644099E+01 -0.46859221558E+02  0.49691993775E+03  0.50584552596E+03  0.81774376152E+02 0.  0.
          5    1    5    5  501    0  0.47579625315E+02 -0.64284174235E+02  0.11094632039E+03  0.13684828026E+03  0.47000000000E+01 0. -1.
        -11    1    6    6    0    0 -0.28237402770E+02 -0.45337626782E+02  0.36826915555E+03  0.37212232161E+03  0.00000000000E+00 0.  1.
         12    1    6    6    0    0  0.36449367180E+02 -0.15215947764E+01  0.12865078221E+03  0.13372320435E+03  0.00000000000E+00 0. -1.
         -5    1    3    3    0  503  0.36696381632E+02  0.34619185167E+02  0.50544806677E+03  0.50798125025E+03  0.47000000000E+01 0.  1.
         13    1    4    4    0    0 -0.56289643267E+02  0.64137330724E+02  0.65913676426E+03  0.66463779243E+03  0.00000000000E+00 0. -1.
        -14    1    4    4    0    0 -0.36198328090E+02  0.12386879903E+02  0.84972245166E+02  0.93188176282E+02  0.00000000000E+00 0.  1.
</event>
<event>
12    1  0.8728348E-002  0.2168249E+03  0.7818608E-02  0.1137165E+00
         21   -1    0    0  501  502  0.00000000000E+00  0.00000000000E+00  0.18614423046E+03  0.18614423046E+03  0.00000000000E+00 0. -1.
         21   -1    0    0  502  503 -0.00000000000E+00 -0.00000000000E+00 -0.24727117214E+03  0.24727117214E+03  0.00000000000E+00 0.  1.
         -6    2    1    2    0  503  0.64199425938E+02 -0.10596811418E+03 -0.26733305131E+02  0.21846675089E+03  0.17793887750E+03 0.  0.
        -24    2    3    3    0    0 -0.60546690451E+01 -0.12137002150E+03 -0.64517738666E+01  0.14359160734E+03  0.76220621731E+02 0.  0.
          6    2    1    2  501    0 -0.64199425938E+02  0.10596811418E+03 -0.34393636551E+02  0.21494865171E+03  0.17224747639E+03 0.  0.
         24    2    5    5    0    0 -0.10782043997E+03  0.72584919001E+02 -0.44918702761E+02  0.15882292139E+03  0.79455728313E+02 0.  0.
          5    1    5    5  501    0  0.43621014027E+02  0.33383195176E+02  0.10525066210E+02  0.56125730317E+02  0.47000000000E+01 0. -1.
        -11    1    6    6    0    0 -0.15026584621E+02  0.87543528174E+01 -0.42774515878E+02  0.46174626661E+02  0.00000000000E+00 0.  1.
         12    1    6    6    0    0 -0.92793855344E+02  0.63830566184E+02 -0.21441868826E+01  0.11264829473E+03  0.00000000000E+00 0. -1.
         -5    1    3    3    0  503  0.70254094984E+02  0.15401907319E+02 -0.20281531264E+02  0.74875143549E+02  0.47000000000E+01 0.  1.
         11    1    4    4    0    0 -0.15233765494E+02 -0.81121405960E+02  0.30690015022E+02  0.88060360765E+02  0.00000000000E+00 0. -1.
        -12    1    4    4    0    0  0.91790964490E+01 -0.40248615536E+02 -0.37141788889E+02  0.55531246574E+02  0.00000000000E+00 0.  1.
</event>
<event>
12    1  0.8728348E-002  0.2040668E+03  0.7818608E-02  0.1146376E+00
         21   -1    0    0  501  502  0.00000000000E+00  0.00000000000E+00  0.45164746193E+02  0.45164746193E+02  0.00000000000E+00 0. -1.
         21   -1    0    0  502  503 -0.00000000000E+00 -0.00000000000E+00 -0.92592901249E+03  0.92592901249E+03  0.00000000000E+00 0. -1.
         -6    2    1    2    0  503 -0.68970188657E+02  0.86029487746E+02 -0.47380864043E+03  0.51583983224E+03  0.17157547929E+03 0.  0.
        -24    2    3    3    0    0 -0.28264996257E+02 -0.10809909203E+02 -0.12207317458E+03  0.14872308048E+03  0.79378401113E+02 0.  0.
          6    2    1    2  501    0  0.68970188657E+02 -0.86029487746E+02 -0.40695562587E+03  0.45525392645E+03  0.17171283130E+03 0.  0.
         24    2    5    5    0    0  0.39907239629E+02 -0.53677110771E+02 -0.10828848539E+03  0.15340051483E+03  0.85624189845E+02 0.  0.
          5    1    5    5  501    0  0.29062949028E+02 -0.32352376975E+02 -0.29866714048E+03  0.30185341162E+03  0.47000000000E+01 0. -1.
        -13    1    6    6    0    0 -0.23102102841E+02 -0.32537196081E+02 -0.56367114796E+02  0.69062492823E+02  0.00000000000E+00 0.  1.
         14    1    6    6    0    0  0.63009342471E+02 -0.21139914690E+02 -0.51921370591E+02  0.84338022005E+02  0.00000000000E+00 0. -1.
         -5    1    3    3    0  503 -0.40705192401E+02  0.96839396949E+02 -0.35173546585E+03  0.36711675176E+03  0.47000000000E+01 0.  1.
         11    1    4    4    0    0 -0.52172084020E+02 -0.10105002298E+02 -0.10947279879E+03  0.12168948639E+03  0.00000000000E+00 0. -1.
        -12    1    4    4    0    0  0.23907087764E+02 -0.70490690507E+00 -0.12600375788E+02  0.27033594084E+02  0.00000000000E+00 0.  1.
</event>
<event>
12    1  0.8728348E-002  0.2332792E+03  0.7818608E-02  0.1124817E+00
         21   -1    0    0  501  502  0.00000000000E+00  0.00000000000E+00  0.87526292459E+02  0.87526292459E+02  0.00000000000E+00 0. -1.
         21   -1    0    0  502  503 -0.00000000000E+00 -0.00000000000E+00 -0.62964214372E+03  0.62964214372E+03  0.00000000000E+00 0. -1.
         -6    2    1    2    0  503  0.14332887646E+03 -0.45186323942E+02 -0.21419078577E+03  0.31473329859E+03  0.17491250908E+03 0.  0.
        -24    2    3    3    0    0  0.60544077969E+02  0.22147608565E+01 -0.19192525415E+03  0.21666174511E+03  0.80227913312E+02 0.  0.
          6    2    1    2  501    0 -0.14332887646E+03  0.45186323942E+02 -0.32792506550E+03  0.40243513760E+03  0.17842146926E+03 0.  0.
         24    2    5    5    0    0 -0.66528405244E+02 -0.27532123148E+02 -0.24723121559E+03  0.26931912676E+03  0.78901657590E+02 0.  0.
          5    1    5    5  501    0 -0.76800471221E+02  0.72718447090E+02 -0.80693849909E+02  0.13311601083E+03  0.47000000000E+01 0. -1.
        -11    1    6    6    0    0 -0.12936376459E+02 -0.45284441556E+02 -0.80209082777E+02  0.93013587410E+02  0.00000000000E+00 0.  1.
         12    1    6    6    0    0 -0.53592028784E+02  0.17752318409E+02 -0.16702213281E+03  0.17630553935E+03  0.00000000000E+00 0. -1.
         -5    1    3    3    0  503  0.82784798496E+02 -0.47401084798E+02 -0.22265531623E+02  0.98071553473E+02  0.47000000000E+01 0.  1.
         13    1    4    4    0    0 -0.31290320658E+01 -0.27761783239E+02 -0.35825886698E+02  0.45431284463E+02  0.00000000000E+00 0. -1.
        -14    1    4    4    0    0  0.63673110034E+02  0.29976544095E+02 -0.15609936745E+03  0.17123046065E+03  0.00000000000E+00 0.  1.
</event>
<event>
12    1  0.8728348E-002  0.1779740E+03  0.7818608E-02  0.1170124E+00
         21   -1    0    0  501  502  0.00000000000E+00  0.00000000000E+00  0.73813705240E+03  0.73813705240E+03  0.00000000000E+00 0.  1.
         21   -1    0    0  502  503 -0.00000000000E+00 -0.00000000000E+00 -0.62561352339E+02  0.62561352339E+02  0.00000000000E+00 0.  1.
         -6    2    1    2    0  503 -0.38068251317E+02 -0.28087994319E+02  0.11241026849E+03  0.21050132462E+03  0.17157101160E+03 0.  0.
        -24    2    3    3    0    0 -0.61472956477E+02 -0.52295946702E+02  0.12923714139E+03  0.17256665929E+03  0.81013719614E+02 0.  0.
          6    2    1    2  501    0  0.38068251317E+02  0.28087994319E+02  0.56316543157E+03  0.59019708012E+03  0.17011514595E+03 0.  0.
         24    2    5    5    0    0 -0.88464466372E+01  0.17695585739E+02  0.12585925076E+03  0.15023369890E+03  0.79612938080E+02 0.  0.
          5    1    5    5  501    0  0.46914697955E+02  0.10392408581E+02  0.43730618081E+03  0.43996338122E+03  0.47000000000E+01 0. -1.
        -11    1    6    6    0    0 -0.26934462325E+02  0.13245182764E+01  0.12270596053E+03  0.12563428019E+03  0.00000000000E+00 0.  1.
         12    1    6    6    0    0  0.18088015688E+02  0.16371067462E+02  0.31532902285E+01  0.24599418706E+02  0.00000000000E+00 0. -1.
         -5    1    3    3    0  503  0.23404705160E+02  0.24207952383E+02 -0.16826872897E+02  0.37934665329E+02  0.47000000000E+01 0.  1.
         13    1    4    4    0    0  0.16308677830E+00 -0.13047283735E+02  0.87393955818E+02  0.88362671551E+02  0.00000000000E+00 0. -1.
        -14    1    4    4    0    0 -0.61636043255E+02 -0.39248662967E+02  0.41843185570E+02  0.84203987741E+02  0.00000000000E+00 0.  1.
</event>
<event>
12    1  0.8728348E-002  0.1905078E+03  0.7818608E-02  0.1158590E+00
         21   -1    0    0  501  502  0.00000000000E+00  0.00000000000E+00  0.22407064270E+03  0.22407064270E+03  0.00000000000E+00 0.  1.
         21   -1    0    0  502  503 -0.00000000000E+00 -0.00000000000E+00 -0.28045902444E+03  0.28045902444E+03  0.00000000000E+00 0.  1.
         -6    2    1    2    0  503 -0.63900280996E+02  0.40453567113E+02 -0.19356085829E+03  0.26977550356E+03  0.17202697304E+03 0.  0.
        -24    2    3    3    0    0 -0.49234504083E+02  0.35517017588E+02 -0.31072636360E+02  0.10648445420E+03  0.81779797783E+02 0.  0.
          6    2    1    2  501    0  0.63900280996E+02 -0.40453567113E+02  0.13717247655E+03  0.23475416358E+03  0.17485277233E+03 0.  0.
         24    2    5    5    0    0  0.10536312214E+03 -0.33227794478E+02  0.13503418603E+03  0.19235084682E+03  0.80988536502E+02 0.  0.
          5    1    5    5  501    0 -0.41462841142E+02 -0.72257726356E+01  0.21382905253E+01  0.42403316758E+02  0.47000000000E+01 0. -1.
        -11    1    6    6    0    0  0.10023974360E+03  0.25101606887E+01  0.90996882433E+02  0.13540583339E+03  0.00000000000E+00 0.  1.
         12    1    6    6    0    0  0.51233785409E+01 -0.35737955166E+02  0.44037303594E+02  0.56945013434E+02  0.00000000000E+00 0. -1.
         -5    1    3    3    0  503 -0.14665776912E+02  0.49365495255E+01 -0.16248822193E+03  0.16329104936E+03  0.47000000000E+01 0.  1.
         13    1    4    4    0    0 -0.33553283315E+02  0.53703568979E+02 -0.45947357916E+02  0.78237176852E+02  0.00000000000E+00 0. -1.
        -14    1    4    4    0    0 -0.15681220768E+02 -0.18186551391E+02  0.14874721556E+02  0.28247277349E+02  0.00000000000E+00 0.  1.
</event>
<event>
12    1  0.8728348E-002  0.2770467E+03  0.7818608E-02  0.1097486E+00
         21   -1    0    0  503  502  0.00000000000E+00  0.00000000000E+00  0.30176853489E+03  0.30176853489E+03  0.00000000000E+00 0.  1.
         21   -1    0    0  501  503 -0.00000000000E+00 -0.00000000000E+00 -0.57989802060E+03  0.57989802060E+03  0.00000000000E+00 0. -1.
          6    2    1    2  501    0  0.20482762547E+03  0.72656357473E+02 -0.46980525311E+03  0.54477712276E+03  0.16979939694E+03 0.  0.
         24    2    3    3    0    0  0.22254005632E+03  0.47283285384E+02 -0.38469654079E+03  0.45409578010E+03  0.80322868884E+02 0.  0.
         -6    2    1    2    0  502 -0.20482762547E+03 -0.72656357473E+02  0.19167576740E+03  0.33688943272E+03  0.17181847292E+03 0.  0.
        -24    2    5    5    0    0 -0.73380024355E+02 -0.72914087046E+02  0.13862000879E+03  0.19506016288E+03  0.90176871991E+02 0.  0.
          5    1    3    3  501    0 -0.17712430857E+02  0.25373072089E+02 -0.85108712321E+02  0.90681342663E+02  0.47000000000E+01 0. -1.
        -11    1    4    4    0    0  0.13894660580E+03  0.93527486206E+00 -0.17353884737E+03  0.22231231533E+03  0.00000000000E+00 0.  1.
         12    1    4    4    0    0  0.83593450523E+02  0.46348010522E+02 -0.21115769342E+03  0.23178346477E+03  0.00000000000E+00 0. -1.
         -5    1    5    5    0  502 -0.13144760111E+03  0.25772957295E+00  0.53055758613E+02  0.14182926984E+03  0.47000000000E+01 0.  1.
         13    1    6    6    0    0  0.11710650316E+02  0.76219485619E+01  0.38469418225E+02  0.40928346769E+02  0.00000000000E+00 0. -1.
        -14    1    6    6    0    0 -0.85090674671E+02 -0.80536035608E+02  0.10015059056E+03  0.15413181611E+03  0.00000000000E+00 0.  1.
</event>
<event>
12    1  0.8728348E-002  0.1884692E+03  0.7818608E-02  0.1161380E+00
         21   -1    0    0  501  502  0.00000000000E+00  0.00000000000E+00  0.67882608643E+03  0.67882608643E+03  0.00000000000E+00 0. -1.
         21   -1    0    0  502  503 -0.00000000000E+00 -0.00000000000E+00 -0.31235785288E+03  0.31235785288E+03  0.00000000000E+00 0. -1.
         -6    2    1    2    0  503  0.29716114941E+02 -0.57270674589E+02 -0.26998059699E+03  0.32925697560E+03  0.17708092945E+03 0.  0.
        -24    2    3    3    0    0  0.68373611905E+02  0.42999053726E+01 -0.10805868037E+03  0.15170096903E+03  0.81505003585E+02 0.  0.
          6    2    1    2  501    0 -0.29716114941E+02  0.57270674589E+02  0.63644883054E+03  0.66192696371E+03  0.17005062112E+03 0.  0.
         24    2    5    5    0    0  0.78281758076E+01 -0.26024605474E+02  0.39905972631E+03  0.40751911350E+03  0.78003860617E+02 0.  0.
          5    1    5    5  501    0 -0.37544290748E+02  0.83295280063E+02  0.23738910422E+03  0.25440785022E+03  0.47000000000E+01 0. -1.
        -11    1    6    6    0    0 -0.12904212907E+02  0.46099916036E+01  0.10657815203E+02  0.17359716537E+02  0.00000000000E+00 0.  1.
         12    1    6    6    0    0  0.20732388715E+02 -0.30634597078E+02  0.38840191111E+03  0.39015939696E+03  0.00000000000E+00 0. -1.
         -5    1    3    3    0  503 -0.38657496965E+02 -0.61570579962E+02 -0.16192191662E+03  0.17755600657E+03  0.47000000000E+01 0.  1.
         13    1    4    4    0    0  0.58833747703E+00 -0.12517118264E+01 -0.76863286942E+02  0.76875729609E+02  0.00000000000E+00 0. -1.
        -14    1    4    4    0    0  0.67785274428E+02  0.55516171990E+01 -0.31195393429E+02  0.74825239418E+02  0.00000000000E+00 0.  1.
</event>
<event>
12    1  0.8728348E-002  0.1755534E+03  0.7818608E-02  0.1172532E+00
         21   -1    0    0  503  502  0.00000000000E+00  0.00000000000E+00  0.12302043548E+03  0.12302043548E+03  0.00000000000E+00 0.  1.
         21   -1    0    0  501  503 -0.00000000000E+00 -0.00000000000E+00 -0.33218382098E+03  0.33218382098E+03  0.00000000000E+00 0.  1.
          6    2    1    2  501    0  0.19928464740E+02 -0.39842746583E+02 -0.21913137432E+03  0.28078026063E+03  0.16980697096E+03 0.  0.
         24    2    3    3    0    0  0.51534993755E+02 -0.54079086225E+02 -0.75804709236E+02  0.13324630194E+03  0.80173685771E+02 0.  0.
         -6    2    1    2    0  502 -0.19928464740E+02  0.39842746583E+02  0.99679888185E+01  0.17442399583E+03  0.16834423470E+03 0.  0.
        -24    2    5    5    0    0  0.53486571318E+02  0.12742092989E+02  0.10000264893E+02  0.96025628583E+02  0.78088038788E+02 0.  0.
          5    1    3    3  501    0 -0.31606529016E+02  0.14236339642E+02 -0.14332666508E+03  0.14753395869E+03  0.47000000000E+01 0. -1.
        -13    1    4    4    0    0  0.23041308332E+02  0.67467772596E+01 -0.59449949916E+02  0.64114876886E+02  0.00000000000E+00 0.  1.
         14    1    4    4    0    0  0.28493685423E+02 -0.60825863485E+02 -0.16354759320E+02  0.69131425055E+02  0.00000000000E+00 0. -1.
         -5    1    5    5    0  502 -0.73415036057E+02  0.27100653595E+02 -0.32276074196E-01  0.78398367243E+02  0.47000000000E+01 0.  1.
         13    1    6    6    0    0  0.66156311081E+02 -0.10831500249E+02 -0.11153858335E+01  0.67046424059E+02  0.00000000000E+00 0. -1.
        -14    1    6    6    0    0 -0.12669739763E+02  0.23573593238E+02  0.11115650726E+02  0.28979204525E+02  0.00000000000E+00 0.  1.
</event>
<event>
12    1  0.8728348E-002  0.2103485E+03  0.7818608E-02  0.1141293E+00
         21   -1    0    0  503  502  0.00000000000E+00  0.00000000000E+00  0.39901162819E+03  0.39901162819E+03  0.00000000000E+00 0. -1.
         21   -1    0    0  501  503 -0.00000000000E+00 -0.00000000000E+00 -0.13216332776E+03  0.13216332776E+03  0.00000000000E+00 0. -1.
          6    2    1    2  501    0 -0.98049294333E+02  0.72611819826E+02  0.26858788905E+02  0.21205628244E+03  0.17134856837E+03 0.  0.
         24    2    3    3    0    0 -0.48947797894E+02  0.80942692947E+02  0.73526381384E+02  0.14364345771E+03  0.79244606905E+02 0.  0.
         -6    2    1    2    0  502  0.98049294333E+02 -0.72611819826E+02  0.23998951152E+03  0.31911867350E+03  0.17133482320E+03 0.  0.
        -24    2    5    5    0    0  0.13410105384E+03 -0.77827998354E+02  0.19188240733E+03  0.25859329572E+03  0.77532859991E+02 0.  0.
          5    1    3    3  501    0 -0.49101496440E+02 -0.83308731212E+01 -0.46667592478E+02  0.68412824728E+02  0.47000000000E+01 0. -1.
        -11    1    4    4    0    0  0.12587797166E+02  0.47383900498E+02  0.12228878475E+02  0.50529517439E+02  0.00000000000E+00 0.  1.
         12    1    4    4    0    0 -0.61535595060E+02  0.33558792449E+02  0.61297502909E+02  0.93113940271E+02  0.00000000000E+00 0. -1.
         -5    1    5    5    0  502 -0.36051759510E+02  0.52161785283E+01  0.48107104191E+02  0.60525377783E+02  0.47000000000E+01 0.  1.
         11    1    6    6    0    0  0.11320387485E+03 -0.71887489749E+02  0.19498515293E+03  0.23664770932E+03  0.00000000000E+00 0. -1.
        -12    1    6    6    0    0  0.20897178990E+02 -0.59405086048E+01 -0.31027455956E+01  0.21945586400E+02  0.00000000000E+00 0.  1.
</event>
<event>
12    1  0.8728348E-002  0.1825924E+03  0.7818608E-02  0.1165929E+00
         21   -1    0    0  501  502  0.00000000000E+00  0.00000000000E+00  0.38523892221E+02  0.38523892221E+02  0.00000000000E+00 0. -1.
         21   -1    0    0  502  503 -0.00000000000E+00 -0.00000000000E+00 -0.85348026123E+03  0.85348026123E+03  0.00000000000E+00 0.  1.
         -6    2    1    2    0  503  0.46230789840E+02 -0.16810508049E+02 -0.40514396850E+03  0.44438902719E+03  0.17584110202E+03 0.  0.
        -24    2    3    3    0    0  0.60433540410E+02 -0.71970897152E+02 -0.30462756240E+03  0.32876020489E+03  0.80332419997E+02 0.  0.
          6    2    1    2  501    0 -0.46230789840E+02  0.16810508049E+02 -0.40981240051E+03  0.44761512627E+03  0.17318550327E+03 0.  0.
         24    2    5    5    0    0  0.18474679558E+02  0.37502633115E+02 -0.13012172859E+03  0.15975418107E+03  0.82716218746E+02 0.  0.
          5    1    5    5  501    0 -0.64705469398E+02 -0.20692125066E+02 -0.27969067192E+03  0.28786094520E+03  0.47000000000E+01 0. -1.
        -13    1    6    6    0    0  0.11040329364E+02  0.46455202908E+02 -0.13778265033E+03  0.14582192387E+03  0.00000000000E+00 0.  1.
         14    1    6    6    0    0  0.74343501931E+01 -0.89525697931E+01  0.76609217428E+01  0.13932257198E+02  0.00000000000E+00 0. -1.
         -5    1    3    3    0  503 -0.14202750570E+02  0.55160389103E+02 -0.10051640611E+03  0.11562882230E+03  0.47000000000E+01 0.  1.
         11    1    4    4    0    0  0.13626723307E+02 -0.14950004651E+02 -0.59187408397E+01  0.21076568038E+02  0.00000000000E+00 0. -1.
        -12    1    4    4    0    0  0.46806817104E+02 -0.57020892501E+02 -0.29870882156E+03  0.30768363685E+03  0.00000000000E+00 0.  1.
</event>
<event>
12    1  0.8728348E-002  0.1913765E+03  0.7818608E-02  0.1158636E+00
         21   -1    0    0  503  502  0.00000000000E+00  0.00000000000E+00  0.69424901318E+02  0.69424901318E+02  0.00000000000E+00 0.  1.
         21   -1    0    0  501  503 -0.00000000000E+00 -0.00000000000E+00 -0.20858875455E+04  0.20858875455E+04  0.00000000000E+00 0.  1.
          6    2    1    2  501    0 -0.76797146502E+02 -0.47584886304E+01 -0.19406534727E+04  0.19494678530E+04  0.16842970020E+03 0.  0.
         24    2    3    3    0    0 -0.51048939792E+02 -0.37130744473E+02 -0.63692966280E+03  0.64507956895E+03  0.80396321350E+02 0.  0.
         -6    2    1    2    0  502  0.76797146502E+02  0.47584886304E+01 -0.75809171513E+02  0.20584459383E+03  0.17522705670E+03 0.  0.
        -24    2    5    5    0    0  0.12473985550E+03  0.63012754793E+00 -0.60131435339E+02  0.15501715908E+03  0.69671382091E+02 0.  0.
          5    1    3    3  501    0 -0.25748206710E+02  0.32372255843E+02 -0.13037238099E+04  0.13043882841E+04  0.47000000000E+01 0. -1.
        -13    1    4    4    0    0 -0.68387198268E+02 -0.19899847577E+02 -0.55587127081E+03  0.56041563374E+03  0.00000000000E+00 0.  1.
         14    1    4    4    0    0  0.17338258476E+02 -0.17230896897E+02 -0.81058391984E+02  0.84663935214E+02  0.00000000000E+00 0. -1.
         -5    1    5    5    0  502 -0.47942709002E+02  0.41283610825E+01 -0.15677736174E+02  0.50827434750E+02  0.47000000000E+01 0.  1.
         11    1    6    6    0    0  0.20148076453E+02  0.26790364732E+02 -0.24310104627E+02  0.41408330251E+02  0.00000000000E+00 0. -1.
        -12    1    6    6    0    0  0.10459177905E+03 -0.26160237184E+02 -0.35821330712E+02  0.11360882883E+03  0.00000000000E+00 0.  1.
</event>
<event>
12    1  0.8728348E-002  0.2130608E+03  0.7818608E-02  0.1139548E+00
         21   -1    0    0  501  502  0.00000000000E+00  0.00000000000E+00  0.54603283369E+03  0.54603283369E+03  0.00000000000E+00 0.  1.
         21   -1    0    0  502  503 -0.00000000000E+00 -0.00000000000E+00 -0.12480359271E+03  0.12480359271E+03  0.00000000000E+00 0.  1.
         -6    2    1    2    0  503  0.12209768417E+03 -0.13743934280E+02  0.14396991939E+02  0.21158987903E+03  0.17165740101E+03 0.  0.
        -24    2    3    3    0    0  0.37759877964E+02 -0.16156426157E+02 -0.51325803417E+02  0.10453726812E+03  0.81282617081E+02 0.  0.
          6    2    1    2  501    0 -0.12209768417E+03  0.13743934280E+02  0.40683224905E+03  0.45924654737E+03  0.17406370155E+03 0.  0.
         24    2    5    5    0    0 -0.66734385597E+02  0.21877631210E+02  0.10797675482E+03  0.15516111812E+03  0.86509444722E+02 0.  0.
          5    1    5    5  501    0 -0.55363298575E+02 -0.81336969307E+01  0.29885549422E+03  0.30408542925E+03  0.47000000000E+01 0. -1.
        -11    1    6    6    0    0 -0.59575457218E+02  0.50929420370E+02  0.93245795046E+02  0.12181058762E+03  0.00000000000E+00 0.  1.
         12    1    6    6    0    0 -0.71589283794E+01 -0.29051789160E+02  0.14730959778E+02  0.33350530504E+02  0.00000000000E+00 0. -1.
         -5    1    3    3    0  503  0.84337806209E+02  0.24124918775E+01  0.65722795356E+02  0.10705261091E+03  0.47000000000E+01 0.  1.
         11    1    4    4    0    0  0.31388780769E+02 -0.36783880367E+02  0.53851453447E+00  0.48359067515E+02  0.00000000000E+00 0. -1.
        -12    1    4    4    0    0  0.63710971949E+01  0.20627454210E+02 -0.51864317952E+02  0.56178200605E+02  0.00000000000E+00 0.  1.
</event>
<event>
12    1  0.8728348E-002  0.1837940E+03  0.7818608E-02  0.1164305E+00
         21   -1    0    0  503  502  0.00000000000E+00  0.00000000000E+00  0.65076867047E+02  0.65076867047E+02  0.00000000000E+00 0.  1.
         21   -1    0    0  501  503 -0.00000000000E+00 -0.00000000000E+00 -0.56568239276E+03  0.56568239276E+03  0.00000000000E+00 0.  1.
          6    2    1    2  501    0  0.67429671978E+01  0.63362286388E+02 -0.15868210165E+03  0.24281730362E+03  0.17239485668E+03 0.  0.
         24    2    3    3    0    0  0.17195941080E+02  0.88391492235E+02 -0.49827379413E+02  0.13053566504E+03  0.80299662635E+02 0.  0.
         -6    2    1    2    0  502 -0.67429671978E+01 -0.63362286388E+02 -0.34192342406E+03  0.38794195619E+03  0.17183447415E+03 0.  0.
        -24    2    5    5    0    0  0.17478989970E+02 -0.22316619404E+02 -0.32723878693E+03  0.33785025473E+03  0.79082389683E+02 0.  0.
          5    1    3    3  501    0 -0.10452973882E+02 -0.25029205847E+02 -0.10885472223E+03  0.11228163857E+03  0.47000000000E+01 0. -1.
        -11    1    4    4    0    0  0.39294334545E+02  0.61621208655E+02 -0.59786135681E+02  0.94422455503E+02  0.00000000000E+00 0.  1.
         12    1    4    4    0    0 -0.22098393466E+02  0.26770283580E+02  0.99587562683E+01  0.36113209538E+02  0.00000000000E+00 0. -1.
         -5    1    5    5    0  502 -0.24221957168E+02 -0.41045666984E+02 -0.14684637130E+02  0.50091701457E+02  0.47000000000E+01 0.  1.
         13    1    6    6    0    0 -0.18757845914E+02  0.62162001132E+01 -0.22287448825E+03  0.22374882221E+03  0.00000000000E+00 0. -1.
        -14    1    6    6    0    0  0.36236835884E+02 -0.28532819517E+02 -0.10436429868E+03  0.11410143252E+03  0.00000000000E+00 0.  1.
</event>
<event>
12    1  0.8728348E-002  0.1934582E+03  0.7818608E-02  0.1156062E+00
         21   -1    0    0  501  502  0.00000000000E+00  0.00000000000E+00  0.31791381037E+03  0.31791381037E+03  0.00000000000E+00 0. -1.
         21   -1    0    0  502  503 -0.00000000000E+00 -0.00000000000E+00 -0.13914597936E+04  0.13914597936E+04  0.00000000000E+00 0. -1.
         -6    2    1    2    0  503  0.22948587442E+02  0.82293593752E+02 -0.13554603592E+04  0.13691964309E+04  0.17357190915E+03 0.  0.
        -24    2    3    3    0    0  0.82434086978E+02  0.66627192319E+02 -0.86459012840E+03  0.87446454965E+03  0.77055804547E+02 0.  0.
          6    2    1    2  501    0 -0.22948587442E+02 -0.82293593752E+02  0.28191437602E+03  0.34017717308E+03  0.17013500651E+03 0.  0.
         24    2    5    5    0    0 -0.38051042247E+00 -0.81967842655E+02  0.86091939415E+02  0.14300227383E+03  0.79491862929E+02 0.  0.
          5    1    5    5  501    0 -0.22568077019E+02 -0.32575109686E+00  0.19582243660E+03  0.19717489924E+03  0.47000000000E+01 0. -1.
        -11    1    6    6    0    0  0.31741915495E+02 -0.69742634175E+02  0.74115428608E+02  0.10660525774E+03  0.00000000000E+00 0.  1.
         12    1    6    6    0    0 -0.32122425917E+02 -0.12225208480E+02  0.11976510807E+02  0.36397016091E+02  0.00000000000E+00 0. -1.
         -5    1    3    3    0  503 -0.59485499536E+02  0.15666401432E+02 -0.49087023082E+03  0.49473188122E+03  0.47000000000E+01 0.  1.
         11    1    4    4    0    0 -0.85352755874E+01 -0.92437367257E+01 -0.85279821484E+02  0.86202932377E+02  0.00000000000E+00 0. -1.
        -12    1    4    4    0    0  0.90969362565E+02  0.75870929045E+02 -0.77931030692E+03  0.78826161727E+03  0.00000000000E+00 0.  1.
</event>
<event>
12    1  0.8728348E-002  0.1784486E+03  0.7818608E-02  0.1169794E+00
         21   -1    0    0  501  502  0.00000000000E+00  0.00000000000E+00  0.13962182189E+04  0.13962182189E+04  0.00000000000E+00 0.  1.
         21   -1    0    0  502  503 -0.00000000000E+00 -0.00000000000E+00 -0.29805560146E+02  0.29805560146E+02  0.00000000000E+00 0.  1.
         -6    2    1    2    0  503  0.47789110097E+02 -0.18894633931E+01  0.32878095831E+03  0.37315938492E+03  0.16989302191E+03 0.  0.
        -24    2    3    3    0    0 -0.14798701094E+02  0.50639461430E+02  0.16050745502E+03  0.18603754237E+03  0.77871480301E+02 0.  0.
          6    2    1    2  501    0 -0.47789110097E+02  0.18894633931E+01  0.10376317004E+04  0.10528643941E+04  0.17192009054E+03 0.  0.
         24    2    5    5    0    0  0.18734619874E+02  0.45141059173E+02  0.72143491568E+03  0.72682972743E+03  0.73650620612E+02 0.  0.
          5    1    5    5  501    0 -0.66523729971E+02 -0.43251595780E+02  0.31619678474E+03  0.32603466667E+03  0.47000000000E+01 0. -1.
        -11    1    6    6    0    0 -0.23808396569E+02  0.28611864032E+02  0.45444156889E+03  0.45596339551E+03  0.00000000000E+00 0.  1.
         12    1    6    6    0    0  0.42543016443E+02  0.16529195141E+02  0.26699334679E+03  0.27086633192E+03  0.00000000000E+00 0. -1.
         -5    1    3    3    0  503  0.62587811191E+02 -0.52528924823E+02  0.16827350328E+03  0.18712184255E+03  0.47000000000E+01 0.  1.
         11    1    4    4    0    0  0.14701932526E+02 -0.93281325949E+01  0.77693823126E+02  0.79620920804E+02  0.00000000000E+00 0. -1.
        -12    1    4    4    0    0 -0.29500633620E+02  0.59967594025E+02  0.82813631898E+02  0.10641662156E+03  0.00000000000E+00 0.  1.
</event>
<event>
12    1  0.8728348E-002  0.1748645E+03  0.7818608E-02  0.1173535E+00
         21   -1    0    0  501  502  0.00000000000E+00  0.00000000000E+00  0.47765152707E+02  0.47765152707E+02  0.00000000000E+00 0.  1.
         21   -1    0    0  502  503 -0.00000000000E+00 -0.00000000000E+00 -0.10905387143E+04  0.10905387143E+04  0.00000000000E+00 0.  1.
         -6    2    1    2    0  503  0.52898959525E+01  0.12178597930E+01 -0.88873223616E+03  0.90526671530E+03  0.17214346356E+03 0.  0.
        -24    2    3    3    0    0  0.18982393597E+02  0.34346285570E+02 -0.25077485527E+03  0.26628573990E+03  0.80498873522E+02 0.  0.
          6    2    1    2  501    0 -0.52898959525E+01 -0.12178597930E+01 -0.15404132542E+03  0.23303715170E+03  0.17478019897E+03 0.  0.
         24    2    5    5    0    0 -0.53132592781E+02 -0.39503968889E+02 -0.13337069797E+03  0.16819800744E+03  0.78225255859E+02 0.  0.
          5    1    5    5  501    0  0.47842696828E+02  0.38286109096E+02 -0.20670627443E+02  0.64839144260E+02  0.47000000000E+01 0. -1.
        -13    1    6    6    0    0 -0.68280052468E+02 -0.18313871403E+02 -0.69124684186E+02  0.98872571600E+02  0.00000000000E+00 0.  1.
         14    1    6    6    0    0  0.15147459688E+02 -0.21190097486E+02 -0.64246013788E+02  0.69325435838E+02  0.00000000000E+00 0. -1.
         -5    1    3    3    0  503 -0.13692497645E+02 -0.33128425777E+02 -0.63795738089E+03  0.63898097539E+03  0.47000000000E+01 0.  1.
         11    1    4    4    0    0  0.38066590038E+02 -0.27666933954E-01 -0.56864970112E+02  0.68430189744E+02  0.00000000000E+00 0. -1.
        -12    1    4    4    0    0 -0.19084196441E+02  0.34373952504E+02 -0.19390988516E+03  0.19785555016E+03  0.00000000000E+00 0.  1.
</event>
<event>
12    1  0.8728348E-002  0.2298842E+03  0.7818608E-02  0.1126767E+00
         21   -1    0    0  501  502  0.00000000000E+00  0.00000000000E+00  0.18073909324E+04  0.18073909324E+04  0.00000000000E+00 0. -1.
         21   -1    0    0  502  503 -0.00000000000E+00 -0.00000000000E+00 -0.39297668964E+02  0.39297668964E+02  0.00000000000E+00 0. -1.
         -6    2    1    2    0  503 -0.15171359145E+03 -0.14379154024E+02  0.41651088377E+03  0.47573947889E+03  0.17211322311E+03 0.  0.
        -24    2    3    3    0    0 -0.15231991334E+03  0.24258449644E+02  0.24913946732E+03  0.30390085375E+03  0.80594207957E+02 0.  0.
          6    2    1    2  501    0  0.15171359145E+03  0.14379154024E+02  0.13515823797E+04  0.13709491225E+04  0.17176377238E+03 0.  0.
         24    2    5    5    0    0  0.77383216847E+02  0.63915861441E+01  0.36932233845E+03  0.38583710632E+03  0.80263742160E+02 0.  0.
          5    1    5    5  501    0  0.74330374603E+02  0.79875678802E+01  0.98226004121E+03  0.98511201616E+03  0.47000000000E+01 0. -1.
        -11    1    6    6    0    0  0.72678429217E+01 -0.30545443801E+02  0.12984970369E+03  0.13359188308E+03  0.00000000000E+00 0.  1.
         12    1    6    6    0    0  0.70115373925E+02  0.36937029945E+02  0.23947263477E+03  0.25224522323E+03  0.00000000000E+00 0. -1.
         -5    1    3    3    0  503  0.60632188620E+00 -0.38637603668E+02  0.16737141645E+03  0.17183862514E+03  0.47000000000E+01 0.  1.
         13    1    4    4    0    0 -0.91326923361E+02  0.14475446096E+02  0.21330998344E+03  0.23248934277E+03  0.00000000000E+00 0. -1.
        -14    1    4    4    0    0 -0.60992989975E+02  0.97830035480E+01  0.35829483884E+02  0.71411510977E+02  0.00000000000E+00 0.  1.
</event>
<event>
12    1  0.8728348E-002  0.2395625E+03  0.7818608E-02  0.1120183E+00
         21   -1    0    0  503  502  0.00000000000E+00  0.00000000000E+00  0.97485696893E+03  0.97485696893E+03  0.00000000000E+00 0. -1.
         21   -1    0    0  501  503 -0.00000000000E+00 -0.00000000000E+00 -0.74058468455E+02  0.74058468455E+02  0.00000000000E+00 0.  1.
          6    2    1    2  501    0  0.12731925840E+03 -0.10634200933E+03  0.21132545233E+03  0.31900907581E+03  0.17201606651E+03 0.  0.
         24    2    3    3    0    0  0.33433548740E+02 -0.76980858211E+02  0.37597341127E+02  0.11930892484E+03  0.76007925737E+02 0.  0.
         -6    2    1    2    0  502 -0.12731925840E+03  0.10634200933E+03  0.68947304814E+03  0.72990636157E+03  0.17283343439E+03 0.  0.
        -24    2    5    5    0    0 -0.13154291372E+03  0.58767360835E+02  0.34712394647E+03  0.38420969706E+03  0.79780425221E+02 0.  0.
          5    1    3    3  501    0  0.93885709664E+02 -0.29361151119E+02  0.17372811121E+03  0.19970015097E+03  0.47000000000E+01 0. -1.
        -13    1    4    4    0    0  0.53893212455E+02 -0.54508396952E+02  0.43810577241E+02  0.88289355899E+02  0.00000000000E+00 0.  1.
         14    1    4    4    0    0 -0.20459663715E+02 -0.22472461259E+02 -0.62132361137E+01  0.31019568942E+02  0.00000000000E+00 0. -1.
         -5    1    5    5    0  502  0.42236553211E+01  0.47574648495E+02  0.34234910167E+03  0.34569666451E+03  0.47000000000E+01 0.  1.
         13    1    6    6    0    0 -0.61508178740E+02  0.13274107921E+02  0.24147579393E+03  0.24953961018E+03  0.00000000000E+00 0. -1.
        -14    1    6    6    0    0 -0.70034734984E+02  0.45493252914E+02  0.10564815254E+03  0.13467008688E+03  0.00000000000E+00 0.  1.
</event>
<event>
12    1  0.8728348E-002  0.1734885E+03  0.7818608E-02  0.1174822E+00
         21   -1    0    0  503  502  0.00000000000E+00  0.00000000000E+00  0.54474462426E+03  0.54474462426E+03  0.00000000000E+00 0. -1.
         21   -1    0    0  501  503 -0.00000000000E+00 -0.00000000000E+00 -0.86881723798E+02  0.86881723798E+02  0.00000000000E+00 0. -1.
          6    2    1    2  501    0  0.45813931467E+01 -0.53951483882E+01  0.35364033965E+02  0.17489496876E+03  0.17113602312E+03 0.  0.
         24    2    3    3    0    0 -0.62287114073E+02  0.66871278726E+01  0.82608228648E+01  0.10158703802E+03  0.79544219407E+02 0.  0.
         -6    2    1    2    0  502 -0.45813931467E+01  0.53951483882E+01  0.42249886649E+03  0.45673137929E+03  0.17334406207E+03 0.  0.
        -24    2    5    5    0    0 -0.23737278874E+02  0.46294092849E+02  0.13318435216E+03  0.16387535696E+03  0.80065345288E+02 0.  0.
          5    1    3    3  501    0  0.66868507219E+02 -0.12082276261E+02  0.27103211100E+02  0.73307930740E+02  0.47000000000E+01 0. -1.
        -11    1    4    4    0    0  0.17291252885E+02 -0.98792171563E+01  0.33742772921E+00  0.19917334546E+02  0.00000000000E+00 0.  1.
         12    1    4    4    0    0 -0.79578366958E+02  0.16566345029E+02  0.79233951356E+01  0.81669703475E+02  0.00000000000E+00 0. -1.
         -5    1    5    5    0  502  0.19155885727E+02 -0.40898944461E+02  0.28931451433E+03  0.29285602233E+03  0.47000000000E+01 0.  1.
         13    1    6    6    0    0 -0.17375699120E+02 -0.13420578634E+02  0.82254708363E+02  0.85134387287E+02  0.00000000000E+00 0. -1.
        -14    1    6    6    0    0 -0.63615797533E+01  0.59714671482E+02  0.50929643799E+02  0.78740969671E+02  0.00000000000E+00 0.  1.
</event>
<event>
12    1  0.8728348E-002  0.2174154E+03  0.7818608E-02  0.1135970E+00
         21   -1    0    0  501  502  0.00000000000E+00  0.00000000000E+00  0.97414010542E+02  0.97414010542E+02  0.00000000000E+00 0. -1.
         21   -1    0    0  502  503 -0.00000000000E+00 -0.00000000000E+00 -0.48727230922E+03  0.48727230922E+03  0.00000000000E+00 0. -1.
         -6    2    1    2    0  503 -0.32828037496E+02  0.12747093830E+03 -0.16897200611E+03  0.27475047233E+03  0.17207487626E+03 0.  0.
        -24    2    3    3    0    0  0.24373655412E+02  0.13415470282E+03 -0.10826234539E+03  0.19093842496E+03  0.78391245255E+02 0.  0.
          6    2    1    2  501    0  0.32828037496E+02 -0.12747093830E+03 -0.22088629257E+03  0.30993584743E+03  0.17304032801E+03 0.  0.
         24    2    5    5    0    0  0.57560905269E+02 -0.14847855030E+03 -0.20452307273E+03  0.27329052748E+03  0.86596116659E+02 0.  0.
          5    1    5    5  501    0 -0.24732867774E+02  0.21007611997E+02 -0.16363219845E+02  0.36645319944E+02  0.47000000000E+01 0. -1.
        -11    1    6    6    0    0  0.42638702669E+02 -0.36387268480E+02 -0.25587095872E+02  0.61618112174E+02  0.00000000000E+00 0.  1.
         12    1    6    6    0    0  0.14922202601E+02 -0.11209128182E+03 -0.17893597685E+03  0.21167241531E+03  0.00000000000E+00 0. -1.
         -5    1    3    3    0  503 -0.57201692908E+02 -0.66837645135E+01 -0.60709660718E+02  0.83812047368E+02  0.47000000000E+01 0.  1.
         13    1    4    4    0    0  0.29375663415E+02  0.98627858953E+02 -0.33858700121E+02  0.10833649310E+03  0.00000000000E+00 0. -1.
        -14    1    4    4    0    0 -0.50020080032E+01  0.35526843864E+02 -0.74403645268E+02  0.82601931867E+02  0.00000000000E+00 0.  1.
</event>
<event>
12    1  0.8728348E-002  0.1759582E+03  0.7818608E-02  0.1173688E+00
         21   -1    0    0  501  502  0.00000000000E+00  0.00000000000E+00  0.58131526255E+02  0.58131526255E+02  0.00000000000E+00 0. -1.
         21   -1    0    0  502  503 -0.00000000000E+00 -0.00000000000E+00 -0.12015916593E+04  0.12015916593E+04  0.00000000000E+00 0. -1.
         -6    2    1    2    0  503 -0.28862387421E+02  0.23745891777E+02 -0.10441964157E+04  0.10576970097E+04  0.16425560854E+03 0.  0.
        -24    2    3    3    0    0 -0.48320161266E+02  0.33493196590E+02 -0.37215833907E+03  0.38529022702E+03  0.80561141382E+02 0.  0.
          6    2    1    2  501    0  0.28862387421E+02 -0.23745891777E+02 -0.99263717371E+02  0.20202617590E+03  0.17194297130E+03 0.  0.
         24    2    5    5    0    0  0.27419338658E+02  0.20716435570E+02  0.53684947578E+01  0.88232631455E+02  0.81087518660E+02 0.  0.
          5    1    5    5  501    0  0.14430487630E+01 -0.44462327347E+02 -0.10463221213E+03  0.11379354445E+03  0.47000000000E+01 0. -1.
        -13    1    6    6    0    0  0.29804115945E+02  0.78561847264E+01 -0.34506246575E+02  0.46267548221E+02  0.00000000000E+00 0.  1.
         14    1    6    6    0    0 -0.23847772866E+01  0.12860250843E+02  0.39874741333E+02  0.41965083234E+02  0.00000000000E+00 0. -1.
         -5    1    3    3    0  503  0.19457773845E+02 -0.97473048133E+01 -0.67203807663E+03  0.67240678265E+03  0.47000000000E+01 0.  1.
         13    1    4    4    0    0  0.17310650114E+02  0.59233782199E+01 -0.16966324031E+03  0.17064688725E+03  0.00000000000E+00 0. -1.
        -14    1    4    4    0    0 -0.65630811380E+02  0.27569818370E+02 -0.20249509876E+03  0.21464333977E+03  0.00000000000E+00 0.  1.
</event>
<event>
12    1  0.8728348E-002  0.1732832E+03  0.7818608E-02  0.1174614E+00
         21   -1    0    0  501  502  0.00000000000E+00  0.00000000000E+00  0.13352450312E+03  0.13352450312E+03  0.00000000000E+00 0.  1.
         21   -1    0    0  502  503 -0.00000000000E+00 -0.00000000000E+00 -0.23550722263E+03  0.23550722263E+03  0.00000000000E+00 0. -1.
         -6    2    1    2    0  503  0.99556378281E+01 -0.29365073413E+02 -0.10359191212E+02  0.17301661573E+03  0.16990001240E+03 0.  0.
        -24    2    3    3    0    0 -0.55612884240E+02 -0.31446944414E+02  0.91844015179E+01  0.10440461030E+03  0.82062574985E+02 0.  0.
          6    2    1    2  501    0 -0.99556378281E+01  0.29365073413E+02 -0.91623528301E+02  0.19601511002E+03  0.17048645153E+03 0.  0.
         24    2    5    5    0    0  0.22290160682E+02 -0.22269543276E+02 -0.12935693350E+02  0.96416964795E+02  0.90200416390E+02 0.  0.
          5    1    5    5  501    0 -0.32245798510E+02  0.51634616688E+02 -0.78687834951E+02  0.99598145221E+02  0.47000000000E+01 0. -1.
        -13    1    6    6    0    0  0.50197520693E+02  0.81628417519E+01  0.55847318125E+01  0.51162606448E+02  0.00000000000E+00 0.  1.
         14    1    6    6    0    0 -0.27907360010E+02 -0.30432385027E+02 -0.18520425162E+02  0.45254358347E+02  0.00000000000E+00 0. -1.
         -5    1    3    3    0  503  0.65568522068E+02  0.20818710013E+01 -0.19543592730E+02  0.68612005435E+02  0.47000000000E+01 0.  1.
         11    1    4    4    0    0 -0.22443227736E+02 -0.23901198623E+02 -0.35448558810E+02  0.48286292967E+02  0.00000000000E+00 0. -1.
        -12    1    4    4    0    0 -0.33169656503E+02 -0.75457457909E+01  0.44632960328E+02  0.56118317328E+02  0.00000000000E+00 0.  1.
</event>
<event>
12    1  0.8728348E-002  0.2174748E+03  0.7818608E-02  0.1135874E+00
         21   -1    0    0  501  502  0.00000000000E+00  0.00000000000E+00  0.34763808766E+03  0.34763808766E+03  0.00000000000E+00 0.  1.
         21   -1    0    0  502  503 -0.00000000000E+00 -0.00000000000E+00 -0.39596772283E+03  0.39596772283E+03  0.00000000000E+00 0. -1.
         -6    2    1    2    0  503 -0.81215659660E+02 -0.10731519717E+03 -0.32558723279E+03  0.39153841051E+03  0.17082958126E+03 0.  0.
        -24    2    3    3    0    0 -0.55588944827E+01 -0.47064320500E+02 -0.66563084718E+02  0.11500683268E+03  0.80931920423E+02 0.  0.
          6    2    1    2  501    0  0.81215659660E+02  0.10731519717E+03  0.27725759762E+03  0.35206739998E+03  0.17019736713E+03 0.  0.
         24    2    5    5    0    0  0.12036995094E+03  0.73238559399E+02  0.18479638460E+03  0.24592861499E+03  0.80488311179E+02 0.  0.
          5    1    5    5  501    0 -0.39154291285E+02  0.34076637770E+02  0.92461213016E+02  0.10613878499E+03  0.47000000000E+01 0. -1.
        -13    1    6    6    0    0  0.25602429789E+02 -0.10829936725E+02  0.68636019596E+02  0.74051840804E+02  0.00000000000E+00 0.  1.
         14    1    6    6    0    0  0.94767521155E+02  0.84068496124E+02  0.11616036500E+03  0.17187677418E+03  0.00000000000E+00 0. -1.
         -5    1    3    3    0  503 -0.75656765177E+02 -0.60250876669E+02 -0.25902414807E+03  0.27653157783E+03  0.47000000000E+01 0.  1.
         11    1    4    4    0    0 -0.25902756500E+02 -0.43465256001E+02 -0.76784564227E+02  0.91956786466E+02  0.00000000000E+00 0. -1.
        -12    1    4    4    0    0  0.20343862017E+02 -0.35990644990E+01  0.10221479509E+02  0.23050046212E+02  0.00000000000E+00 0.  1.
</event>
<event>
12    1  0.8728348E-002  0.1788404E+03  0.7818608E-02  0.1168985E+00
         21   -1    0    0  501  502  0.00000000000E+00  0.00000000000E+00  0.11249362084E+03  0.11249362084E+03  0.00000000000E+00 0.  1.
         21   -1    0    0  502  503 -0.00000000000E+00 -0.00000000000E+00 -0.68250782046E+03  0.68250782046E+03  0.00000000000E+00 0.  1.
         -6    2    1    2    0  503 -0.48552513281E+02  0.14272623553E+01 -0.58868833427E+03  0.61518875782E+03  0.17188330115E+03 0.  0.
        -24    2    3    3    0    0 -0.18867366213E+02  0.66626941890E+02 -0.29705551203E+03  0.31484895164E+03  0.78056122287E+02 0.  0.
          6    2    1    2  501    0  0.48552513281E+02 -0.14272623553E+01  0.18674134652E+02  0.17981268349E+03  0.17211767549E+03 0.  0.
         24    2    5    5    0    0  0.63119686544E+02 -0.58843913657E+02  0.18958396715E+02  0.12039008519E+03  0.81778058194E+02 0.  0.
          5    1    5    5  501    0 -0.14567173263E+02  0.57416651302E+02 -0.28426206354E+00  0.59422598299E+02  0.47000000000E+01 0. -1.
        -11    1    6    6    0    0  0.33711257353E+02  0.16053798600E+02  0.13633052249E+02  0.39749634406E+02  0.00000000000E+00 0.  1.
         12    1    6    6    0    0  0.29408429191E+02 -0.74897712257E+02  0.53253444667E+01  0.80640450784E+02  0.00000000000E+00 0. -1.
         -5    1    3    3    0  503 -0.29685147068E+02 -0.65199679535E+02 -0.29163282224E+03  0.30033980618E+03  0.47000000000E+01 0.  1.
         11    1    4    4    0    0  0.96378728649E+01 -0.35015720414E+01 -0.22750067566E+01  0.10503583001E+02  0.00000000000E+00 0. -1.
        -12    1    4    4    0    0 -0.28505239078E+02  0.70128513932E+02 -0.29478050528E+03  0.30434536864E+03  0.00000000000E+00 0.  1.
</event>
<event>
12    1  0.8728348E-002  0.2190982E+03  0.7818608E-02  0.1135436E+00
         21   -1    0    0  501  502  0.00000000000E+00  0.00000000000E+00  0.40205529692E+03  0.40205529692E+03  0.00000000000E+00 0.  1.
         21   -1    0    0  502  503 -0.00000000000E+00 -0.00000000000E+00 -0.18216813330E+03  0.18216813330E+03  0.00000000000E+00 0.  1.
         -6    2    1    2    0  503 -0.86951540190E+02  0.97950024114E+02 -0.65675108567E+02  0.22429311922E+03  0.16982168849E+03 0.  0.
        -24    2    3    3    0    0 -0.36793002956E+02  0.12140488232E+03 -0.16903703262E+02  0.15035565101E+03  0.78919047699E+02 0.  0.
          6    2    1    2  501    0  0.86951540190E+02 -0.97950024114E+02  0.28556227219E+03  0.35993031100E+03  0.17563951695E+03 0.  0.
         24    2    5    5    0    0  0.11917192563E+03 -0.94071944079E+02  0.27680274719E+03  0.32598900841E+03  0.81225576221E+02 0.  0.
          5    1    5    5  501    0 -0.32220385444E+02 -0.38780800347E+01  0.87595249980E+01  0.33941302584E+02  0.47000000000E+01 0. -1.
        -11    1    6    6    0    0  0.43013939453E+02  0.85240794062E+01  0.82692866271E+02  0.93600048339E+02  0.00000000000E+00 0.  1.
         12    1    6    6    0    0  0.76157986181E+02 -0.10259602349E+03  0.19410988092E+03  0.23238896007E+03  0.00000000000E+00 0. -1.
         -5    1    3    3    0  503 -0.50158537234E+02 -0.23454858201E+02 -0.48771405305E+02  0.73937468215E+02  0.47000000000E+01 0.  1.
         13    1    4    4    0    0 -0.52420650887E+02  0.64393287882E+02  0.13104809140E+02  0.84060431752E+02  0.00000000000E+00 0. -1.
        -14    1    4    4    0    0  0.15627647931E+02  0.57011594433E+02 -0.30008512402E+02  0.66295219257E+02  0.00000000000E+00 0.  1.
</event>
<event>
12    1  0.8728348E-002  0.2058701E+03  0.7818608E-02  0.1144971E+00
         21   -1    0    0  501  502  0.00000000000E+00  0.00000000000E+00  0.37328799423E+03  0.37328799423E+03  0.00000000000E+00 0.  1.
         21   -1    0    0  502  503 -0.00000000000E+00 -0.00000000000E+00 -0.39240742456E+03  0.39240742456E+03  0.00000000000E+00 0. -1.
         -6    2    1    2    0  503 -0.18205872800E+02 -0.11129424876E+03 -0.33245087054E+03  0.39103204618E+03  0.17223419001E+03 0.  0.
        -24    2    3    3    0    0  0.99237733716E+01 -0.38149489947E+02 -0.55953203739E+02  0.10360469453E+03  0.77777290118E+02 0.  0.
          6    2    1    2  501    0  0.18205872800E+02  0.11129424876E+03  0.31333144021E+03  0.37466337261E+03  0.17169213068E+03 0.  0.
         24    2    5    5    0    0  0.58569964968E+01  0.15047804505E+02  0.23858645641E+03  0.25208778213E+03  0.79774757225E+02 0.  0.
          5    1    5    5  501    0  0.12348876303E+02  0.96246444251E+02  0.74744983801E+02  0.12257559048E+03  0.47000000000E+01 0. -1.
        -11    1    6    6    0    0 -0.29694314639E+02  0.27869708662E+02  0.90252981047E+02  0.99015521868E+02  0.00000000000E+00 0.  1.
         12    1    6    6    0    0  0.35551311136E+02 -0.12821904157E+02  0.14833347536E+03  0.15307226027E+03  0.00000000000E+00 0. -1.
         -5    1    3    3    0  503 -0.28129646171E+02 -0.73144758809E+02 -0.27649766680E+03  0.28742735165E+03  0.47000000000E+01 0.  1.
         11    1    4    4    0    0  0.56723834925E+01  0.12138439811E+02 -0.51188505108E+02  0.52912954092E+02  0.00000000000E+00 0. -1.
        -12    1    4    4    0    0  0.42513898791E+01 -0.50287929759E+02 -0.47646986317E+01  0.50691740435E+02  0.00000000000E+00 0.  1.
</event>
<event>
12    1  0.8728348E-002  0.2385912E+03  0.7818608E-02  0.1120837E+00
         21   -1    0    0  503  502  0.00000000000E+00  0.00000000000E+00  0.66760015754E+03  0.66760015754E+03  0.00000000000E+00 0.  1.
         21   -1    0    0  501  503 -0.00000000000E+00 -0.00000000000E+00 -0.86018799735E+02  0.86018799735E+02  0.00000000000E+00 0.  1.
          6    2    1    2  501    0  0.16482042263E+03 -0.15041165230E+02  0.33038725242E+03  0.40717378985E+03  0.17100511750E+03 0.  0.
         24    2    3    3    0    0  0.18701142233E+03  0.75872757131E+01  0.30371930994E+03  0.36548738963E+03  0.79402606477E+02 0.  0.
         -6    2    1    2    0  502 -0.16482042263E+03  0.15041165230E+02  0.25119410539E+03  0.34644516743E+03  0.17185391204E+03 0.  0.
        -24    2    5    5    0    0 -0.17858292315E+02  0.20377943574E+02  0.55832437351E+02  0.10187489064E+03  0.80790179435E+02 0.  0.
          5    1    3    3  501    0 -0.22190999698E+02 -0.22628440943E+02  0.26667942481E+02  0.41686400220E+02  0.47000000000E+01 0. -1.
        -13    1    4    4    0    0  0.17398319810E+03 -0.63204481714E+01  0.29877693923E+03  0.34580017453E+03  0.00000000000E+00 0.  1.
         14    1    4    4    0    0  0.13028224231E+02  0.13907723885E+02  0.49423707015E+01  0.19687215100E+02  0.00000000000E+00 0. -1.
         -5    1    5    5    0  502 -0.14696213032E+03 -0.53367783449E+01  0.19536166804E+03  0.24457027679E+03  0.47000000000E+01 0.  1.
         13    1    6    6    0    0  0.24445638998E+02  0.31014836987E+02  0.37826107664E+02  0.54683853196E+02  0.00000000000E+00 0. -1.
        -14    1    6    6    0    0 -0.42303931314E+02 -0.10636893412E+02  0.18006329687E+02  0.47191037442E+02  0.00000000000E+00 0.  1.
</event>
<event>
12    1  0.8728348E-002  0.1819629E+03  0.7818608E-02  0.1165998E+00
         21   -1    0    0  503  502  0.00000000000E+00  0.00000000000E+00  0.23397352782E+03  0.23397352782E+03  0.00000000000E+00 0. -1.
         21   -1    0    0  501  503 -0.00000000000E+00 -0.00000000000E+00 -0.21649949990E+03  0.21649949990E+03  0.00000000000E+00 0. -1.
          6    2    1    2  501    0 -0.39205655781E+02 -0.45085086196E+02  0.14152177261E+03  0.23024964408E+03  0.17151308414E+03 0.  0.
         24    2    3    3    0    0 -0.40374361792E+01  0.24884003958E+02  0.12446911880E+03  0.14996664308E+03  0.79761632116E+02 0.  0.
         -6    2    1    2    0  502  0.39205655781E+02  0.45085086196E+02 -0.12404774469E+03  0.22022338364E+03  0.17187421940E+03 0.  0.
        -24    2    5    5    0    0 -0.28109490678E+02  0.21238732718E+02 -0.12803833759E+02  0.87946117124E+02  0.79557238040E+02 0.  0.
          5    1    3    3  501    0 -0.35168219602E+02 -0.69969090154E+02  0.17052653808E+02  0.80283000996E+02  0.47000000000E+01 0. -1.
        -11    1    4    4    0    0 -0.34497116658E+02  0.33189073349E+02  0.50715574940E+02  0.69739767629E+02  0.00000000000E+00 0.  1.
         12    1    4    4    0    0  0.30459680479E+02 -0.83050693909E+01  0.73753543865E+02  0.80226875454E+02  0.00000000000E+00 0. -1.
         -5    1    5    5    0  502  0.67315146459E+02  0.23846353478E+02 -0.11124391093E+03  0.13227726652E+03  0.47000000000E+01 0.  1.
         11    1    6    6    0    0 -0.31922899972E+02  0.14104465656E+02 -0.43747258162E+02  0.55962756282E+02  0.00000000000E+00 0. -1.
        -12    1    6    6    0    0  0.38134092936E+01  0.71342670622E+01  0.30943424403E+02  0.31983360841E+02  0.00000000000E+00 0.  1.
</event>
<event>
12    1  0.8728348E-002  0.1779002E+03  0.7818608E-02  0.1169908E+00
         21   -1    0    0  503  502  0.00000000000E+00  0.00000000000E+00  0.69357433704E+02  0.69357433704E+02  0.00000000000E+00 0.  1.
         21   -1    0    0  501  503 -0.00000000000E+00 -0.00000000000E+00 -0.56890566301E+03  0.56890566301E+03  0.00000000000E+00 0.  1.
          6    2    1    2  501    0 -0.10768567922E+02  0.43872543871E+02 -0.10755513385E+03  0.20788599586E+03  0.17206893472E+03 0.  0.
         24    2    3    3    0    0 -0.71536530064E+02  0.24706028456E+02 -0.43092903594E+02  0.11712493777E+03  0.78315960895E+02 0.  0.
         -6    2    1    2    0  502  0.10768567922E+02 -0.43872543871E+02 -0.39199309545E+03  0.43037710085E+03  0.17182869346E+03 0.  0.
        -24    2    5    5    0    0  0.16810599175E+02  0.37683752806E+02 -0.15463725039E+03  0.17928384556E+03  0.80792057777E+02 0.  0.
          5    1    3    3  501    0  0.60767962142E+02  0.19166515415E+02 -0.64462230259E+02  0.90761058093E+02  0.47000000000E+01 0. -1.
        -13    1    4    4    0    0  0.51186773761E+01 -0.18555141626E+02 -0.15998856832E+02  0.25029134200E+02  0.00000000000E+00 0.  1.
         14    1    4    4    0    0 -0.76655207440E+02  0.43261170083E+02 -0.27094046762E+02  0.92095803566E+02  0.00000000000E+00 0. -1.
         -5    1    5    5    0  502 -0.60420312538E+01 -0.81556296678E+02 -0.23735584506E+03  0.25109325530E+03  0.47000000000E+01 0.  1.
         11    1    6    6    0    0  0.35822176897E+02 -0.10337831250E+02 -0.82801238118E+02  0.90808282367E+02  0.00000000000E+00 0. -1.
        -12    1    6    6    0    0 -0.19011577722E+02  0.48021584057E+02 -0.71836012269E+02  0.88475563189E+02  0.00000000000E+00 0.  1.
</event>
<event>
12    1  0.8728348E-002  0.2532473E+03  0.7818608E-02  0.1111509E+00
         21   -1    0    0  503  502  0.00000000000E+00  0.00000000000E+00  0.19154383899E+03  0.19154383899E+03  0.00000000000E+00 0. -1.
         21   -1    0    0  501  503 -0.00000000000E+00 -0.00000000000E+00 -0.35462089700E+03  0.35462089700E+03  0.00000000000E+00 0.  1.
          6    2    1    2  501    0  0.16759172307E+03  0.81840746889E+02 -0.14904332676E+03  0.29252889025E+03  0.16903947730E+03 0.  0.
         24    2    3    3    0    0  0.62586235334E+02  0.10885433863E+03 -0.76352418849E+02  0.16190751112E+03  0.67956209428E+02 0.  0.
         -6    2    1    2    0  502 -0.16759172307E+03 -0.81840746889E+02 -0.14033731243E+02  0.25363584574E+03  0.17131638316E+03 0.  0.
        -24    2    5    5    0    0 -0.10624958366E+03 -0.96861291527E+02 -0.60212845540E+02  0.17525807194E+03  0.80116921984E+02 0.  0.
          5    1    3    3  501    0  0.10500548774E+03 -0.27013591741E+02 -0.72690907916E+02  0.13062137913E+03  0.47000000000E+01 0. -1.
        -11    1    4    4    0    0  0.18858981074E+02  0.56991120673E+02 -0.72266798884E+02  0.93947534420E+02  0.00000000000E+00 0.  1.
         12    1    4    4    0    0  0.43727254260E+02  0.51863217957E+02 -0.40856199648E+01  0.67959976695E+02  0.00000000000E+00 0. -1.
         -5    1    5    5    0  502 -0.61342139404E+02  0.15020544638E+02  0.46179114297E+02  0.78377773796E+02  0.47000000000E+01 0.  1.
         11    1    6    6    0    0 -0.63065464173E+02 -0.26116776604E+02  0.69039725806E+01  0.68607606204E+02  0.00000000000E+00 0. -1.
        -12    1    6    6    0    0 -0.43184119491E+02 -0.70744514923E+02 -0.67116818120E+02  0.10665046574E+03  0.00000000000E+00 0.  1.
</event>
<event>
12    1  0.8728348E-002  0.2137636E+03  0.7818608E-02  0.1138832E+00
         21   -1    0    0  501  502  0.00000000000E+00  0.00000000000E+00  0.61894315881E+03  0.61894315881E+03  0.00000000000E+00 0.  1.
         21   -1    0    0  502  503 -0.00000000000E+00 -0.00000000000E+00 -0.76989728899E+02  0.76989728899E+02  0.00000000000E+00 0. -1.
         -6    2    1    2    0  503 -0.10406323793E+03 -0.70943389856E+02  0.19702979854E+03  0.29071571221E+03  0.17272163084E+03 0.  0.
        -24    2    3    3    0    0 -0.20782887025E+02 -0.89481623384E+02  0.15090663989E+03  0.19361412256E+03  0.79213162884E+02 0.  0.
          6    2    1    2  501    0  0.10406323793E+03  0.70943389856E+02  0.34492363138E+03  0.40521717551E+03  0.17136664141E+03 0.  0.
         24    2    5    5    0    0  0.11601622265E+03  0.10223222813E+03  0.31586644178E+03  0.36062709239E+03  0.79806630927E+02 0.  0.
          5    1    5    5  501    0 -0.11952984721E+02 -0.31288838278E+02  0.29057189602E+02  0.44590083114E+02  0.47000000000E+01 0. -1.
        -13    1    6    6    0    0  0.87878605374E+01 -0.16303315452E+01  0.86489120614E+02  0.86949712239E+02  0.00000000000E+00 0.  1.
         14    1    6    6    0    0  0.10722836211E+03  0.10386255968E+03  0.22937732116E+03  0.27367738015E+03  0.00000000000E+00 0. -1.
         -5    1    3    3    0  503 -0.83280350903E+02  0.18538233527E+02  0.46123158645E+02  0.97101589648E+02  0.47000000000E+01 0.  1.
         11    1    4    4    0    0 -0.11384422700E+01  0.86669363938E+01 -0.36527047523E+01  0.94738634814E+01  0.00000000000E+00 0. -1.
        -12    1    4    4    0    0 -0.19644444755E+02 -0.98148559777E+02  0.15455934465E+03  0.18414025908E+03  0.00000000000E+00 0.  1.
</event>
<event>
12    1  0.8728348E-002  0.1861748E+03  0.7818608E-02  0.1162457E+00
         21   -1    0    0  503  502  0.00000000000E+00  0.00000000000E+00  0.15874666151E+04  0.15874666151E+04  0.00000000000E+00 0. -1.
         21   -1    0    0  501  503 -0.00000000000E+00 -0.00000000000E+00 -0.36985678618E+02  0.36985678618E+02  0.00000000000E+00 0. -1.
          6    2    1    2  501    0  0.17619927802E+02  0.64217455129E+02  0.24847340836E+03  0.30920149193E+03  0.17155810838E+03 0.  0.
         24    2    3    3    0    0  0.19646791531E+02  0.88752704275E+02  0.96882696880E+02  0.15555280031E+03  0.80915868638E+02 0.  0.
         -6    2    1    2    0  502 -0.17619927802E+02 -0.64217455129E+02  0.13020075282E+04  0.13152508018E+04  0.17385834730E+03 0.  0.
        -24    2    5    5    0    0 -0.65205521223E+02 -0.81225352877E+02  0.10501162238E+04  0.10582975444E+04  0.80001819132E+02 0.  0.
          5    1    3    3  501    0 -0.20268637290E+01 -0.24535249146E+02  0.15159071148E+03  0.15364869162E+03  0.47000000000E+01 0. -1.
        -11    1    4    4    0    0  0.45151105758E+02  0.26682378296E+02  0.57145696907E+02  0.77564182054E+02  0.00000000000E+00 0.  1.
         12    1    4    4    0    0 -0.25504314227E+02  0.62070325979E+02  0.39736999973E+02  0.77988618261E+02  0.00000000000E+00 0. -1.
         -5    1    5    5    0  502  0.47585593421E+02  0.17007897747E+02  0.25189130437E+03  0.25695325743E+03  0.47000000000E+01 0.  1.
         13    1    6    6    0    0 -0.16615988592E+02  0.10195439364E+02  0.35272908918E+03  0.35326738940E+03  0.00000000000E+00 0. -1.
        -14    1    6    6    0    0 -0.48589532631E+02 -0.91420792241E+02  0.69738713462E+03  0.70503015500E+03  0.00000000000E+00 0.  1.
</event>
<event>
12    1  0.8728348E-002  0.2459959E+03  0.7818608E-02  0.1115902E+00
         21   -1    0    0  503  502  0.00000000000E+00  0.00000000000E+00  0.39443766972E+03  0.39443766972E+03  0.00000000000E+00 0.  1.
         21   -1    0    0  501  503 -0.00000000000E+00 -0.00000000000E+00 -0.15582995710E+03  0.15582995710E+03  0.00000000000E+00 0. -1.
          6    2    1    2  501    0 -0.32020612302E+01  0.17550622993E+03  0.15467083503E+03  0.29058055104E+03  0.17234064957E+03 0.  0.
         24    2    3    3    0    0 -0.63532051904E+02  0.68096915071E+02  0.82504640098E+02  0.14772916539E+03  0.79645333865E+02 0.  0.
         -6    2    1    2    0  502  0.32020612302E+01 -0.17550622993E+03  0.83936877588E+02  0.25968707577E+03  0.17198630167E+03 0.  0.
        -24    2    5    5    0    0 -0.27518814023E+02 -0.19238097753E+03  0.76502653493E+02  0.22355001763E+03  0.79713416376E+02 0.  0.
          5    1    3    3  501    0  0.60329990674E+02  0.10740931486E+03  0.72166194933E+02  0.14285138566E+03  0.47000000000E+01 0. -1.
        -11    1    4    4    0    0 -0.28720406327E+01 -0.14966679813E+02 -0.95943786379E+00  0.15269926098E+02  0.00000000000E+00 0.  1.
         12    1    4    4    0    0 -0.60660011272E+02  0.83063594884E+02  0.83464077962E+02  0.13245923929E+03  0.00000000000E+00 0. -1.
         -5    1    5    5    0  502  0.30720875253E+02  0.16874747603E+02  0.74342240956E+01  0.36137058138E+02  0.47000000000E+01 0.  1.
         11    1    6    6    0    0 -0.50778827956E+02 -0.13857670542E+03  0.34863665190E+02  0.15164916025E+03  0.00000000000E+00 0. -1.
        -12    1    6    6    0    0  0.23260013933E+02 -0.53804272117E+02  0.41638988303E+02  0.71900857387E+02  0.00000000000E+00 0.  1.
</event>
<event>
12    1  0.8728348E-002  0.2498125E+03  0.7818608E-02  0.1113596E+00
         21   -1    0    0  503  502  0.00000000000E+00  0.00000000000E+00  0.79562477963E+02  0.79562477963E+02  0.00000000000E+00 0.  1.
         21   -1    0    0  501  503 -0.00000000000E+00 -0.00000000000E+00 -0.13149543088E+04  0.13149543088E+04  0.00000000000E+00 0.  1.
          6    2    1    2  501    0 -0.12715810191E+03  0.12851941380E+03 -0.10628309043E+04  0.10917947759E+04  0.17239454448E+03 0.  0.
         24    2    3    3    0    0 -0.40762258684E+02  0.39038288691E+02 -0.26057883989E+03  0.27994406407E+03  0.85333448830E+02 0.  0.
         -6    2    1    2    0  502  0.12715810191E+03 -0.12851941380E+03 -0.17256092652E+03  0.30272201083E+03  0.17081252845E+03 0.  0.
        -24    2    5    5    0    0  0.10290867665E+03 -0.24696174652E+02 -0.13351919874E+03  0.18908378610E+03  0.82007346997E+02 0.  0.
          5    1    3    3  501    0 -0.86395843230E+02  0.89481125109E+02 -0.80225206438E+03  0.81185071182E+03  0.47000000000E+01 0. -1.
        -11    1    4    4    0    0 -0.33084987673E+02  0.13349309303E+01 -0.22536869657E+03  0.22778816440E+03  0.00000000000E+00 0.  1.
         12    1    4    4    0    0 -0.76772710104E+01  0.37703357761E+02 -0.35210143325E+02  0.52155899663E+02  0.00000000000E+00 0. -1.
         -5    1    5    5    0  502  0.24249425266E+02 -0.10382323915E+03 -0.39041727783E+02  0.11363822474E+03  0.47000000000E+01 0.  1.
         13    1    6    6    0    0  0.85842480753E+02 -0.19654277146E+02 -0.45193392206E+02  0.98983154178E+02  0.00000000000E+00 0. -1.
        -14    1    6    6    0    0  0.17066195895E+02 -0.50418975061E+01 -0.88325806532E+02  0.90100631919E+02  0.00000000000E+00 0.  1.
</event>
<event>
12    1  0.8728348E-002  0.2398441E+03  0.7818608E-02  0.1120271E+00
         21   -1    0    0  501  502  0.00000000000E+00  0.00000000000E+00  0.17472353306E+04  0.17472353306E+04  0.00000000000E+00 0.  1.
         21   -1    0    0  502  503 -0.00000000000E+00 -0.00000000000E+00 -0.99236361606E+02  0.99236361606E+02  0.00000000000E+00 0. -1.
         -6    2    1    2    0  503  0.80834021630E+02  0.14173179639E+03  0.66292937627E+02  0.24668446844E+03  0.17273225591E+03 0.  0.
        -24    2    3    3    0    0 -0.16150365796E+02  0.29431300088E+02  0.43007664768E+02  0.96412492331E+02  0.79490085598E+02 0.  0.
          6    2    1    2  501    0 -0.80834021630E+02 -0.14173179639E+03  0.15817060313E+04  0.15997872237E+04  0.17579291932E+03 0.  0.
         24    2    5    5    0    0 -0.11620247436E+03 -0.87666672510E+02  0.13083356494E+04  0.13188469796E+04  0.80166847961E+02 0.  0.
          5    1    5    5  501    0  0.35368452732E+02 -0.54065123876E+02  0.27337038191E+03  0.28094024414E+03  0.47000000000E+01 0. -1.
        -13    1    6    6    0    0 -0.28845035886E+02 -0.37587808373E+02  0.75064942570E+03  0.75214323087E+03  0.00000000000E+00 0.  1.
         14    1    6    6    0    0 -0.87357438475E+02 -0.50078864137E+02  0.55768622373E+03  0.56670374873E+03  0.00000000000E+00 0. -1.
         -5    1    3    3    0  503  0.96984387426E+02  0.11230049630E+03  0.23285272858E+02  0.15027197611E+03  0.47000000000E+01 0.  1.
         13    1    4    4    0    0  0.23363119761E+02  0.14182271945E+02 -0.95156439266E+01  0.28939932305E+02  0.00000000000E+00 0. -1.
        -14    1    4    4    0    0 -0.39513485557E+02  0.15249028143E+02  0.52523308695E+02  0.67472560026E+02  0.00000000000E+00 0.  1.
</event>
<event>
12    1  0.8728348E-002  0.1949015E+03  0.7818608E-02  0.1154179E+00
         21   -1    0    0  501  502  0.00000000000E+00  0.00000000000E+00  0.33385266594E+03  0.33385266594E+03  0.00000000000E+00 0.  1.
         21   -1    0    0  502  503 -0.00000000000E+00 -0.00000000000E+00 -0.12307224616E+03  0.12307224616E+03  0.00000000000E+00 0.  1.
         -6    2    1    2    0  503 -0.57441575971E+02  0.68314945829E+02  0.41955353258E+02  0.19907125990E+03  0.17292382247E+03 0.  0.
        -24    2    3    3    0    0 -0.81490961735E+02  0.98428649128E+02  0.47380911308E+02  0.15987005121E+03  0.83573361218E+02 0.  0.
          6    2    1    2  501    0  0.57441575971E+02 -0.68314945829E+02  0.16882506653E+03  0.25785365220E+03  0.17326319977E+03 0.  0.
         24    2    5    5    0    0  0.69197704234E+02  0.58605616925E+01  0.50841791748E+02  0.11791668212E+03  0.80602653060E+02 0.  0.
          5    1    5    5  501    0 -0.11756128263E+02 -0.74175507522E+02  0.11798327478E+03  0.13993697008E+03  0.47000000000E+01 0. -1.
        -13    1    6    6    0    0  0.27956847909E+02 -0.30636410731E+02 -0.20959630479E+01  0.41527919146E+02  0.00000000000E+00 0.  1.
         14    1    6    6    0    0  0.41240856324E+02  0.36496972423E+02  0.52937754796E+02  0.76388762978E+02  0.00000000000E+00 0. -1.
         -5    1    3    3    0  503  0.24049385764E+02 -0.30113703299E+02 -0.54255580497E+01  0.39201208682E+02  0.47000000000E+01 0.  1.
         13    1    4    4    0    0 -0.46041330065E+02  0.55927528249E+01  0.38175986425E+02  0.60070699162E+02  0.00000000000E+00 0. -1.
        -14    1    4    4    0    0 -0.35449631670E+02  0.92835896303E+02  0.92049248833E+01  0.99799352052E+02  0.00000000000E+00 0.  1.
</event>
<event>
12    1  0.8728348E-002  0.1827468E+03  0.7818608E-02  0.1167226E+00
         21   -1    0    0  501  502  0.00000000000E+00  0.00000000000E+00  0.15076721142E+03  0.15076721142E+03  0.00000000000E+00 0. -1.
         21   -1    0    0  502  503 -0.00000000000E+00 -0.00000000000E+00 -0.30348663093E+03  0.30348663093E+03  0.00000000000E+00 0. -1.
         -6    2    1    2    0  503  0.22067482034E+02  0.13637002298E+02 -0.20271136881E+03  0.27292540541E+03  0.18089620305E+03 0.  0.
        -24    2    3    3    0    0  0.33582666870E+02 -0.31016874911E+02 -0.35467474023E+02  0.99376626748E+02  0.80795607472E+02 0.  0.
          6    2    1    2  501    0 -0.22067482034E+02 -0.13637002298E+02  0.49991949296E+02  0.18132843694E+03  0.17235969788E+03 0.  0.
         24    2    5    5    0    0  0.31836693860E+01 -0.40039838134E+02  0.90846802025E+02  0.12631989779E+03  0.78040058626E+02 0.  0.
          5    1    5    5  501    0 -0.25251151420E+02  0.26402835837E+02 -0.40854852729E+02  0.55008539153E+02  0.47000000000E+01 0.  1.
        -13    1    6    6    0    0  0.51041538982E+01  0.14889342447E+02 -0.44079508648E+01  0.16345486727E+02  0.00000000000E+00 0.  1.
         14    1    6    6    0    0 -0.19204845121E+01 -0.54929180581E+02  0.95254752889E+02  0.10997441106E+03  0.00000000000E+00 0. -1.
         -5    1    3    3    0  503 -0.11515184836E+02  0.44653877209E+02 -0.16724389479E+03  0.17354877866E+03  0.47000000000E+01 0.  1.
         13    1    4    4    0    0  0.66240735542E+01 -0.41020054394E+01 -0.55700319634E+02  0.56242603126E+02  0.00000000000E+00 0. -1.
        -14    1    4    4    0    0  0.26958593316E+02 -0.26914869472E+02  0.20232845611E+02  0.43134023622E+02  0.00000000000E+00 0.  1.
</event>
<event>
12    1  0.8728348E-002  0.1955808E+03  0.7818608E-02  0.1153900E+00
         21   -1    0    0  503  502  0.00000000000E+00  0.00000000000E+00  0.19183407471E+03  0.19183407471E+03  0.00000000000E+00 0.  1.
         21   -1    0    0  501  503 -0.00000000000E+00 -0.00000000000E+00 -0.68009788469E+03  0.68009788469E+03  0.00000000000E+00 0.  1.
          6    2    1    2  501    0  0.67976995784E+02  0.60933923840E+02 -0.61164138607E+03  0.64215032083E+03  0.17296830450E+03 0.  0.
         24    2    3    3    0    0 -0.18422781015E+00  0.88406061895E+02 -0.36080379301E+03  0.38072679691E+03  0.83413734542E+02 0.  0.
         -6    2    1    2    0  502 -0.67976995784E+02 -0.60933923840E+02  0.12337757608E+03  0.22978163857E+03  0.17100807032E+03 0.  0.
        -24    2    5    5    0    0 -0.39766988723E+02 -0.81072821200E+02  0.22209603542E+02  0.12273758991E+03  0.80106390250E+02 0.  0.
          5    1    3    3  501    0  0.68161223594E+02 -0.27472138055E+02 -0.25083759305E+03  0.26142352392E+03  0.47000000000E+01 0. -1.
        -11    1    4    4    0    0 -0.49040190955E+01  0.22690508985E+02 -0.25521594345E+03  0.25626955806E+03  0.00000000000E+00 0.  1.
         12    1    4    4    0    0  0.47197912854E+01  0.65715552910E+02 -0.10558784957E+03  0.12445723884E+03  0.00000000000E+00 0. -1.
         -5    1    5    5    0  502 -0.28210007062E+02  0.20138897360E+02  0.10116797254E+03  0.10704404866E+03  0.47000000000E+01 0.  1.
         11    1    6    6    0    0 -0.37052390754E+02 -0.85796854119E+02  0.41818821460E+02  0.10238551492E+03  0.00000000000E+00 0. -1.
        -12    1    6    6    0    0 -0.27145979684E+01  0.47240329189E+01 -0.19609217918E+02  0.20352074993E+02  0.00000000000E+00 0.  1.
</event>
<event>
12    1  0.8728348E-002  0.1979015E+03  0.7818608E-02  0.1153241E+00
         21   -1    0    0  503  502  0.00000000000E+00  0.00000000000E+00  0.44240060705E+03  0.44240060705E+03  0.00000000000E+00 0.  1.
         21   -1    0    0  501  503 -0.00000000000E+00 -0.00000000000E+00 -0.29654753858E+03  0.29654753858E+03  0.00000000000E+00 0.  1.
          6    2    1    2  501    0 -0.78538538992E+02  0.27119326090E+02 -0.23950837943E+03  0.30574099908E+03  0.17090797157E+03 0.  0.
         24    2    3    3    0    0 -0.14249634657E+01 -0.17705697521E+02 -0.54534038780E+02  0.10033071946E+03  0.82321137241E+02 0.  0.
         -6    2    1    2    0  502  0.78538538992E+02 -0.27119326090E+02  0.38536144790E+03  0.43320714655E+03  0.17961410394E+03 0.  0.
        -24    2    5    5    0    0  0.30500428667E+02 -0.87017367070E+02  0.25029844648E+03  0.27777375338E+03  0.77502564076E+02 0.  0.
          5    1    3    3  501    0 -0.77113575526E+02  0.44825023611E+02 -0.18497434065E+03  0.20541027962E+03  0.47000000000E+01 0. -1.
        -13    1    4    4    0    0  0.10410078303E+01 -0.37168732914E+02 -0.67324975867E+02  0.76910667526E+02  0.00000000000E+00 0.  1.
         14    1    4    4    0    0 -0.24659712959E+01  0.19463035393E+02  0.12790937087E+02  0.23420051937E+02  0.00000000000E+00 0. -1.
         -5    1    5    5    0  502  0.48038110324E+02  0.59898040980E+02  0.13506300143E+03  0.15543339317E+03  0.47000000000E+01 0.  1.
         13    1    6    6    0    0 -0.17459092780E+02  0.27811439974E+00  0.18278520915E+02  0.25278480871E+02  0.00000000000E+00 0. -1.
        -14    1    6    6    0    0  0.47959521447E+02 -0.87295481470E+02  0.23201992556E+03  0.25249527251E+03  0.00000000000E+00 0.  1.
</event>
<event>
12    1  0.8728348E-002  0.2714460E+03  0.7818608E-02  0.1100556E+00
         21   -1    0    0  503  502  0.00000000000E+00  0.00000000000E+00  0.25495133773E+03  0.25495133773E+03  0.00000000000E+00 0.  1.
         21   -1    0    0  501  503 -0.00000000000E+00 -0.00000000000E+00 -0.30490275880E+03  0.30490275880E+03  0.00000000000E+00 0. -1.
          6    2    1    2  501    0 -0.18500509468E+03 -0.98145205472E+02 -0.90420929049E+02  0.28610992455E+03  0.17269504364E+03 0.  0.
         24    2    3    3    0    0 -0.15393580262E+03 -0.14494885699E+02 -0.25681141918E+02  0.17576497928E+03  0.79545420065E+02 0.  0.
         -6    2    1    2    0  502  0.18500509468E+03  0.98145205472E+02  0.40469507985E+02  0.27374417198E+03  0.17157716690E+03 0.  0.
        -24    2    5    5    0    0  0.66660051366E+02  0.70447284495E+02 -0.37092552500E+02  0.12948507407E+03  0.77357253150E+02 0.  0.
          5    1    3    3  501    0 -0.31069292066E+02 -0.83650319773E+02 -0.64739787131E+02  0.11034494526E+03  0.47000000000E+01 0. -1.
        -11    1    4    4    0    0  0.91705524720E+01 -0.34281416319E+01 -0.49617035916E+01  0.10975868541E+02  0.00000000000E+00 0.  1.
         12    1    4    4    0    0 -0.16310635509E+03 -0.11066744067E+02 -0.20719438326E+02  0.16478911074E+03  0.00000000000E+00 0. -1.
         -5    1    5    5    0  502  0.11834504332E+03  0.27697920978E+02  0.77562060485E+02  0.14425909791E+03  0.47000000000E+01 0.  1.
         13    1    6    6    0    0 -0.79584180222E+01  0.41372852045E+02 -0.23674954011E+01  0.42197800159E+02  0.00000000000E+00 0. -1.
        -14    1    6    6    0    0  0.74618469389E+02  0.29074432449E+02 -0.34725057099E+02  0.87287273910E+02  0.00000000000E+00 0.  1.
</event>
<event>
12    1  0.8728348E-002  0.2229614E+03  0.7818608E-02  0.1131705E+00
         21   -1    0    0  501  502  0.00000000000E+00  0.00000000000E+00  0.95539419760E+02  0.95539419760E+02  0.00000000000E+00 0. -1.
         21   -1    0    0  502  503 -0.00000000000E+00 -0.00000000000E+00 -0.53457847305E+03  0.53457847305E+03  0.00000000000E+00 0.  1.
         -6    2    1    2    0  503  0.10041072345E+03 -0.99928021940E+02 -0.16785159496E+03  0.27908055093E+03  0.17217396152E+03 0.  0.
        -24    2    3    3    0    0  0.31197052898E+02 -0.81976739032E+02 -0.28190406294E+02  0.12210883893E+03  0.80140050448E+02 0.  0.
          6    2    1    2  501    0 -0.10041072345E+03  0.99928021940E+02 -0.27118745833E+03  0.35103734188E+03  0.17209490082E+03 0.  0.
         24    2    5    5    0    0 -0.36289406565E+01  0.77768609959E+02 -0.84135606785E+02  0.13921610077E+03  0.79001243528E+02 0.  0.
          5    1    5    5  501    0 -0.96781782790E+02  0.22159411981E+02 -0.18705185154E+03  0.21182124111E+03  0.47000000000E+01 0. -1.
        -13    1    6    6    0    0 -0.22600413868E+02  0.83785894059E+02 -0.81658953453E+02  0.11915972234E+03  0.00000000000E+00 0.  1.
         14    1    6    6    0    0  0.18971473212E+02 -0.60172841001E+01 -0.24766533317E+01  0.20056378424E+02  0.00000000000E+00 0. -1.
         -5    1    3    3    0  503  0.69213670549E+02 -0.17951282908E+02 -0.13966118867E+03  0.15697171200E+03  0.47000000000E+01 0.  1.
         11    1    4    4    0    0 -0.68105798557E+01  0.18083601605E+01  0.17877983607E+02  0.19216567391E+02  0.00000000000E+00 0. -1.
        -12    1    4    4    0    0  0.38007632753E+02 -0.83785099192E+02 -0.46068389901E+02  0.10289227154E+03  0.00000000000E+00 0.  1.
</event>
<event>
12    1  0.8728348E-002  0.1925374E+03  0.7818608E-02  0.1157192E+00
         21   -1    0    0  503  502  0.00000000000E+00  0.00000000000E+00  0.14168642578E+03  0.14168642578E+03  0.00000000000E+00 0.  1.
         21   -1    0    0  501  503 -0.00000000000E+00 -0.00000000000E+00 -0.38111639084E+03  0.38111639084E+03  0.00000000000E+00 0.  1.
          6    2    1    2  501    0 -0.53572099674E+02  0.53821512776E+02  0.31220066728E+02  0.19065514688E+03  0.17206965846E+03 0.  0.
         24    2    3    3    0    0 -0.45251593652E+02  0.52049551576E+02  0.87266752529E+02  0.13377200653E+03  0.74314205139E+02 0.  0.
         -6    2    1    2    0  502  0.53572099674E+02 -0.53821512776E+02 -0.27065003179E+03  0.33214766974E+03  0.17692910926E+03 0.  0.
        -24    2    5    5    0    0  0.73037309835E+01  0.37066931433E+02 -0.10558866436E+03  0.13806311020E+03  0.80530456754E+02 0.  0.
          5    1    3    3  501    0 -0.83205060218E+01  0.17719612004E+01 -0.56046685801E+02  0.56883140352E+02  0.47000000000E+01 0. -1.
        -11    1    4    4    0    0  0.14743336575E+02 -0.73598472432E+01  0.19334343522E+02  0.25403743115E+02  0.00000000000E+00 0.  1.
         12    1    4    4    0    0 -0.59994930228E+02  0.59409398819E+02  0.67932409007E+02  0.10836826341E+03  0.00000000000E+00 0. -1.
         -5    1    5    5    0  502  0.46268368691E+02 -0.90888444209E+02 -0.16506136743E+03  0.19408455954E+03  0.47000000000E+01 0.  1.
         11    1    6    6    0    0  0.29583783193E+02 -0.10760462752E+02 -0.62352440461E+02  0.69848511925E+02  0.00000000000E+00 0. -1.
        -12    1    6    6    0    0 -0.22280052210E+02  0.47827394184E+02 -0.43236223898E+02  0.68214598276E+02  0.00000000000E+00 0.  1.
</event>
<event>
12    1  0.8728348E-002  0.3644818E+03  0.7818608E-02  0.1056917E+00
         21   -1    0    0  501  502  0.00000000000E+00  0.00000000000E+00  0.73378679880E+03  0.73378679880E+03  0.00000000000E+00 0.  1.
         21   -1    0    0  502  503 -0.00000000000E+00 -0.00000000000E+00 -0.19641786811E+03  0.19641786811E+03  0.00000000000E+00 0.  1.
         -6    2    1    2    0  503  0.31688844624E+03  0.52327289296E+02  0.13623757756E+03  0.38821446374E+03  0.17027436610E+03 0.  0.
        -24    2    3    3    0    0  0.69292628448E+02  0.49368929898E+01  0.74600365095E+02  0.12865565612E+03  0.78493452656E+02 0.  0.
          6    2    1    2  501    0 -0.31688844624E+03 -0.52327289296E+02  0.40113135313E+03  0.54199020317E+03  0.17230956241E+03 0.  0.
         24    2    5    5    0    0 -0.24963052145E+03 -0.95117821605E+02  0.27031938536E+03  0.38873055742E+03  0.81707275961E+02 0.  0.
          5    1    5    5  501    0 -0.67257924791E+02  0.42790532309E+02  0.13081196777E+03  0.15325964574E+03  0.47000000000E+01 0. -1.
        -11    1    6    6    0    0 -0.15155591279E+03 -0.46713593686E+02  0.21208690963E+03  0.26482487001E+03  0.00000000000E+00 0.  1.
         12    1    6    6    0    0 -0.98074608663E+02 -0.48404227919E+02  0.58232475730E+02  0.12390568742E+03  0.00000000000E+00 0. -1.
         -5    1    3    3    0  503  0.24759581780E+03  0.47390396306E+02  0.61637212466E+02  0.25955880762E+03  0.47000000000E+01 0.  1.
         11    1    4    4    0    0  0.76043690524E+02  0.27776189990E+02  0.59209859980E+02  0.10029938742E+03  0.00000000000E+00 0. -1.
        -12    1    4    4    0    0 -0.67510620768E+01 -0.22839297000E+02  0.15390505115E+02  0.28356268696E+02  0.00000000000E+00 0.  1.
</event>
<event>
12    1  0.8728348E-002  0.1778542E+03  0.7818608E-02  0.1171382E+00
         21   -1    0    0  503  502  0.00000000000E+00  0.00000000000E+00  0.22446102420E+03  0.22446102420E+03  0.00000000000E+00 0.  1.
         21   -1    0    0  501  503 -0.00000000000E+00 -0.00000000000E+00 -0.14402030329E+03  0.14402030329E+03  0.00000000000E+00 0.  1.
          6    2    1    2  501    0 -0.81633517716E+01  0.18006310497E+01 -0.31858146616E+01  0.17194760778E+03  0.17171472803E+03 0.  0.
         24    2    3    3    0    0  0.53981190603E+02  0.24145020788E+02  0.21727314306E+02  0.10120886384E+03  0.79209891838E+02 0.  0.
         -6    2    1    2    0  502  0.81633517716E+01 -0.18006310497E+01  0.83626535579E+02  0.19653371971E+03  0.17765760030E+03 0.  0.
        -24    2    5    5    0    0 -0.64198000408E+02  0.52253442527E+01  0.66696856754E+02  0.12173910999E+03  0.78887595478E+02 0.  0.
          5    1    3    3  501    0 -0.62144542374E+02 -0.22344389738E+02 -0.24913128967E+02  0.70738743943E+02  0.47000000000E+01 0. -1.
        -13    1    4    4    0    0  0.10583365632E+01 -0.22116670534E+02  0.21577120879E+02  0.30916651456E+02  0.00000000000E+00 0.  1.
         14    1    4    4    0    0  0.52922854040E+02  0.46261691322E+02  0.15019342687E+00  0.70292212383E+02  0.00000000000E+00 0. -1.
         -5    1    5    5    0  502  0.72361352179E+02 -0.70259753023E+01  0.16929678824E+02  0.74794609721E+02  0.47000000000E+01 0.  1.
         13    1    6    6    0    0 -0.45655826594E+02 -0.71587621729E+01 -0.51613174425E+01  0.46500984673E+02  0.00000000000E+00 0. -1.
        -14    1    6    6    0    0 -0.18542173814E+02  0.12384106426E+02  0.71858174197E+02  0.75238125313E+02  0.00000000000E+00 0.  1.
</event>
<event>
12    1  0.8728348E-002  0.2289176E+03  0.7818608E-02  0.1127887E+00
         21   -1    0    0  501  502  0.00000000000E+00  0.00000000000E+00  0.79249194504E+03  0.79249194504E+03  0.00000000000E+00 0. -1.
         21   -1    0    0  502  503 -0.00000000000E+00 -0.00000000000E+00 -0.65348215105E+02  0.65348215105E+02  0.00000000000E+00 0. -1.
         -6    2    1    2    0  503 -0.14853134988E+03  0.33796201047E+02  0.36251096987E+03  0.42873940572E+03  0.17087869861E+03 0.  0.
        -24    2    3    3    0    0 -0.12013000040E+03  0.34534966793E+02  0.37028289048E+03  0.39891198249E+03  0.79984185089E+02 0.  0.
          6    2    1    2  501    0  0.14853134988E+03 -0.33796201047E+02  0.36463276006E+03  0.42910075442E+03  0.16723236120E+03 0.  0.
         24    2    5    5    0    0  0.48940220169E+02 -0.37364390031E+02  0.85398520096E+02  0.13257929507E+03  0.80579894843E+02 0.  0.
          5    1    5    5  501    0  0.99591129710E+02  0.35681889831E+01  0.27923423996E+03  0.29652145935E+03  0.47000000000E+01 0. -1.
        -13    1    6    6    0    0  0.16994460744E+02  0.23683699908E+02  0.42085496829E+02  0.51194905807E+02  0.00000000000E+00 0.  1.
         14    1    6    6    0    0  0.31945759426E+02 -0.61048089938E+02  0.43313023267E+02  0.81384389258E+02  0.00000000000E+00 0. -1.
         -5    1    3    3    0  503 -0.28401349475E+02 -0.73876574573E+00 -0.77719206057E+01  0.29827423233E+02  0.47000000000E+01 0.  1.
         11    1    4    4    0    0 -0.11390283909E+03  0.24989231728E+01  0.25919054010E+03  0.28312512684E+03  0.00000000000E+00 0. -1.
        -12    1    4    4    0    0 -0.62271613115E+01  0.32036043620E+02  0.11109235038E+03  0.11578685565E+03  0.00000000000E+00 0.  1.
</event>
<event>
12    1  0.8728348E-002  0.2257027E+03  0.7818608E-02  0.1129801E+00
         21   -1    0    0  503  502  0.00000000000E+00  0.00000000000E+00  0.57004266304E+02  0.57004266304E+02  0.00000000000E+00 0.  1.
         21   -1    0    0  501  503 -0.00000000000E+00 -0.00000000000E+00 -0.90996763269E+03  0.90996763269E+03  0.00000000000E+00 0.  1.
          6    2    1    2  501    0 -0.55904878139E+02  0.13544271967E+03 -0.35803529069E+03  0.42323868438E+03  0.17167302893E+03 0.  0.
         24    2    3    3    0    0 -0.79668410623E+02  0.11891484957E+03 -0.35819728449E+03  0.39391306063E+03  0.79839887393E+02 0.  0.
         -6    2    1    2    0  502  0.55904878139E+02 -0.13544271967E+03 -0.49492807570E+03  0.54373321462E+03  0.17094420978E+03 0.  0.
        -24    2    5    5    0    0  0.16204331998E+02 -0.59976611196E+02 -0.11356515410E+03  0.15292503295E+03  0.81420189211E+02 0.  0.
          5    1    3    3  501    0  0.23763532484E+02  0.16527870096E+02  0.16199380026E+00  0.29325623745E+02  0.47000000000E+01 0. -1.
        -13    1    4    4    0    0 -0.36001687108E+02  0.81947724333E+02 -0.12463378916E+03  0.15344423221E+03  0.00000000000E+00 0.  1.
         14    1    4    4    0    0 -0.43666723515E+02  0.36967125238E+02 -0.23356349533E+03  0.24046882842E+03  0.00000000000E+00 0. -1.
         -5    1    5    5    0  502  0.39700546142E+02 -0.75466108471E+02 -0.38136292159E+03  0.39080818167E+03  0.47000000000E+01 0.  1.
         13    1    6    6    0    0 -0.96199201597E+01 -0.70769807754E+02 -0.63501048263E+02  0.95568256675E+02  0.00000000000E+00 0. -1.
        -14    1    6    6    0    0  0.25824252157E+02  0.10793196558E+02 -0.50064105840E+02  0.57356776277E+02  0.00000000000E+00 0.  1.
</event>
<event>
12    1  0.8728348E-002  0.1772322E+03  0.7818608E-02  0.1170554E+00
         21   -1    0    0  501  502  0.00000000000E+00  0.00000000000E+00  0.46910184295E+03  0.46910184295E+03  0.00000000000E+00 0. -1.
         21   -1    0    0  502  503 -0.00000000000E+00 -0.00000000000E+00 -0.11310393663E+03  0.11310393663E+03  0.00000000000E+00 0. -1.
         -6    2    1    2    0  503  0.40134719373E+02  0.74888753889E+01 -0.80223585331E+01  0.17741366877E+03  0.17246556954E+03 0.  0.
        -24    2    3    3    0    0 -0.69438400930E+01  0.54959808323E+02  0.29770869764E+02  0.10047019380E+03  0.78352777296E+02 0.  0.
          6    2    1    2  501    0 -0.40134719373E+02 -0.74888753889E+01  0.36402026485E+03  0.40479211081E+03  0.17227600181E+03 0.  0.
         24    2    5    5    0    0 -0.91344322188E+02 -0.21594311949E+02  0.24457658844E+03  0.27398588544E+03  0.80252466028E+02 0.  0.
          5    1    5    5  501    0  0.51209602814E+02  0.14105436560E+02  0.11944367641E+03  0.13080622537E+03  0.47000000000E+01 0. -1.
        -13    1    6    6    0    0 -0.12198961295E+02  0.99979323878E+01  0.85522211142E+00  0.15795718204E+02  0.00000000000E+00 0.  1.
         14    1    6    6    0    0 -0.79145360892E+02 -0.31592244337E+02  0.24372136633E+03  0.25819016724E+03  0.00000000000E+00 0. -1.
         -5    1    3    3    0  503  0.47078559466E+02 -0.47470932934E+02 -0.37793228297E+02  0.76943474968E+02  0.47000000000E+01 0.  1.
         13    1    4    4    0    0 -0.13867220939E+02  0.68918779350E+02  0.40736064717E+01  0.70417982316E+02  0.00000000000E+00 0. -1.
        -14    1    4    4    0    0  0.69233808465E+01 -0.13958971027E+02  0.25697263292E+02  0.30052211486E+02  0.00000000000E+00 0.  1.
</event>
<event>
12    1  0.8728348E-002  0.2360960E+03  0.7818608E-02  0.1122766E+00
         21   -1    0    0  503  502  0.00000000000E+00  0.00000000000E+00  0.48675175694E+03  0.48675175694E+03  0.00000000000E+00 0.  1.
         21   -1    0    0  501  503 -0.00000000000E+00 -0.00000000000E+00 -0.11971333672E+03  0.11971333672E+03  0.00000000000E+00 0. -1.
          6    2    1    2  501    0  0.83162989387E+02  0.13649006047E+03  0.11541098751E+03  0.26279460859E+03  0.17376907335E+03 0.  0.
         24    2    3    3    0    0 -0.30105120935E-01  0.29687560167E+01  0.40170467615E+02  0.88346176233E+02  0.78629294591E+02 0.  0.
         -6    2    1    2    0  502 -0.83162989387E+02 -0.13649006047E+03  0.25162743271E+03  0.34367048507E+03  0.17101876506E+03 0.  0.
        -24    2    5    5    0    0 -0.10578314894E+03 -0.14805243029E+03  0.24794379858E+03  0.31757414099E+03  0.79168245264E+02 0.  0.
          5    1    3    3  501    0  0.83193094508E+02  0.13352130446E+03  0.75240519892E+02  0.17444843236E+03  0.47000000000E+01 0. -1.
        -13    1    4    4    0    0  0.29859356059E+02 -0.23399694046E+02  0.26228022049E+02  0.46119800155E+02  0.00000000000E+00 0.  1.
         14    1    4    4    0    0 -0.29889461180E+02  0.26368450063E+02  0.13942445566E+02  0.42226376078E+02  0.00000000000E+00 0. -1.
         -5    1    5    5    0  502  0.22620159551E+02  0.11562369816E+02  0.36836341322E+01  0.26096344079E+02  0.47000000000E+01 0.  1.
         13    1    6    6    0    0 -0.24035719524E+02 -0.41381397887E+02  0.17788930315E+02  0.51054695630E+02  0.00000000000E+00 0. -1.
        -14    1    6    6    0    0 -0.81747429415E+02 -0.10667103240E+03  0.23015486827E+03  0.26651944536E+03  0.00000000000E+00 0.  1.
</event>
<event>
12    1  0.8728348E-002  0.2631403E+03  0.7818608E-02  0.1105293E+00
         21   -1    0    0  501  502  0.00000000000E+00  0.00000000000E+00  0.92721439482E+02  0.92721439482E+02  0.00000000000E+00 0.  1.
         21   -1    0    0  502  503 -0.00000000000E+00 -0.00000000000E+00 -0.85745233848E+03  0.85745233848E+03  0.00000000000E+00 0. -1.
         -6    2    1    2    0  503 -0.62600776713E+02 -0.18767677892E+03 -0.55327531612E+03  0.61259967323E+03  0.17327248374E+03 0.  0.
        -24    2    3    3    0    0 -0.36909655206E+01 -0.83382065554E+02 -0.11014776456E+03  0.15354426258E+03  0.66911272984E+02 0.  0.
          6    2    1    2  501    0  0.62600776713E+02  0.18767677892E+03 -0.21145558288E+03  0.33757410473E+03  0.17349749872E+03 0.  0.
         24    2    5    5    0    0  0.32456049231E+02  0.17563643229E+03 -0.22794038075E+03  0.30086561657E+03  0.81619547772E+02 0.  0.
          5    1    5    5  501    0  0.30144727482E+02  0.12040346631E+02  0.16484797875E+02  0.36708488159E+02  0.47000000000E+01 0. -1.
        -11    1    6    6    0    0  0.22767238995E+01  0.43870434408E+02 -0.11048888370E+02  0.45297642555E+02  0.00000000000E+00 0.  1.
         12    1    6    6    0    0  0.30179325332E+02  0.13176599788E+03 -0.21689149238E+03  0.25556797402E+03  0.00000000000E+00 0. -1.
         -5    1    3    3    0  503 -0.58909811192E+02 -0.10429471337E+03 -0.44312755157E+03  0.45905541065E+03  0.47000000000E+01 0.  1.
         11    1    4    4    0    0  0.25847235970E+02 -0.67532611027E+02 -0.85255312556E+02  0.11179088281E+03  0.00000000000E+00 0. -1.
        -12    1    4    4    0    0 -0.29538201491E+02 -0.15849454527E+02 -0.24892452001E+02  0.41753379776E+02  0.00000000000E+00 0.  1.
</event>
<event>
12    1  0.8728348E-002  0.2078712E+03  0.7818608E-02  0.1143586E+00
         21   -1    0    0  503  502  0.00000000000E+00  0.00000000000E+00  0.26496025998E+03  0.26496025998E+03  0.00000000000E+00 0.  1.
         21   -1    0    0  501  503 -0.00000000000E+00 -0.00000000000E+00 -0.26947019375E+03  0.26947019375E+03  0.00000000000E+00 0.  1.
          6    2    1    2  501    0  0.10886915085E+02  0.11526654525E+03 -0.17113703151E+03  0.26801907023E+03  0.17070863212E+03 0.  0.
         24    2    3    3    0    0  0.36899196977E+02  0.13861220268E+03 -0.11260249441E+03  0.19968137519E+03  0.81353773003E+02 0.  0.
         -6    2    1    2    0  502 -0.10886915085E+02 -0.11526654525E+03  0.16662709773E+03  0.26641138350E+03  0.17264279361E+03 0.  0.
        -24    2    5    5    0    0 -0.43412197250E+02 -0.13673259253E+03  0.15418531916E+03  0.22523404726E+03  0.79855135504E+02 0.  0.
          5    1    3    3  501    0 -0.26012281892E+02 -0.23345657431E+02 -0.58534537093E+02  0.68337695036E+02  0.47000000000E+01 0. -1.
        -13    1    4    4    0    0  0.30731630579E+02  0.28485915063E+02  0.21563669972E+00  0.41903782338E+02  0.00000000000E+00 0.  1.
         14    1    4    4    0    0  0.61675663979E+01  0.11012628761E+03 -0.11281813111E+03  0.15777759285E+03  0.00000000000E+00 0. -1.
         -5    1    5    5    0  502  0.32525282165E+02  0.21466047288E+02  0.12441778568E+02  0.41177336243E+02  0.47000000000E+01 0.  1.
         11    1    6    6    0    0 -0.49281687717E+02 -0.84661892421E+02  0.14013973805E+03  0.17098382074E+03  0.00000000000E+00 0. -1.
        -12    1    6    6    0    0  0.58694904674E+01 -0.52070700113E+02  0.14045581113E+02  0.54250226519E+02  0.00000000000E+00 0.  1.
</event>
<event>
12    1  0.8728348E-002  0.2374206E+03  0.7818608E-02  0.1122322E+00
         21   -1    0    0  503  502  0.00000000000E+00  0.00000000000E+00  0.86122452414E+03  0.86122452414E+03  0.00000000000E+00 0.  1.
         21   -1    0    0  501  503 -0.00000000000E+00 -0.00000000000E+00 -0.73541904397E+02  0.73541904397E+02  0.00000000000E+00 0.  1.
          6    2    1    2  501    0  0.14094796918E+03 -0.68855852029E+02  0.23040210742E+03  0.33083780739E+03  0.17821634414E+03 0.  0.
         24    2    3    3    0    0  0.83662886407E+02 -0.74615872396E+02  0.23449926826E+03  0.27292722744E+03  0.83260781202E+02 0.  0.
         -6    2    1    2    0  502 -0.14094796918E+03  0.68855852029E+02  0.55728051233E+03  0.60392862115E+03  0.17193240432E+03 0.  0.
        -24    2    5    5    0    0 -0.99042432380E+02 -0.22283146854E+02  0.27836017322E+03  0.30748126208E+03  0.82185147394E+02 0.  0.
          5    1    3    3  501    0  0.57285082770E+02  0.57600203670E+01 -0.40971608471E+01  0.57910579945E+02  0.47000000000E+01 0. -1.
        -11    1    4    4    0    0  0.47991211198E+02 -0.48952219255E+02  0.54315757737E+02  0.87462435712E+02  0.00000000000E+00 0.  1.
         12    1    4    4    0    0  0.35671675210E+02 -0.25663653141E+02  0.18018351053E+03  0.18546479173E+03  0.00000000000E+00 0. -1.
         -5    1    5    5    0  502 -0.41905536797E+02  0.91138998882E+02  0.27892033911E+03  0.29644735907E+03  0.47000000000E+01 0.  1.
         13    1    6    6    0    0 -0.59210567419E+02  0.10845219435E+02  0.67912305541E+02  0.90750158802E+02  0.00000000000E+00 0. -1.
        -14    1    6    6    0    0 -0.39831864961E+02 -0.33128366288E+02  0.21044786768E+03  0.21673110328E+03  0.00000000000E+00 0.  1.
</event>
<event>
12    1  0.8728348E-002  0.1966375E+03  0.7818608E-02  0.1152676E+00
         21   -1    0    0  503  502  0.00000000000E+00  0.00000000000E+00  0.83420220125E+02  0.83420220125E+02  0.00000000000E+00 0. -1.
         21   -1    0    0  501  503 -0.00000000000E+00 -0.00000000000E+00 -0.49380225736E+03  0.49380225736E+03  0.00000000000E+00 0. -1.
          6    2    1    2  501    0 -0.65665128843E+02 -0.68434657808E+02 -0.13267813162E+03  0.23694941439E+03  0.17189045010E+03 0.  0.
         24    2    3    3    0    0 -0.16196394682E+02 -0.50771678148E+02 -0.18610065448E+01  0.95902093531E+02  0.79709859464E+02 0.  0.
         -6    2    1    2    0  502  0.65665128843E+02  0.68434657808E+02 -0.27770390562E+03  0.34027306310E+03  0.17225297308E+03 0.  0.
        -24    2    5    5    0    0  0.43939913515E+02 -0.26383176210E+02 -0.95912310064E+02  0.13403853436E+03  0.78360509725E+02 0.  0.
          5    1    3    3  501    0 -0.49468734161E+02 -0.17662979660E+02 -0.13081712507E+03  0.14104732086E+03  0.47000000000E+01 0. -1.
        -11    1    4    4    0    0  0.60606843487E+01  0.20392017337E+02  0.83935560991E+00  0.21290156967E+02  0.00000000000E+00 0.  1.
         12    1    4    4    0    0 -0.22257079030E+02 -0.71163695485E+02 -0.27003621547E+01  0.74611936564E+02  0.00000000000E+00 0. -1.
         -5    1    5    5    0  502  0.21725215328E+02  0.94817834018E+02 -0.18179159556E+03  0.20623452874E+03  0.47000000000E+01 0.  1.
         13    1    6    6    0    0  0.42990878574E+02 -0.39044120345E+01 -0.87843130514E+01  0.44052516724E+02  0.00000000000E+00 0. -1.
        -14    1    6    6    0    0  0.94903494065E+00 -0.22478764175E+02 -0.87127997013E+02  0.89986017634E+02  0.00000000000E+00 0.  1.
</event>
<event>
12    1  0.8728348E-002  0.2481425E+03  0.7818608E-02  0.1114625E+00
         21   -1    0    0  501  502  0.00000000000E+00  0.00000000000E+00  0.24527513499E+03  0.24527513499E+03  0.00000000000E+00 0. -1.
         21   -1    0    0  502  503 -0.00000000000E+00 -0.00000000000E+00 -0.41632797276E+03  0.41632797276E+03  0.00000000000E+00 0. -1.
         -6    2    1    2    0  503 -0.99018933900E+02 -0.14882682500E+03 -0.29461187305E+03  0.38518940172E+03  0.17210620659E+03 0.  0.
        -24    2    3    3    0    0  0.38620548167E+01 -0.57045170687E+02 -0.66065453388E+02  0.11823636119E+03  0.79662575973E+02 0.  0.
          6    2    1    2  501    0  0.99018933900E+02  0.14882682500E+03  0.12355903528E+03  0.27641370603E+03  0.17083187224E+03 0.  0.
         24    2    5    5    0    0  0.13241844867E+03  0.13963635672E+03  0.87405221983E+02  0.22612274750E+03  0.80367073104E+02 0.  0.
          5    1    5    5  501    0 -0.33399514773E+02  0.91904682816E+01  0.36153813297E+02  0.50290958533E+02  0.47000000000E+01 0. -1.
        -13    1    6    6    0    0  0.28634519569E+02  0.80914319894E+02  0.16542638853E+02  0.87411222249E+02  0.00000000000E+00 0.  1.
         14    1    6    6    0    0  0.10378392910E+03  0.58722036829E+02  0.70862583130E+02  0.13871152525E+03  0.00000000000E+00 0. -1.
         -5    1    3    3    0  503 -0.10288098872E+03 -0.91781654317E+02 -0.22854641966E+03  0.26695304053E+03  0.47000000000E+01 0.  1.
         13    1    4    4    0    0  0.10400658508E+02 -0.44292151719E+01 -0.64194959818E+02  0.65182701006E+02  0.00000000000E+00 0. -1.
        -14    1    4    4    0    0 -0.65386036911E+01 -0.52615955515E+02 -0.18704935695E+01  0.53053660186E+02  0.00000000000E+00 0.  1.
</event>
<event>
12    1  0.8728348E-002  0.2448492E+03  0.7818608E-02  0.1116607E+00
         21   -1    0    0  503  502  0.00000000000E+00  0.00000000000E+00  0.16044376250E+03  0.16044376250E+03  0.00000000000E+00 0.  1.
         21   -1    0    0  501  503 -0.00000000000E+00 -0.00000000000E+00 -0.38406590119E+03  0.38406590119E+03  0.00000000000E+00 0.  1.
          6    2    1    2  501    0 -0.12783306186E+03 -0.11787144940E+03 -0.66924320777E+02  0.25381162977E+03  0.17235576116E+03 0.  0.
         24    2    3    3    0    0 -0.14591574020E+03 -0.54493266105E+02 -0.69633735066E+02  0.18768139236E+03  0.78195451841E+02 0.  0.
         -6    2    1    2    0  502  0.12783306186E+03  0.11787144940E+03 -0.15669781791E+03  0.29069803393E+03  0.17238378840E+03 0.  0.
        -24    2    5    5    0    0  0.15877791024E+03  0.94776645436E+02 -0.10729199608E+03  0.22781736248E+03  0.78715569767E+02 0.  0.
          5    1    3    3  501    0  0.18082678340E+02 -0.63378183297E+02  0.27094142897E+01  0.66130237409E+02  0.47000000000E+01 0. -1.
        -13    1    4    4    0    0 -0.68765140074E+02 -0.50232812890E+02 -0.22971610834E+01  0.85189535327E+02  0.00000000000E+00 0.  1.
         14    1    4    4    0    0 -0.77150600127E+02 -0.42604532143E+01 -0.67336573983E+02  0.10249185703E+03  0.00000000000E+00 0. -1.
         -5    1    5    5    0  502 -0.30944848379E+02  0.23094803965E+02 -0.49405821831E+02  0.62880671451E+02  0.47000000000E+01 0.  1.
         11    1    6    6    0    0  0.76872081325E+01  0.33980200908E+02 -0.35797456875E+02  0.49952028401E+02  0.00000000000E+00 0. -1.
        -12    1    6    6    0    0  0.15109070211E+03  0.60796444528E+02 -0.71494539207E+02  0.17786533408E+03  0.00000000000E+00 0.  1.
</event>
<event>
12    1  0.8728348E-002  0.2567925E+03  0.7818608E-02  0.1109231E+00
         21   -1    0    0  501  502  0.00000000000E+00  0.00000000000E+00  0.56693320877E+02  0.56693320877E+02  0.00000000000E+00 0.  1.
         21   -1    0    0  502  503 -0.00000000000E+00 -0.00000000000E+00 -0.13102189235E+04  0.13102189235E+04  0.00000000000E+00 0.  1.
         -6    2    1    2    0  503  0.11369990677E+03  0.15218930088E+03 -0.86008925028E+03  0.89760564028E+03  0.17278053976E+03 0.  0.
        -24    2    3    3    0    0  0.50504846411E+02  0.15313303972E+03 -0.48037846767E+03  0.51264216835E+03  0.77704911028E+02 0.  0.
          6    2    1    2  501    0 -0.11369990677E+03 -0.15218930088E+03 -0.39343635236E+03  0.46930660411E+03  0.17136882214E+03 0.  0.
         24    2    5    5    0    0  0.36464608106E+01 -0.88645783112E+02 -0.15533319010E+03  0.19631731034E+03  0.80874686101E+02 0.  0.
          5    1    5    5  501    0 -0.11734636758E+03 -0.63543517769E+02 -0.23810316227E+03  0.27298929378E+03  0.47000000000E+01 0. -1.
        -11    1    6    6    0    0 -0.37178701481E+02 -0.55474844046E+02 -0.76528593205E+02  0.10156938389E+03  0.00000000000E+00 0.  1.
         12    1    6    6    0    0  0.40825162291E+02 -0.33170939066E+02 -0.78804596893E+02  0.94747926448E+02  0.00000000000E+00 0. -1.
         -5    1    3    3    0  503  0.63195060363E+02 -0.94373884382E+00 -0.37971078261E+03  0.38496347194E+03  0.47000000000E+01 0.  1.
         13    1    4    4    0    0  0.10973493184E+02  0.33315477575E+02 -0.22585657087E+03  0.22856405930E+03  0.00000000000E+00 0. -1.
        -14    1    4    4    0    0  0.39531353227E+02  0.11981756215E+03 -0.25452189680E+03  0.28407810904E+03  0.00000000000E+00 0.  1.
</event>
<event>
12    1  0.8728348E-002  0.2227102E+03  0.7818608E-02  0.1131904E+00
         21   -1    0    0  503  502  0.00000000000E+00  0.00000000000E+00  0.34768221075E+02  0.34768221075E+02  0.00000000000E+00 0. -1.
         21   -1    0    0  501  503 -0.00000000000E+00 -0.00000000000E+00 -0.16034172897E+04  0.16034172897E+04  0.00000000000E+00 0. -1.
          6    2    1    2  501    0  0.24728988678E+02 -0.14004547695E+03 -0.51184434697E+03  0.55819751390E+03  0.17139302932E+03 0.  0.
         24    2    3    3    0    0  0.31561682267E+02 -0.33005478853E+02 -0.36467822641E+03  0.37603219356E+03  0.79526727267E+02 0.  0.
         -6    2    1    2    0  502 -0.24728988678E+02  0.14004547695E+03 -0.10568047216E+04  0.10799879968E+04  0.17121213504E+03 0.  0.
        -24    2    5    5    0    0  0.37871645020E+02  0.90070469513E+02 -0.39753762030E+03  0.41585582507E+03  0.73163903053E+02 0.  0.
          5    1    3    3  501    0 -0.68326935887E+01 -0.10703999810E+03 -0.14716612055E+03  0.18216532034E+03  0.47000000000E+01 0. -1.
        -11    1    4    4    0    0 -0.12501421797E+02 -0.44455031712E+02 -0.18413391935E+03  0.18983633911E+03  0.00000000000E+00 0.  1.
         12    1    4    4    0    0  0.44063104064E+02  0.11449552859E+02 -0.18054430706E+03  0.18619585445E+03  0.00000000000E+00 0. -1.
         -5    1    5    5    0  502 -0.62600633699E+02  0.49975007440E+02 -0.65926710132E+03  0.66413217178E+03  0.47000000000E+01 0.  1.
         13    1    6    6    0    0  0.80378598408E+01  0.74978786666E+02 -0.17133018101E+03  0.18719096283E+03  0.00000000000E+00 0. -1.
        -14    1    6    6    0    0  0.29833785180E+02  0.15091682848E+02 -0.22620743929E+03  0.22866486223E+03  0.00000000000E+00 0.  1.
</event>
<event>
12    1  0.8728348E-002  0.1739995E+03  0.7818608E-02  0.1173868E+00
         21   -1    0    0  503  502  0.00000000000E+00  0.00000000000E+00  0.21226490979E+03  0.21226490979E+03  0.00000000000E+00 0.  1.
         21   -1    0    0  501  503 -0.00000000000E+00 -0.00000000000E+00 -0.76511627831E+03  0.76511627831E+03  0.00000000000E+00 0.  1.
          6    2    1    2  501    0 -0.11956176973E+02 -0.20462767829E+02 -0.71729010215E+03  0.73797371877E+03  0.17186751850E+03 0.  0.
         24    2    3    3    0    0 -0.41550625570E+02 -0.69221294427E+02 -0.46609399953E+03  0.48034065164E+03  0.83459470035E+02 0.  0.
         -6    2    1    2    0  502  0.11956176973E+02  0.20462767829E+02  0.16443873363E+03  0.23940746933E+03  0.17237796906E+03 0.  0.
        -24    2    5    5    0    0  0.69337077671E+02  0.16061643599E+01  0.42926706456E+02  0.10363043884E+03  0.63924608908E+02 0.  0.
          5    1    3    3  501    0  0.29594448597E+02  0.48758526599E+02 -0.25119610263E+03  0.25763306713E+03  0.47000000000E+01 0. -1.
        -13    1    4    4    0    0 -0.13820810942E+02  0.16341329164E+02 -0.15614789166E+03  0.15760779779E+03  0.00000000000E+00 0.  1.
         14    1    4    4    0    0 -0.27729814628E+02 -0.85562623592E+02 -0.30994610787E+03  0.32273285386E+03  0.00000000000E+00 0. -1.
         -5    1    5    5    0  502 -0.57380900699E+02  0.18856603469E+02  0.12151202718E+03  0.13577703049E+03  0.47000000000E+01 0.  1.
         11    1    6    6    0    0  0.12037547764E+02 -0.11602995108E+02 -0.13985182071E+02  0.21797187185E+02  0.00000000000E+00 0. -1.
        -12    1    6    6    0    0  0.57299529908E+02  0.13209159468E+02  0.56911888527E+02  0.81833251660E+02  0.00000000000E+00 0.  1.
</event>
<event>
12    1  0.8728348E-002  0.1853209E+03  0.7818608E-02  0.1162813E+00
         21   -1    0    0  501  502  0.00000000000E+00  0.00000000000E+00  0.18157077990E+04  0.18157077990E+04  0.00000000000E+00 0. -1.
         21   -1    0    0  502  503 -0.00000000000E+00 -0.00000000000E+00 -0.29908704299E+02  0.29908704299E+02  0.00000000000E+00 0. -1.
         -6    2    1    2    0  503  0.66527852690E+02 -0.17794243924E+02  0.33231673528E+03  0.38036744008E+03  0.17176258798E+03 0.  0.
        -24    2    3    3    0    0  0.47138801504E+02  0.27488035837E+02  0.83535382858E+02  0.12671280977E+03  0.78104527714E+02 0.  0.
          6    2    1    2  501    0 -0.66527852690E+02  0.17794243924E+02  0.14534823594E+04  0.14652490632E+04  0.17205016073E+03 0.  0.
         24    2    5    5    0    0 -0.40212398178E+02 -0.17370366117E+02  0.13576853562E+04  0.13597587377E+04  0.60955162143E+02 0.  0.
          5    1    5    5  501    0 -0.26315454512E+02  0.35164610041E+02  0.95797003186E+02  0.10549032546E+03  0.47000000000E+01 0. -1.
        -11    1    6    6    0    0 -0.56208852984E+02 -0.12165530778E+02  0.96376897757E+03  0.96548333875E+03  0.00000000000E+00 0.  1.
         12    1    6    6    0    0  0.15996454806E+02 -0.52048353389E+01  0.39391637863E+03  0.39427539896E+03  0.00000000000E+00 0. -1.
         -5    1    3    3    0  503  0.19389051186E+02 -0.45282279761E+02  0.24878135242E+03  0.25365463031E+03  0.47000000000E+01 0.  1.
         13    1    4    4    0    0  0.55027872994E+02 -0.95131325687E+01  0.60889407358E+02  0.82620133296E+02  0.00000000000E+00 0. -1.
        -14    1    4    4    0    0 -0.78890714895E+01  0.37001168406E+02  0.22645975501E+02  0.44092676475E+02  0.00000000000E+00 0.  1.
</event>
<event>
12    1  0.8728348E-002  0.1730515E+03  0.7818608E-02  0.1174719E+00
         21   -1    0    0  503  502  0.00000000000E+00  0.00000000000E+00  0.60546704410E+02  0.60546704410E+02  0.00000000000E+00 0.  1.
         21   -1    0    0  501  503 -0.00000000000E+00 -0.00000000000E+00 -0.50420591382E+03  0.50420591382E+03  0.00000000000E+00 0.  1.
          6    2    1    2  501    0  0.18426707955E+02  0.21281977775E+00 -0.26113442266E+03  0.31323297247E+03  0.17200034734E+03 0.  0.
         24    2    3    3    0    0 -0.34026635873E+02  0.28239540669E+02 -0.21421692822E+03  0.23733704605E+03  0.92112417655E+02 0.  0.
         -6    2    1    2    0  502 -0.18426707955E+02 -0.21281977775E+00 -0.18252478675E+03  0.25151964576E+03  0.17206756105E+03 0.  0.
        -24    2    5    5    0    0  0.26040846748E+02 -0.24998293469E+02 -0.18054478953E+03  0.20035624560E+03  0.79013693424E+02 0.  0.
          5    1    3    3  501    0  0.52453343828E+02 -0.28026720891E+02 -0.46917494443E+02  0.75895926422E+02  0.47000000000E+01 0. -1.
        -13    1    4    4    0    0  0.73664449273E+01  0.22509522163E+02 -0.18461192161E+03  0.18612497065E+03  0.00000000000E+00 0.  1.
         14    1    4    4    0    0 -0.41393080800E+02  0.57300185056E+01 -0.29605006601E+02  0.51212075393E+02  0.00000000000E+00 0. -1.
         -5    1    5    5    0  502 -0.44467554703E+02  0.24785473692E+02 -0.19799972254E+01  0.51163400165E+02  0.47000000000E+01 0.  1.
         11    1    6    6    0    0  0.40859999148E+02  0.15533451342E+02 -0.90855828036E+02  0.10082464544E+03  0.00000000000E+00 0. -1.
        -12    1    6    6    0    0 -0.14819152401E+02 -0.40531744812E+02 -0.89688961490E+02  0.99531600150E+02  0.00000000000E+00 0.  1.
</event>
<event>
12    1  0.8728348E-002  0.2479164E+03  0.7818608E-02  0.1114674E+00
         21   -1    0    0  501  502  0.00000000000E+00  0.00000000000E+00  0.49919345811E+03  0.49919345811E+03  0.00000000000E+00 0.  1.
         21   -1    0    0  502  503 -0.00000000000E+00 -0.00000000000E+00 -0.21788336744E+03  0.21788336744E+03  0.00000000000E+00 0.  1.
         -6    2    1    2    0  503  0.70047183061E+02  0.16354772745E+03  0.37723393701E+03  0.45124998234E+03  0.17224005433E+03 0.  0.
        -24    2    3    3    0    0 -0.15910123663E+02  0.52266798810E+02  0.21738219442E+03  0.23830216416E+03  0.80919421015E+02 0.  0.
          6    2    1    2  501    0 -0.70047183061E+02 -0.16354772745E+03 -0.95923846339E+02  0.26582684322E+03  0.17265010648E+03 0.  0.
         24    2    5    5    0    0 -0.60955457225E+01 -0.15890271243E+03 -0.94956901212E+02  0.20152744146E+03  0.79430906316E+02 0.  0.
          5    1    5    5  501    0 -0.63951637338E+02 -0.46450150177E+01 -0.96694512620E+00  0.64299401752E+02  0.47000000000E+01 0. -1.
        -11    1    6    6    0    0 -0.35451773556E+02 -0.11091504253E+03 -0.40644867713E+02  0.12333280253E+03  0.00000000000E+00 0.  1.
         12    1    6    6    0    0  0.29356227833E+02 -0.47987669902E+02 -0.54312033499E+02  0.78194638934E+02  0.00000000000E+00 0. -1.
         -5    1    3    3    0  503  0.85957306724E+02  0.11128092864E+03  0.15985174259E+03  0.21294781818E+03  0.47000000000E+01 0.  1.
         13    1    4    4    0    0 -0.86988961764E+01  0.59139966335E+01 -0.45540813140E+01  0.11462364829E+02  0.00000000000E+00 0. -1.
        -14    1    4    4    0    0 -0.72112274871E+01  0.46352802176E+02  0.22193627574E+03  0.22683979933E+03  0.00000000000E+00 0.  1.
</event>
<event>
12    1  0.8728348E-002  0.1950263E+03  0.7818608E-02  0.1154708E+00
         21   -1    0    0  501  502  0.00000000000E+00  0.00000000000E+00  0.35706207608E+04  0.35706207608E+04  0.00000000000E+00 0.  1.
         21   -1    0    0  502  503 -0.00000000000E+00 -0.00000000000E+00 -0.14477533596E+02  0.14477533596E+02  0.00000000000E+00 0.  1.
         -6    2    1    2    0  503 -0.15319404449E+00  0.87342790317E+02  0.27308124866E+04  0.27377677225E+04  0.17437453650E+03 0.  0.
        -24    2    3    3    0    0 -0.61680480465E+01 -0.70407585505E+01  0.66070086604E+03  0.66549152366E+03  0.79156279457E+02 0.  0.
          6    2    1    2  501    0  0.15319404449E+00 -0.87342790317E+02  0.82533074061E+03  0.84733057189E+03  0.17079074967E+03 0.  0.
         24    2    5    5    0    0  0.66854581639E+01  0.91543854584E+01  0.31311218681E+03  0.32603956654E+03  0.90189019799E+02 0.  0.
          5    1    5    5  501    0 -0.65322641194E+01 -0.96497175775E+02  0.51221855379E+03  0.52129100535E+03  0.47000000000E+01 0. -1.
        -11    1    6    6    0    0  0.26517405679E+02  0.11136504403E+02  0.27695617250E+02  0.39927956987E+02  0.00000000000E+00 0.  1.
         12    1    6    6    0    0 -0.19831947515E+02 -0.19821189448E+01  0.28541656956E+03  0.28611160955E+03  0.00000000000E+00 0. -1.
         -5    1    3    3    0  503  0.60148540020E+01  0.94383548867E+02  0.20701116206E+04  0.20722761989E+04  0.47000000000E+01 0.  1.
         13    1    4    4    0    0 -0.38330821008E+02 -0.45018809565E+01  0.20176703130E+03  0.20542505614E+03  0.00000000000E+00 0. -1.
        -14    1    4    4    0    0  0.32162772961E+02 -0.25388775940E+01  0.45893383474E+03  0.46006646752E+03  0.00000000000E+00 0.  1.
</event>
<event>
12    1  0.8728348E-002  0.2443373E+03  0.7818608E-02  0.1117274E+00
         21   -1    0    0  503  502  0.00000000000E+00  0.00000000000E+00  0.10287521130E+04  0.10287521130E+04  0.00000000000E+00 0. -1.
         21   -1    0    0  501  503 -0.00000000000E+00 -0.00000000000E+00 -0.21708904784E+03  0.21708904784E+03  0.00000000000E+00 0.  1.
          6    2    1    2  501    0  0.17053552636E+03  0.23888873467E+02 -0.12772933303E+03  0.27570905571E+03  0.17334259967E+03 0.  0.
         24    2    3    3    0    0  0.19202806356E+03 -0.52730425921E+01 -0.11257669536E+03  0.23616112363E+03  0.78714559049E+02 0.  0.
         -6    2    1    2    0  502 -0.17053552636E+03 -0.23888873467E+02  0.93939239817E+03  0.97013210510E+03  0.17042646389E+03 0.  0.
        -24    2    5    5    0    0 -0.14981940303E+03 -0.76160520750E+02  0.71631565732E+03  0.74003037721E+03  0.79313049484E+02 0.  0.
          5    1    3    3  501    0 -0.21492537198E+02  0.29161916059E+02 -0.15152637670E+02  0.39547932080E+02  0.47000000000E+01 0. -1.
        -11    1    4    4    0    0  0.11772782002E+03 -0.24942236598E+02 -0.31398300356E+02  0.12436964275E+03  0.00000000000E+00 0.  1.
         12    1    4    4    0    0  0.74300243540E+02  0.19669194006E+02 -0.81178395003E+02  0.11179148088E+03  0.00000000000E+00 0. -1.
         -5    1    5    5    0  502 -0.20716123331E+02  0.52271647283E+02  0.22307674084E+03  0.23010172790E+03  0.47000000000E+01 0.  1.
         11    1    6    6    0    0 -0.57268501800E+02  0.61095140076E+01  0.30846136180E+03  0.31379199987E+03  0.00000000000E+00 0. -1.
        -12    1    6    6    0    0 -0.92550901228E+02 -0.82270034757E+02  0.40785429552E+03  0.42623837734E+03  0.00000000000E+00 0.  1.
</event>
<event>
12    1  0.8728348E-002  0.1743907E+03  0.7818608E-02  0.1174394E+00
         21   -1    0    0  503  502  0.00000000000E+00  0.00000000000E+00  0.41969076794E+02  0.41969076794E+02  0.00000000000E+00 0. -1.
         21   -1    0    0  501  503 -0.00000000000E+00 -0.00000000000E+00 -0.83507954208E+03  0.83507954208E+03  0.00000000000E+00 0. -1.
          6    2    1    2  501    0 -0.26954308988E+02 -0.20971930725E+02 -0.56383267814E+03  0.58898538639E+03  0.16682367874E+03 0.  0.
         24    2    3    3    0    0  0.39762987961E+02  0.20576704952E+02 -0.29997939474E+03  0.31363446120E+03  0.79840102623E+02 0.  0.
         -6    2    1    2    0  502  0.26954308988E+02  0.20971930725E+02 -0.22927778714E+03  0.28806323248E+03  0.17101393388E+03 0.  0.
        -24    2    5    5    0    0  0.38260972374E+02  0.59592526750E+02 -0.22326634824E+03  0.24710449139E+03  0.78724812835E+02 0.  0.
          5    1    3    3  501    0 -0.66717296949E+02 -0.41548635676E+02 -0.26385328340E+03  0.27535092519E+03  0.47000000000E+01 0. -1.
        -11    1    4    4    0    0  0.10148846323E+02  0.40870817143E+02 -0.24050989091E+03  0.24416885633E+03  0.00000000000E+00 0.  1.
         12    1    4    4    0    0  0.29614141637E+02 -0.20294112191E+02 -0.59469503829E+02  0.69465604872E+02  0.00000000000E+00 0. -1.
         -5    1    5    5    0  502 -0.11306663386E+02 -0.38620596025E+02 -0.60114388985E+01  0.40958741093E+02  0.47000000000E+01 0.  1.
         11    1    6    6    0    0  0.15508784087E+02 -0.18583826052E+02 -0.44109632606E+02  0.50314418045E+02  0.00000000000E+00 0. -1.
        -12    1    6    6    0    0  0.22752188287E+02  0.78176352802E+02 -0.17915671563E+03  0.19679007334E+03  0.00000000000E+00 0.  1.
</event>
<event>
12    1  0.8728348E-002  0.2098848E+03  0.7818608E-02  0.1141985E+00
         21   -1    0    0  503  502  0.00000000000E+00  0.00000000000E+00  0.17113297131E+04  0.17113297131E+04  0.00000000000E+00 0. -1.
         21   -1    0    0  501  503 -0.00000000000E+00 -0.00000000000E+00 -0.36502670888E+02  0.36502670888E+02  0.00000000000E+00 0. -1.
          6    2    1    2  501    0  0.10446399667E+03 -0.43482866789E+02  0.35616520007E+03  0.41257184874E+03  0.17480959448E+03 0.  0.
         24    2    3    3    0    0 -0.11176194540E+02 -0.43119996229E+02  0.12415945311E+03  0.15330067386E+03  0.78110725321E+02 0.  0.
         -6    2    1    2    0  502 -0.10446399667E+03  0.43482866789E+02  0.13186618421E+04  0.13352605352E+04  0.17677148181E+03 0.  0.
        -24    2    5    5    0    0 -0.11510795366E+03 -0.21940177981E+02  0.97501264844E+03  0.98524578279E+03  0.79551087290E+02 0.  0.
          5    1    3    3  501    0  0.11564019121E+03 -0.36287056002E+00  0.23200574696E+03  0.25927117488E+03  0.47000000000E+01 0. -1.
        -13    1    4    4    0    0 -0.36648338621E+02  0.32403121072E+01  0.45585864136E+02  0.58580469060E+02  0.00000000000E+00 0.  1.
         14    1    4    4    0    0  0.25472144082E+02 -0.46360308336E+02  0.78573588976E+02  0.94720204802E+02  0.00000000000E+00 0. -1.
         -5    1    5    5    0  502  0.10643956992E+02  0.65423044770E+02  0.34364919368E+03  0.35001475244E+03  0.47000000000E+01 0.  1.
         13    1    6    6    0    0 -0.93128037162E+02  0.31573463542E+01  0.87202361302E+03  0.87698801691E+03  0.00000000000E+00 0. -1.
        -14    1    6    6    0    0 -0.21979916501E+02 -0.25097524335E+02  0.10298903542E+03  0.10825776588E+03  0.00000000000E+00 0.  1.
</event>
<event>
12    1  0.8728348E-002  0.1840669E+03  0.7818608E-02  0.1165096E+00
         21   -1    0    0  503  502  0.00000000000E+00  0.00000000000E+00  0.15194049063E+04  0.15194049063E+04  0.00000000000E+00 0. -1.
         21   -1    0    0  501  503 -0.00000000000E+00 -0.00000000000E+00 -0.34519904959E+02  0.34519904959E+02  0.00000000000E+00 0. -1.
          6    2    1    2  501    0  0.27015547456E+02 -0.40261483381E+02  0.26279590495E+03  0.31805169043E+03  0.17246554229E+03 0.  0.
         24    2    3    3    0    0 -0.51407898162E+00  0.39885216599E+02  0.15382621400E+03  0.17992907318E+03  0.84385262234E+02 0.  0.
         -6    2    1    2    0  502 -0.27015547456E+02  0.40261483381E+02  0.12220890964E+04  0.12358731209E+04  0.17756628177E+03 0.  0.
        -24    2    5    5    0    0  0.23773314065E+02 -0.31613178863E+02  0.71181776597E+03  0.71804651261E+03  0.85683713654E+02 0.  0.
          5    1    3    3  501    0  0.27529626438E+02 -0.80146699980E+02  0.10896969095E+03  0.13812261725E+03  0.47000000000E+01 0. -1.
        -13    1    4    4    0    0 -0.27824359191E+02 -0.12373887226E+02  0.78973393711E+02  0.84641035932E+02  0.00000000000E+00 0.  1.
         14    1    4    4    0    0  0.27310280209E+02  0.52259103826E+02  0.74852820287E+02  0.95288037248E+02  0.00000000000E+00 0. -1.
         -5    1    5    5    0  502 -0.50788861521E+02  0.71874662244E+02  0.51027133044E+03  0.51782660824E+03  0.47000000000E+01 0.  1.
         13    1    6    6    0    0  0.41440921487E+02 -0.44685685582E+02  0.32890988433E+03  0.33450840420E+03  0.00000000000E+00 0. -1.
        -14    1    6    6    0    0 -0.17667607421E+02  0.13072506718E+02  0.38290788164E+03  0.38353810842E+03  0.00000000000E+00 0.  1.
</event>
<event>
12    1  0.8728348E-002  0.2308104E+03  0.7818608E-02  0.1126331E+00
         21   -1    0    0  501  502  0.00000000000E+00  0.00000000000E+00  0.19705767661E+04  0.19705767661E+04  0.00000000000E+00 0.  1.
         21   -1    0    0  502  503 -0.00000000000E+00 -0.00000000000E+00 -0.45091459540E+02  0.45091459540E+02  0.00000000000E+00 0. -1.
         -6    2    1    2    0  503  0.23817740564E+02 -0.14970643751E+03  0.32007162012E+03  0.39374758487E+03  0.17208142373E+03 0.  0.
        -24    2    3    3    0    0  0.33485011511E+02 -0.13993447415E+03  0.15043993311E+03  0.22349498833E+03  0.81332240102E+02 0.  0.
          6    2    1    2  501    0 -0.23817740564E+02  0.14970643751E+03  0.16054136865E+04  0.16219206408E+04  0.17405217071E+03 0.  0.
         24    2    5    5    0    0  0.81330494205E+01  0.12338760267E+02  0.81931517445E+03  0.82325694916E+03  0.79096509151E+02 0.  0.
          5    1    5    5  501    0 -0.31950789985E+02  0.13736767724E+03  0.78609851201E+03  0.79866369163E+03  0.47000000000E+01 0. -1.
        -13    1    6    6    0    0 -0.71826552486E-01  0.29451633324E+02  0.11582435162E+03  0.11951018489E+03  0.00000000000E+00 0.  1.
         14    1    6    6    0    0  0.82048759730E+01 -0.17112873057E+02  0.70349082284E+03  0.70374676427E+03  0.00000000000E+00 0. -1.
         -5    1    3    3    0  503 -0.96672709465E+01 -0.97719633540E+01  0.16963168700E+03  0.17025259655E+03  0.47000000000E+01 0.  1.
         11    1    4    4    0    0 -0.25561877568E+02 -0.49920265326E+02  0.37491393783E+02  0.67461448864E+02  0.00000000000E+00 0. -1.
        -12    1    4    4    0    0  0.59046889079E+02 -0.90014208825E+02  0.11294853933E+03  0.15603353946E+03  0.00000000000E+00 0.  1.
</event>
<event>
12    1  0.8728348E-002  0.1851642E+03  0.7818608E-02  0.1163117E+00
         21   -1    0    0  503  502  0.00000000000E+00  0.00000000000E+00  0.26998328333E+03  0.26998328333E+03  0.00000000000E+00 0. -1.
         21   -1    0    0  501  503 -0.00000000000E+00 -0.00000000000E+00 -0.13127792838E+03  0.13127792838E+03  0.00000000000E+00 0.  1.
          6    2    1    2  501    0  0.47848319714E+02  0.51488687083E+02  0.30643157056E+02  0.18768267873E+03  0.17130451898E+03 0.  0.
         24    2    3    3    0    0 -0.46477497836E+01 -0.32897487881E+02  0.11670795689E+02  0.86396429249E+02  0.78894164727E+02 0.  0.
         -6    2    1    2    0  502 -0.47848319714E+02 -0.51488687083E+02  0.10806219789E+03  0.21357853298E+03  0.17028741745E+03 0.  0.
        -24    2    5    5    0    0  0.15836881278E+02  0.20296308180E+02  0.30158737906E+02  0.89885649404E+02  0.80666805827E+02 0.  0.
          5    1    3    3  501    0  0.52496069497E+02  0.84386174964E+02  0.18972361366E+02  0.10128624948E+03  0.47000000000E+01 0. -1.
        -13    1    4    4    0    0  0.23106058967E+02  0.87764761542E+01  0.24402447448E+02  0.34733210852E+02  0.00000000000E+00 0.  1.
         14    1    4    4    0    0 -0.27753808750E+02 -0.41673964035E+02 -0.12731651759E+02  0.51663218396E+02  0.00000000000E+00 0. -1.
         -5    1    5    5    0  502 -0.63685200992E+02 -0.71784995263E+02  0.77903459983E+02  0.12369288358E+03  0.47000000000E+01 0.  1.
         13    1    6    6    0    0  0.40983993775E+02 -0.12956736945E+02  0.15113527618E+02  0.45562961878E+02  0.00000000000E+00 0. -1.
        -14    1    6    6    0    0 -0.25147112496E+02  0.33253045124E+02  0.15045210287E+02  0.44322687526E+02  0.00000000000E+00 0.  1.
</event>
<event>
12    1  0.8728348E-002  0.1858239E+03  0.7818608E-02  0.1162415E+00
         21   -1    0    0  503  502  0.00000000000E+00  0.00000000000E+00  0.16538979276E+02  0.16538979276E+02  0.00000000000E+00 0.  1.
         21   -1    0    0  501  503 -0.00000000000E+00 -0.00000000000E+00 -0.41874807461E+04  0.41874807461E+04  0.00000000000E+00 0.  1.
          6    2    1    2  501    0  0.14218439949E+02  0.67033162467E+02 -0.35745850864E+04  0.35793823791E+04  0.17211643421E+03 0.  0.
         24    2    3    3    0    0  0.11466031185E+02  0.11269365220E+03 -0.25518786206E+04  0.25556426362E+04  0.79959116693E+02 0.  0.
         -6    2    1    2    0  502 -0.14218439949E+02 -0.67033162467E+02 -0.59635668045E+03  0.62463734631E+03  0.17272786453E+03 0.  0.
        -24    2    5    5    0    0 -0.60700978057E+02 -0.69135978776E+02 -0.52703608110E+03  0.54101627433E+03  0.80418816251E+02 0.  0.
          5    1    3    3  501    0  0.27524087635E+01 -0.45660489730E+02 -0.10227064658E+04  0.10237397429E+04  0.47000000000E+01 0. -1.
        -13    1    4    4    0    0  0.21624774799E+02  0.22993590823E+02 -0.13537663003E+04  0.13541342371E+04  0.00000000000E+00 0.  1.
         14    1    4    4    0    0 -0.10158743613E+02  0.89700061374E+02 -0.11981123203E+04  0.12015083991E+04  0.00000000000E+00 0. -1.
         -5    1    5    5    0  502  0.46482538109E+02  0.21028163089E+01 -0.69320599343E+02  0.83621071978E+02  0.47000000000E+01 0.  1.
         13    1    6    6    0    0  0.12187228024E+02  0.90932714621E+01 -0.71714110951E+02  0.73308456690E+02  0.00000000000E+00 0. -1.
        -14    1    6    6    0    0 -0.72888206081E+02 -0.78229250238E+02 -0.45532197015E+03  0.46770781764E+03  0.00000000000E+00 0.  1.
</event>
<event>
12    1  0.8728348E-002  0.2644537E+03  0.7818608E-02  0.1104562E+00
         21   -1    0    0  503  502  0.00000000000E+00  0.00000000000E+00  0.65370103343E+02  0.65370103343E+02  0.00000000000E+00 0. -1.
         21   -1    0    0  501  503 -0.00000000000E+00 -0.00000000000E+00 -0.11857153180E+04  0.11857153180E+04  0.00000000000E+00 0.  1.
          6    2    1    2  501    0 -0.27513943545E+02  0.19854339454E+03 -0.75681478466E+03  0.80154106222E+03  0.17182246518E+03 0.  0.
         24    2    3    3    0    0  0.33769202500E+02  0.55373205523E+02 -0.22308441245E+03  0.24553429316E+03  0.79459946614E+02 0.  0.
         -6    2    1    2    0  502  0.27513943545E+02 -0.19854339454E+03 -0.36353043003E+03  0.44954435916E+03  0.17250872641E+03 0.  0.
        -24    2    5    5    0    0  0.59043197293E+02 -0.15904788150E+03 -0.34996278659E+03  0.39700713102E+03  0.79739465273E+02 0.  0.
          5    1    3    3  501    0 -0.61283146045E+02  0.14317018902E+03 -0.53373037222E+03  0.55600676906E+03  0.47000000000E+01 0. -1.
        -11    1    4    4    0    0  0.14810616556E+02  0.67109763651E+02 -0.10588557224E+03  0.12623323314E+03  0.00000000000E+00 0.  1.
         12    1    4    4    0    0  0.18958585944E+02 -0.11736558128E+02 -0.11719884020E+03  0.11930106002E+03  0.00000000000E+00 0. -1.
         -5    1    5    5    0  502 -0.31529253748E+02 -0.39495513041E+02 -0.13567643440E+02  0.52537228142E+02  0.47000000000E+01 0.  1.
         13    1    6    6    0    0  0.28992268445E+02 -0.10903333447E+02 -0.10202064277E+03  0.10661916273E+03  0.00000000000E+00 0. -1.
        -14    1    6    6    0    0  0.30050928849E+02 -0.14814454805E+03 -0.24794214382E+03  0.29038796829E+03  0.00000000000E+00 0.  1.
</event>
<event>
12    1  0.8728348E-002  0.2221754E+03  0.7818608E-02  0.1133301E+00
         21   -1    0    0  501  502  0.00000000000E+00  0.00000000000E+00  0.37668464594E+03  0.37668464594E+03  0.00000000000E+00 0.  1.
         21   -1    0    0  502  503 -0.00000000000E+00 -0.00000000000E+00 -0.21298251813E+03  0.21298251813E+03  0.00000000000E+00 0.  1.
         -6    2    1    2    0  503 -0.13755832359E+03  0.30520516480E+02 -0.10520655483E+03  0.24084943860E+03  0.16457897368E+03 0.  0.
        -24    2    3    3    0    0 -0.20574483801E+02 -0.26406469789E+02 -0.44458970272E+02  0.97189215961E+02  0.79677679628E+02 0.  0.
          6    2    1    2  501    0  0.13755832359E+03 -0.30520516480E+02  0.26890868265E+03  0.34881772547E+03  0.17177931099E+03 0.  0.
         24    2    5    5    0    0  0.16152976152E+03  0.13071864293E+01  0.23721501170E+03  0.29768836710E+03  0.79081157914E+02 0.  0.
          5    1    5    5  501    0 -0.23971437931E+02 -0.31827702910E+02  0.31693670942E+02  0.51129358364E+02  0.47000000000E+01 0. -1.
        -13    1    6    6    0    0  0.81533777165E+02  0.11444828170E+02  0.56659907047E+02  0.99945414988E+02  0.00000000000E+00 0.  1.
         14    1    6    6    0    0  0.79995984358E+02 -0.10137641741E+02  0.18055510466E+03  0.19774295212E+03  0.00000000000E+00 0. -1.
         -5    1    3    3    0  503 -0.11698383979E+03  0.56926986270E+02 -0.60747584561E+02  0.14366022264E+03  0.47000000000E+01 0.  1.
         13    1    4    4    0    0  0.27815982007E+02 -0.19867528809E+02 -0.31933329205E+02  0.46778040469E+02  0.00000000000E+00 0. -1.
        -14    1    4    4    0    0 -0.48390465808E+02 -0.65389409801E+01 -0.12525641067E+02  0.50411175491E+02  0.00000000000E+00 0.  1.
</event>
<event>
12    1  0.8728348E-002  0.1955733E+03  0.7818608E-02  0.1154143E+00
         21   -1    0    0  503  502  0.00000000000E+00  0.00000000000E+00  0.89990757947E+02  0.89990757947E+02  0.00000000000E+00 0. -1.
         21   -1    0    0  501  503 -0.00000000000E+00 -0.00000000000E+00 -0.50232695582E+03  0.50232695582E+03  0.00000000000E+00 0. -1.
          6    2    1    2  501    0  0.57706389459E+02 -0.72755832989E+02 -0.32806402347E+03  0.38193576571E+03  0.17212055952E+03 0.  0.
         24    2    3    3    0    0 -0.70643798739E+01 -0.74250474199E+02 -0.10981308101E+03  0.15422311697E+03  0.78503621973E+02 0.  0.
         -6    2    1    2    0  502 -0.57706389459E+02  0.72755832989E+02 -0.84272174405E+02  0.21038194807E+03  0.16892402456E+03 0.  0.
        -24    2    5    5    0    0 -0.64198992147E+02  0.72812433008E+02  0.33429339919E+01  0.12240095971E+03  0.74482606939E+02 0.  0.
          5    1    3    3  501    0  0.64770769333E+02  0.14946412099E+01 -0.21825094246E+03  0.22771264874E+03  0.47000000000E+01 0. -1.
        -11    1    4    4    0    0 -0.47579389727E+01  0.13670520352E+02 -0.12854827869E+01  0.14531812549E+02  0.00000000000E+00 0.  1.
         12    1    4    4    0    0 -0.23064409013E+01 -0.87920994552E+02 -0.10852759823E+03  0.13969130442E+03  0.00000000000E+00 0. -1.
         -5    1    5    5    0  502  0.64926026879E+01 -0.56600018318E-01 -0.87615108397E+02  0.87980988359E+02  0.47000000000E+01 0.  1.
         11    1    6    6    0    0 -0.33448839437E+02  0.79050073693E+02 -0.13338555193E+02  0.86865735853E+02  0.00000000000E+00 0. -1.
        -12    1    6    6    0    0 -0.30750152709E+02 -0.62376406853E+01  0.16681489185E+02  0.35535223855E+02  0.00000000000E+00 0.  1.
</event>
<event>
12    1  0.8728348E-002  0.1962673E+03  0.7818608E-02  0.1152934E+00
         21   -1    0    0  503  502  0.00000000000E+00  0.00000000000E+00  0.39861528764E+03  0.39861528764E+03  0.00000000000E+00 0. -1.
         21   -1    0    0  501  503 -0.00000000000E+00 -0.00000000000E+00 -0.25688525018E+03  0.25688525018E+03  0.00000000000E+00 0.  1.
          6    2    1    2  501    0 -0.49412750587E+02 -0.78719662607E+02 -0.18800843193E+03  0.27178673938E+03  0.17286542750E+03 0.  0.
         24    2    3    3    0    0 -0.33110113022E+02 -0.18772874893E+02 -0.13419414225E+02  0.86414658278E+02  0.76411465573E+02 0.  0.
         -6    2    1    2    0  502  0.49412750587E+02  0.78719662607E+02  0.32973846939E+03  0.38371379844E+03  0.17283059832E+03 0.  0.
        -24    2    5    5    0    0  0.27210124795E+02  0.10189725688E+03  0.14418363422E+03  0.19534489357E+03  0.79039643309E+02 0.  0.
          5    1    3    3  501    0 -0.16302637565E+02 -0.59946787714E+02 -0.17458901771E+03  0.18537208110E+03  0.47000000000E+01 0. -1.
        -11    1    4    4    0    0 -0.11702862332E+02  0.18620049172E+02 -0.32540536304E+02  0.39275306757E+02  0.00000000000E+00 0.  1.
         12    1    4    4    0    0 -0.21407250690E+02 -0.37392924065E+02  0.19121122079E+02  0.47139351521E+02  0.00000000000E+00 0. -1.
         -5    1    5    5    0  502  0.22202625792E+02 -0.23177594273E+02  0.18555483516E+03  0.18836890487E+03  0.47000000000E+01 0.  1.
         13    1    6    6    0    0  0.10930392610E+02  0.90619174262E+00  0.65173681399E+02  0.66090115851E+02  0.00000000000E+00 0. -1.
        -14    1    6    6    0    0  0.16279732186E+02  0.10099106514E+03  0.79009952825E+02  0.12925477772E+03  0.00000000000E+00 0.  1.
</event>
<event>
12    1  0.8728348E-002  0.1834026E+03  0.7818608E-02  0.1165096E+00
         21   -1    0    0  501  502  0.00000000000E+00  0.00000000000E+00  0.41377408242E+03  0.41377408242E+03  0.00000000000E+00 0.  1.
         21   -1    0    0  502  503 -0.00000000000E+00 -0.00000000000E+00 -0.40502538182E+03  0.40502538182E+03  0.00000000000E+00 0.  1.
         -6    2    1    2    0  503  0.43544973943E+02  0.40553118152E+02 -0.36221864534E+03  0.40497185714E+03  0.17105302655E+03 0.  0.
        -24    2    3    3    0    0  0.75437753506E+02  0.44545607597E+02 -0.15368677790E+03  0.19392513459E+03  0.79449142942E+02 0.  0.
          6    2    1    2  501    0 -0.43544973943E+02 -0.40553118152E+02  0.37096734594E+03  0.41382760710E+03  0.17348140102E+03 0.  0.
         24    2    5    5    0    0  0.40478536194E+02 -0.24353445669E+01  0.21300346340E+03  0.23083145112E+03  0.79172221194E+02 0.  0.
          5    1    5    5  501    0 -0.84023510137E+02 -0.38117773585E+02  0.15796388254E+03  0.18299615599E+03  0.47000000000E+01 0. -1.
        -11    1    6    6    0    0  0.18493724036E+02  0.36628717685E+02  0.13227108642E+03  0.13848942592E+03  0.00000000000E+00 0.  1.
         12    1    6    6    0    0  0.21984812159E+02 -0.39064062251E+02  0.80732376976E+02  0.92342025197E+02  0.00000000000E+00 0. -1.
         -5    1    3    3    0  503 -0.31892779563E+02 -0.39924894443E+01 -0.20853186744E+03  0.21104672255E+03  0.47000000000E+01 0.  1.
         13    1    4    4    0    0  0.59180863527E+02  0.32643350003E+02 -0.15927052118E+03  0.17301751884E+03  0.00000000000E+00 0. -1.
        -14    1    4    4    0    0  0.16256889979E+02  0.11902257594E+02  0.55837432769E+01  0.20907615756E+02  0.00000000000E+00 0.  1.
</event>
<event>
12    1  0.8728348E-002  0.1879918E+03  0.7818608E-02  0.1160319E+00
         21   -1    0    0  503  502  0.00000000000E+00  0.00000000000E+00  0.11291049696E+03  0.11291049696E+03  0.00000000000E+00 0.  1.
         21   -1    0    0  501  503 -0.00000000000E+00 -0.00000000000E+00 -0.50639573000E+03  0.50639573000E+03  0.00000000000E+00 0. -1.
          6    2    1    2  501    0 -0.71754426124E+02  0.20684417312E+02 -0.38827405811E+03  0.43139036080E+03  0.17252349522E+03 0.  0.
         24    2    3    3    0    0 -0.40370021283E+02  0.37882173410E+02 -0.92000462438E+02  0.13292616333E+03  0.78361228471E+02 0.  0.
         -6    2    1    2    0  502  0.71754426124E+02 -0.20684417312E+02 -0.52111749336E+01  0.18791586615E+03  0.17236204228E+03 0.  0.
        -24    2    5    5    0    0  0.46425943400E+02 -0.44036889711E+02 -0.63477338183E+02  0.12006377861E+03  0.79317857985E+02 0.  0.
          5    1    3    3  501    0 -0.31384404842E+02 -0.17197756098E+02 -0.29627359567E+03  0.29846419747E+03  0.47000000000E+01 0. -1.
        -13    1    4    4    0    0 -0.17661932874E+02 -0.22012775877E+02 -0.12595552868E+02  0.30905567892E+02  0.00000000000E+00 0.  1.
         14    1    4    4    0    0 -0.22708088409E+02  0.59894949287E+02 -0.79404909570E+02  0.10202059544E+03  0.00000000000E+00 0. -1.
         -5    1    5    5    0  502  0.25328482724E+02  0.23352472400E+02  0.58266163250E+02  0.67852087544E+02  0.47000000000E+01 0.  1.
         13    1    6    6    0    0 -0.77834494185E+01 -0.45467757289E+01 -0.51067846777E+02  0.51857306417E+02  0.00000000000E+00 0. -1.
        -14    1    6    6    0    0  0.54209392819E+02 -0.39490113983E+02 -0.12409491406E+02  0.68206472194E+02  0.00000000000E+00 0.  1.
</event>
<event>
12    1  0.8728348E-002  0.2404870E+03  0.7818608E-02  0.1119592E+00
         21   -1    0    0  503  502  0.00000000000E+00  0.00000000000E+00  0.21573907295E+03  0.21573907295E+03  0.00000000000E+00 0. -1.
         21   -1    0    0  501  503 -0.00000000000E+00 -0.00000000000E+00 -0.28314795585E+03  0.28314795585E+03  0.00000000000E+00 0.  1.
          6    2    1    2  501    0 -0.64648345243E+02  0.15471279021E+03 -0.92866414066E+02  0.25779485380E+03  0.17239071838E+03 0.  0.
         24    2    3    3    0    0  0.19718324966E+02  0.11100652894E+03 -0.85003750464E+02  0.16233866596E+03  0.80105824181E+02 0.  0.
         -6    2    1    2    0  502  0.64648345243E+02 -0.15471279021E+03  0.25457531166E+02  0.24109217500E+03  0.17135312940E+03 0.  0.
        -24    2    5    5    0    0  0.20715116350E+02 -0.10115051805E+03  0.85342223136E+02  0.14940077991E+03  0.66157045295E+02 0.  0.
          5    1    3    3  501    0 -0.84366670209E+02  0.43706261279E+02 -0.78626636013E+01  0.95456187835E+02  0.47000000000E+01 0. -1.
        -11    1    4    4    0    0 -0.75000923755E+01  0.83056077031E+02 -0.90357285345E+02  0.12295935236E+03  0.00000000000E+00 0.  1.
         12    1    4    4    0    0  0.27218417341E+02  0.27950451905E+02  0.53535348803E+01  0.39379313604E+02  0.00000000000E+00 0. -1.
         -5    1    5    5    0  502  0.43933228893E+02 -0.53562272166E+02 -0.59884691970E+02  0.91691395086E+02  0.47000000000E+01 0.  1.
         11    1    6    6    0    0 -0.26140660857E+01  0.80228578434E+01  0.15693219190E+02  0.17817876361E+02  0.00000000000E+00 0. -1.
        -12    1    6    6    0    0  0.23329182436E+02 -0.10917337589E+03  0.69649003947E+02  0.13158290355E+03  0.00000000000E+00 0.  1.
</event>
<event>
12    1  0.8728348E-002  0.1903260E+03  0.7818608E-02  0.1158480E+00
         21   -1    0    0  503  502  0.00000000000E+00  0.00000000000E+00  0.64483170823E+02  0.64483170823E+02  0.00000000000E+00 0. -1.
         21   -1    0    0  501  503 -0.00000000000E+00 -0.00000000000E+00 -0.11551671434E+04  0.11551671434E+04  0.00000000000E+00 0. -1.
          6    2    1    2  501    0  0.67240858805E+02 -0.44337040556E+02 -0.98295695501E+03  0.10009517118E+04  0.17091766334E+03 0.  0.
         24    2    3    3    0    0 -0.27785032829E+01 -0.79090752047E+02 -0.58966021194E+03  0.59993431859E+03  0.77194261009E+02 0.  0.
         -6    2    1    2    0  502 -0.67240858805E+02  0.44337040556E+02 -0.10772701762E+03  0.21869860250E+03  0.17244379418E+03 0.  0.
        -24    2    5    5    0    0 -0.82525909028E+02  0.73156955282E+02 -0.12264757349E+03  0.18251942019E+03  0.78156546082E+02 0.  0.
          5    1    3    3  501    0  0.70019362088E+02  0.34753711491E+02 -0.39329674307E+03  0.40101739318E+03  0.47000000000E+01 0. -1.
        -13    1    4    4    0    0 -0.68020640278E+01 -0.46674728572E+02 -0.11704503152E+03  0.12619167075E+03  0.00000000000E+00 0.  1.
         14    1    4    4    0    0  0.40235607450E+01 -0.32416023475E+02 -0.47261518042E+03  0.47374264784E+03  0.00000000000E+00 0. -1.
         -5    1    5    5    0  502  0.15285050223E+02 -0.28819914726E+02  0.14920555874E+02  0.36179182311E+02  0.47000000000E+01 0.  1.
         11    1    6    6    0    0 -0.33761427059E+02 -0.97298172098E+01 -0.53764423162E+02  0.64227069822E+02  0.00000000000E+00 0. -1.
        -12    1    6    6    0    0 -0.48764481969E+02  0.82886772492E+02 -0.68883150328E+02  0.11829235036E+03  0.00000000000E+00 0.  1.
</event>
<event>
12    1  0.8728348E-002  0.2165570E+03  0.7818608E-02  0.1136617E+00
         21   -1    0    0  501  502  0.00000000000E+00  0.00000000000E+00  0.30803293282E+02  0.30803293282E+02  0.00000000000E+00 0.  1.
         21   -1    0    0  502  503 -0.00000000000E+00 -0.00000000000E+00 -0.18609239766E+04  0.18609239766E+04  0.00000000000E+00 0. -1.
         -6    2    1    2    0  503  0.10660721198E+03 -0.75594011551E+02 -0.50987926406E+03  0.55396192570E+03  0.17267715246E+03 0.  0.
        -24    2    3    3    0    0  0.82927048449E+02 -0.73054642536E+02 -0.51174946219E+03  0.52961472502E+03  0.79939782047E+02 0.  0.
          6    2    1    2  501    0 -0.10660721198E+03  0.75594011551E+02 -0.13202414192E+04  0.13377653441E+04  0.17175319134E+03 0.  0.
         24    2    5    5    0    0 -0.57944255201E+02  0.11463976722E+03 -0.83271523082E+03  0.84624064611E+03  0.78795701349E+02 0.  0.
          5    1    5    5  501    0 -0.48662956778E+02 -0.39045755674E+02 -0.48752618839E+03  0.49152469802E+03  0.47000000000E+01 0. -1.
        -11    1    6    6    0    0 -0.33179752058E+02  0.78403818154E+02 -0.72417892985E+03  0.72916608334E+03  0.00000000000E+00 0.  1.
         12    1    6    6    0    0 -0.24764503143E+02  0.36235949070E+02 -0.10853630097E+03  0.11707456278E+03  0.00000000000E+00 0. -1.
         -5    1    3    3    0  503  0.23680163530E+02 -0.25393690150E+01  0.18701981272E+01  0.24347200677E+02  0.47000000000E+01 0.  1.
         11    1    4    4    0    0 -0.42477625226E+01 -0.38694240602E+02 -0.21257140799E+03  0.21610620360E+03  0.00000000000E+00 0. -1.
        -12    1    4    4    0    0  0.87174810972E+02 -0.34360401934E+02 -0.29917805420E+03  0.31350852142E+03  0.00000000000E+00 0.  1.
</event>
<event>
12    1  0.8728348E-002  0.2063478E+03  0.7818608E-02  0.1144837E+00
         21   -1    0    0  501  502  0.00000000000E+00  0.00000000000E+00  0.75527491760E+02  0.75527491760E+02  0.00000000000E+00 0.  1.
         21   -1    0    0  502  503 -0.00000000000E+00 -0.00000000000E+00 -0.61653191664E+03  0.61653191664E+03  0.00000000000E+00 0.  1.
         -6    2    1    2    0  503 -0.15052485454E+02  0.10965908713E+03 -0.37507442658E+03  0.42727240124E+03  0.17213130649E+03 0.  0.
        -24    2    3    3    0    0 -0.67422268283E+02  0.42456332194E+02 -0.25687088814E+03  0.28148841403E+03  0.83094955669E+02 0.  0.
          6    2    1    2  501    0  0.15052485454E+02 -0.10965908713E+03 -0.16592999829E+03  0.26478700716E+03  0.17414850594E+03 0.  0.
         24    2    5    5    0    0  0.37385704518E+02 -0.93722738200E+02 -0.18910075938E+03  0.22856941392E+03  0.79392929292E+02 0.  0.
          5    1    5    5  501    0 -0.22333219065E+02 -0.15936348927E+02  0.23170761089E+02  0.36217593244E+02  0.47000000000E+01 0. -1.
        -11    1    6    6    0    0  0.56225692110E+02 -0.35544103584E+02 -0.11057059143E+03  0.12903707778E+03  0.00000000000E+00 0.  1.
         12    1    6    6    0    0 -0.18839987592E+02 -0.58178634617E+02 -0.78530167950E+02  0.99532336135E+02  0.00000000000E+00 0. -1.
         -5    1    3    3    0  503  0.52369782830E+02  0.67202754933E+02 -0.11820353844E+03  0.14578398720E+03  0.47000000000E+01 0.  1.
         11    1    4    4    0    0  0.16793027520E+02  0.57277113756E+01 -0.82576223729E+02  0.84460909160E+02  0.00000000000E+00 0. -1.
        -12    1    4    4    0    0 -0.84215295803E+02  0.36728620819E+02 -0.17429466441E+03  0.19702750487E+03  0.00000000000E+00 0.  1.
</event>
<event>
12    1  0.8728348E-002  0.2322774E+03  0.7818608E-02  0.1125214E+00
         21   -1    0    0  501  502  0.00000000000E+00  0.00000000000E+00  0.48914928195E+02  0.48914928195E+02  0.00000000000E+00 0. -1.
         21   -1    0    0  502  503 -0.00000000000E+00 -0.00000000000E+00 -0.11725469595E+04  0.11725469595E+04  0.00000000000E+00 0. -1.
         -6    2    1    2    0  503  0.48963178995E+02  0.14707869292E+03 -0.71644668972E+03  0.75315910867E+03  0.17298337766E+03 0.  0.
        -24    2    3    3    0    0  0.81875059048E+02  0.14076979310E+03 -0.45958532791E+03  0.49407834277E+03  0.79844068163E+02 0.  0.
          6    2    1    2  501    0 -0.48963178995E+02 -0.14707869292E+03 -0.40718534155E+03  0.46830277899E+03  0.17169174596E+03 0.  0.
         24    2    5    5    0    0 -0.68102662137E+02 -0.17067093098E+03 -0.36107458560E+03  0.41288432245E+03  0.79574292884E+02 0.  0.
          5    1    5    5  501    0  0.19139483143E+02  0.23592238056E+02 -0.46110755943E+02  0.55418456538E+02  0.47000000000E+01 0. -1.
        -11    1    6    6    0    0  0.14075875051E+02 -0.45974921198E+02 -0.12034422330E+03  0.12959381050E+03  0.00000000000E+00 0.  1.
         12    1    6    6    0    0 -0.82178537188E+02 -0.12469600978E+03 -0.24073036230E+03  0.28329051195E+03  0.00000000000E+00 0. -1.
         -5    1    3    3    0  503 -0.32911880053E+02  0.63088998168E+01 -0.25686136182E+03  0.25908076590E+03  0.47000000000E+01 0.  1.
         11    1    4    4    0    0  0.42841742971E+02  0.12659563061E+03 -0.28738716590E+03  0.31694360975E+03  0.00000000000E+00 0. -1.
        -12    1    4    4    0    0  0.39033316076E+02  0.14174162488E+02 -0.17219816200E+03  0.17713473302E+03  0.00000000000E+00 0.  1.
</event>
<event>
12    1  0.8728348E-002  0.2454309E+03  0.7818608E-02  0.1116402E+00
         21   -1    0    0  503  502  0.00000000000E+00  0.00000000000E+00  0.44104226553E+03  0.44104226553E+03  0.00000000000E+00 0. -1.
         21   -1    0    0  501  503 -0.00000000000E+00 -0.00000000000E+00 -0.22269034628E+03  0.22269034628E+03  0.00000000000E+00 0.  1.
          6    2    1    2  501    0 -0.33417072593E+02  0.17001108359E+03 -0.98057788411E+02  0.26329353899E+03  0.17230115646E+03 0.  0.
         24    2    3    3    0    0 -0.27172286240E+02  0.15577742853E+03 -0.13516915839E+03  0.22278504513E+03  0.79734149349E+02 0.  0.
         -6    2    1    2    0  502  0.33417072593E+02 -0.17001108359E+03  0.31640970766E+03  0.40043907282E+03  0.17382715167E+03 0.  0.
        -24    2    5    5    0    0  0.23552138494E+02 -0.71636539481E+02  0.26996108955E+03  0.29110274776E+03  0.78583222549E+02 0.  0.
          5    1    3    3  501    0 -0.62447863525E+01  0.14233655065E+02  0.37111369981E+02  0.40508493862E+02  0.47000000000E+01 0. -1.
        -13    1    4    4    0    0 -0.18405271425E+02  0.79389316869E+02 -0.19339778685E+02  0.83758251466E+02  0.00000000000E+00 0.  1.
         14    1    4    4    0    0 -0.87670148159E+01  0.76388111661E+02 -0.11582937971E+03  0.13902679366E+03  0.00000000000E+00 0. -1.
         -5    1    5    5    0  502  0.98649340994E+01 -0.98374544113E+02  0.46448618108E+02  0.10933632506E+03  0.47000000000E+01 0.  1.
         13    1    6    6    0    0  0.45779027207E+02 -0.73431360214E+02  0.21002016424E+03  0.22714830702E+03  0.00000000000E+00 0. -1.
        -14    1    6    6    0    0 -0.22226888714E+02  0.17948207326E+01  0.59940925309E+02  0.63954440739E+02  0.00000000000E+00 0.  1.
</event>
<event>
12    1  0.8728348E-002  0.2835956E+03  0.7818608E-02  0.1094091E+00
         21   -1    0    0  501  502  0.00000000000E+00  0.00000000000E+00  0.70257976615E+03  0.70257976615E+03  0.00000000000E+00 0.  1.
         21   -1    0    0  502  503 -0.00000000000E+00 -0.00000000000E+00 -0.31367295266E+03  0.31367295266E+03  0.00000000000E+00 0. -1.
         -6    2    1    2    0  503 -0.13672329729E+03  0.17409694408E+03 -0.21120930532E+03  0.35360403734E+03  0.17726657499E+03 0.  0.
        -24    2    3    3    0    0 -0.68099549770E+02  0.17672232411E+03 -0.19319002055E+03  0.28245000747E+03  0.81162147314E+02 0.  0.
          6    2    1    2  501    0  0.13672329729E+03 -0.17409694408E+03  0.60011611881E+03  0.66264868148E+03  0.17309220966E+03 0.  0.
         24    2    5    5    0    0  0.36959967445E+02 -0.15056781692E+03  0.32365614310E+03  0.36776133014E+03  0.80364110758E+02 0.  0.
          5    1    5    5  501    0  0.99763329841E+02 -0.23529127164E+02  0.27645997571E+03  0.29488735133E+03  0.47000000000E+01 0. -1.
        -11    1    6    6    0    0  0.14024465512E+02 -0.25786761728E+02  0.14914236289E+03  0.15200357601E+03  0.00000000000E+00 0.  1.
         12    1    6    6    0    0  0.22935501933E+02 -0.12478105519E+03  0.17451378021E+03  0.21575775413E+03  0.00000000000E+00 0. -1.
         -5    1    3    3    0  503 -0.68623747516E+02 -0.26253800330E+01 -0.18019284764E+02  0.71154029871E+02  0.47000000000E+01 0.  1.
         13    1    4    4    0    0 -0.58775069830E+02  0.10729505471E+03 -0.16838946642E+03  0.20813877582E+03  0.00000000000E+00 0. -1.
        -14    1    4    4    0    0 -0.93244799396E+01  0.69427269407E+02 -0.24800554133E+02  0.74311231646E+02  0.00000000000E+00 0.  1.
</event>
<event>
12    1  0.8728348E-002  0.1863636E+03  0.7818608E-02  0.1163856E+00
         21   -1    0    0  503  502  0.00000000000E+00  0.00000000000E+00  0.35767725872E+03  0.35767725872E+03  0.00000000000E+00 0. -1.
         21   -1    0    0  501  503 -0.00000000000E+00 -0.00000000000E+00 -0.94150850970E+02  0.94150850970E+02  0.00000000000E+00 0.  1.
          6    2    1    2  501    0  0.33929913506E+02  0.65006716286E+02  0.99687885299E+02  0.20368614502E+03  0.16178151627E+03 0.  0.
         24    2    3    3    0    0  0.60368082564E+02  0.71860502896E+02  0.25882490071E+02  0.12484911350E+03  0.78161119373E+02 0.  0.
         -6    2    1    2    0  502 -0.33929913506E+02 -0.65006716286E+02  0.16383852245E+03  0.24814196467E+03  0.17133085244E+03 0.  0.
        -24    2    5    5    0    0 -0.56301457458E+02 -0.42101353802E+02  0.18126265263E+03  0.21138829925E+03  0.82984852347E+02 0.  0.
          5    1    3    3  501    0 -0.26438169057E+02 -0.68537866101E+01  0.73805395227E+02  0.78837031519E+02  0.47000000000E+01 0. -1.
        -13    1    4    4    0    0  0.68612517796E+02  0.36000434526E+02  0.37745646275E+02  0.86188413938E+02  0.00000000000E+00 0.  1.
         14    1    4    4    0    0 -0.82444352329E+01  0.35860068370E+02 -0.11863156204E+02  0.38660699566E+02  0.00000000000E+00 0. -1.
         -5    1    5    5    0  502  0.22371543952E+02 -0.22905362484E+02 -0.17424130174E+02  0.36753665418E+02  0.47000000000E+01 0.  1.
         13    1    6    6    0    0  0.47747410086E+00  0.19174155399E+02  0.11976000544E+02  0.22611961564E+02  0.00000000000E+00 0. -1.
        -14    1    6    6    0    0 -0.56778931559E+02 -0.61275509201E+02  0.16928665209E+03  0.18877633769E+03  0.00000000000E+00 0.  1.
</event>
<event>
12    1  0.8728348E-002  0.1781572E+03  0.7818608E-02  0.1169909E+00
         21   -1    0    0  503  502  0.00000000000E+00  0.00000000000E+00  0.13110074478E+03  0.13110074478E+03  0.00000000000E+00 0.  1.
         21   -1    0    0  501  503 -0.00000000000E+00 -0.00000000000E+00 -0.50905342818E+03  0.50905342818E+03  0.00000000000E+00 0.  1.
          6    2    1    2  501    0 -0.41059071247E+02  0.10538272416E+02 -0.42118636233E+03  0.45682623049E+03  0.17174210471E+03 0.  0.
         24    2    3    3    0    0 -0.40892533953E+02 -0.45678302840E+02 -0.35797699301E+03  0.37210406433E+03  0.80964192599E+02 0.  0.
         -6    2    1    2    0  502  0.41059071247E+02 -0.10538272416E+02  0.43233678936E+02  0.18332794247E+03  0.17304069168E+03 0.  0.
        -24    2    5    5    0    0 -0.90984239291E+01  0.38842433181E+02 -0.16411948663E+02  0.90948727819E+02  0.80067490904E+02 0.  0.
          5    1    3    3  501    0 -0.16653729403E+00  0.56216575256E+02 -0.63209369326E+02  0.84722166160E+02  0.47000000000E+01 0. -1.
        -11    1    4    4    0    0 -0.51338279073E+02 -0.51446501764E+01 -0.26727376966E+03  0.27220829207E+03  0.00000000000E+00 0.  1.
         12    1    4    4    0    0  0.10445745120E+02 -0.40533652664E+02 -0.90703223352E+02  0.99895772262E+02  0.00000000000E+00 0. -1.
         -5    1    5    5    0  502  0.50157495176E+02 -0.49380705597E+02  0.59645627598E+02  0.92379214649E+02  0.47000000000E+01 0.  1.
         11    1    6    6    0    0 -0.16314091454E+02 -0.20188867615E+02 -0.17780260961E+02  0.31462320884E+02  0.00000000000E+00 0. -1.
        -12    1    6    6    0    0  0.72156675244E+01  0.59031300796E+02  0.13683122988E+01  0.59486406935E+02  0.00000000000E+00 0.  1.
</event>
<event>
12    1  0.8728348E-002  0.1860912E+03  0.7818608E-02  0.1162069E+00
         21   -1    0    0  503  502  0.00000000000E+00  0.00000000000E+00  0.12631689121E+03  0.12631689121E+03  0.00000000000E+00 0. -1.
         21   -1    0    0  501  503 -0.00000000000E+00 -0.00000000000E+00 -0.49210673785E+03  0.49210673785E+03  0.00000000000E+00 0. -1.
          6    2    1    2  501    0 -0.57474418954E+02  0.41709880888E+02 -0.38882138466E+03  0.43105914425E+03  0.17200841163E+03 0.  0.
         24    2    3    3    0    0 -0.59452849992E+02 -0.11691221329E+02 -0.11910688682E+03  0.15606170380E+03  0.80606940620E+02 0.  0.
         -6    2    1    2    0  502  0.57474418954E+02 -0.41709880888E+02  0.23031538022E+02  0.18736448482E+03  0.17184869924E+03 0.  0.
        -24    2    5    5    0    0  0.53518114800E+02  0.42336347968E+02  0.84194833606E+01  0.10183657669E+03  0.75121539390E+02 0.  0.
          5    1    3    3  501    0  0.19784310382E+01  0.53401102217E+02 -0.26971449784E+03  0.27499744045E+03  0.47000000000E+01 0. -1.
        -11    1    4    4    0    0 -0.60893463702E+02 -0.26248068097E+02 -0.12401721168E+03  0.14063158889E+03  0.00000000000E+00 0.  1.
         12    1    4    4    0    0  0.14406137097E+01  0.14556846769E+02  0.49103248655E+01  0.15430114905E+02  0.00000000000E+00 0. -1.
         -5    1    5    5    0  502  0.39563041532E+01 -0.84046228857E+02  0.14612054661E+02  0.85527908129E+02  0.47000000000E+01 0.  1.
         13    1    6    6    0    0  0.10435115120E+02 -0.14841307082E+02 -0.17969844320E+02  0.25535687348E+02  0.00000000000E+00 0. -1.
        -14    1    6    6    0    0  0.43082999680E+02  0.57177655050E+02  0.26389327681E+02  0.76300889339E+02  0.00000000000E+00 0.  1.
</event>
<event>
12    1  0.8728348E-002  0.2091108E+03  0.7818608E-02  0.1142600E+00
         21   -1    0    0  503  502  0.00000000000E+00  0.00000000000E+00  0.66178985079E+02  0.66178985079E+02  0.00000000000E+00 0.  1.
         21   -1    0    0  501  503 -0.00000000000E+00 -0.00000000000E+00 -0.11467939801E+04  0.11467939801E+04  0.00000000000E+00 0.  1.
          6    2    1    2  501    0  0.10426823928E+03  0.47082863257E+02 -0.93845867520E+03  0.96147388230E+03  0.17503908006E+03 0.  0.
         24    2    3    3    0    0  0.14211013633E+03  0.43721585128E+02 -0.70053914107E+03  0.72049441827E+03  0.79058527268E+02 0.  0.
         -6    2    1    2    0  502 -0.10426823928E+03 -0.47082863257E+02 -0.14215631981E+03  0.25149908287E+03  0.17307428372E+03 0.  0.
        -24    2    5    5    0    0 -0.28705048604E+01 -0.24393628393E+02 -0.11904695409E+03  0.14495127806E+03  0.78964592248E+02 0.  0.
          5    1    3    3  501    0 -0.37841897048E+02  0.33612781288E+01 -0.23791953413E+03  0.24097946403E+03  0.47000000000E+01 0. -1.
        -11    1    4    4    0    0  0.52268321764E+02 -0.18662493376E+02 -0.17113810198E+03  0.17991252337E+03  0.00000000000E+00 0.  1.
         12    1    4    4    0    0  0.89841814568E+02  0.62384078505E+02 -0.52940103910E+03  0.54058189490E+03  0.00000000000E+00 0. -1.
         -5    1    5    5    0  502 -0.10139773442E+03 -0.22689234864E+02 -0.23109365717E+02  0.10654780481E+03  0.47000000000E+01 0.  1.
         13    1    6    6    0    0  0.18915489577E+02  0.23105260014E+02 -0.35273705931E+02  0.46215615503E+02  0.00000000000E+00 0. -1.
        -14    1    6    6    0    0 -0.21785994437E+02 -0.47498888407E+02 -0.83773248160E+02  0.98735662558E+02  0.00000000000E+00 0.  1.
</event>
<event>
12    1  0.8728348E-002  0.1871799E+03  0.7818608E-02  0.1161496E+00
         21   -1    0    0  501  502  0.00000000000E+00  0.00000000000E+00  0.20218772225E+03  0.20218772225E+03  0.00000000000E+00 0. -1.
         21   -1    0    0  502  503 -0.00000000000E+00 -0.00000000000E+00 -0.25497601180E+03  0.25497601180E+03  0.00000000000E+00 0. -1.
         -6    2    1    2    0  503 -0.47337080160E+02 -0.48908621538E+02 -0.15714435027E+03  0.24285907345E+03  0.17220142368E+03 0.  0.
        -24    2    3    3    0    0  0.89007196440E+01  0.14059266590E+01 -0.14304682706E+03  0.16594955488E+03  0.83640065707E+02 0.  0.
          6    2    1    2  501    0  0.47337080160E+02  0.48908621538E+02  0.10435606073E+03  0.21430466060E+03  0.17436584449E+03 0.  0.
         24    2    5    5    0    0  0.62966878978E+02  0.19373500159E+01  0.12428313670E+03  0.16073443270E+03  0.80129137113E+02 0.  0.
          5    1    5    5  501    0 -0.15629798818E+02  0.46971271522E+02 -0.19927075976E+02  0.53570227893E+02  0.47000000000E+01 0. -1.
        -13    1    6    6    0    0  0.72445557746E+02  0.25160310481E+02  0.89742004384E+02  0.11804671707E+03  0.00000000000E+00 0.  1.
         14    1    6    6    0    0 -0.94786787677E+01 -0.23222960466E+02  0.34541132317E+02  0.42687715630E+02  0.00000000000E+00 0. -1.
         -5    1    3    3    0  503 -0.56237799804E+02 -0.50314548197E+02 -0.14097523212E+02  0.76909518578E+02  0.47000000000E+01 0.  1.
         13    1    4    4    0    0  0.38418176338E+02 -0.64145704326E+01 -0.30895679716E+02  0.49715651581E+02  0.00000000000E+00 0. -1.
        -14    1    4    4    0    0 -0.29517456694E+02  0.78204970916E+01 -0.11215114735E+03  0.11623390330E+03  0.00000000000E+00 0.  1.
</event>
<event>
12    1  0.8728348E-002  0.2596466E+03  0.7818608E-02  0.1108855E+00
         21   -1    0    0  503  502  0.00000000000E+00  0.00000000000E+00  0.83860904928E+02  0.83860904928E+02  0.00000000000E+00 0. -1.
         21   -1    0    0  501  503 -0.00000000000E+00 -0.00000000000E+00 -0.11831059462E+04  0.11831059462E+04  0.00000000000E+00 0.  1.
          6    2    1    2  501    0  0.10707953877E+03 -0.16683039434E+03 -0.92899758007E+03  0.96459983263E+03  0.16768400410E+03 0.  0.
         24    2    3    3    0    0  0.47217528317E+02 -0.24450214150E+02 -0.47269002511E+03  0.48283822071E+03  0.82882926989E+02 0.  0.
         -6    2    1    2    0  502 -0.10707953877E+03  0.16683039434E+03 -0.17024746124E+03  0.30236701854E+03  0.15212891816E+03 0.  0.
        -24    2    5    5    0    0 -0.54433950485E+00  0.39566487457E+02 -0.10211089838E+03  0.12289409056E+03  0.55772024273E+02 0.  0.
          5    1    3    3  501    0  0.59862010455E+02 -0.14238018019E+03 -0.45630755496E+03  0.48176161192E+03  0.47000000000E+01 0. -1.
        -11    1    4    4    0    0  0.69691864308E+02 -0.22092449695E+02 -0.30540693894E+03  0.31403571555E+03  0.00000000000E+00 0.  1.
         12    1    4    4    0    0 -0.22474335991E+02 -0.23577644548E+01 -0.16728308617E+03  0.16880250516E+03  0.00000000000E+00 0. -1.
         -5    1    5    5    0  502 -0.10653519927E+03  0.12726390688E+03 -0.68136562857E+02  0.17947292797E+03  0.47000000000E+01 0.  1.
         13    1    6    6    0    0 -0.65703699775E+01  0.39615844832E+01  0.54645634240E+01  0.94194143487E+01  0.00000000000E+00 0. -1.
        -14    1    6    6    0    0  0.60260304726E+01  0.35604902974E+02 -0.10757546180E+03  0.11347467621E+03  0.00000000000E+00 0.  1.
</event>
<event>
12    1  0.8728348E-002  0.2274283E+03  0.7818608E-02  0.1129733E+00
         21   -1    0    0  503  502  0.00000000000E+00  0.00000000000E+00  0.47964199594E+02  0.47964199594E+02  0.00000000000E+00 0.  1.
         21   -1    0    0  501  503 -0.00000000000E+00 -0.00000000000E+00 -0.10700924601E+04  0.10700924601E+04  0.00000000000E+00 0.  1.
          6    2    1    2  501    0 -0.95103972498E+02  0.99421654931E+02 -0.58804730024E+03  0.62800574763E+03  0.17222706141E+03 0.  0.
         24    2    3    3    0    0 -0.44155528113E+02  0.75256140915E+02 -0.17063528696E+03  0.20677588771E+03  0.77631624842E+02 0.  0.
         -6    2    1    2    0  502  0.95103972498E+02 -0.99421654931E+02 -0.43408096027E+03  0.49005091207E+03  0.18109164889E+03 0.  0.
        -24    2    5    5    0    0  0.12422518828E+03 -0.90589708611E+02 -0.25464964986E+03  0.30799670685E+03  0.79856963030E+02 0.  0.
          5    1    3    3  501    0 -0.50948444386E+02  0.24165514016E+02 -0.41741201328E+03  0.42122985992E+03  0.47000000000E+01 0. -1.
        -13    1    4    4    0    0 -0.44808974033E+02  0.36610324438E+02 -0.15433952178E+03  0.16482975457E+03  0.00000000000E+00 0.  1.
         14    1    4    4    0    0  0.65344592058E+00  0.38645816477E+02 -0.16295765182E+02  0.41946133143E+02  0.00000000000E+00 0. -1.
         -5    1    5    5    0  502 -0.29121215782E+02 -0.88319463206E+01 -0.17943131041E+03  0.18205420522E+03  0.47000000000E+01 0.  1.
         11    1    6    6    0    0 -0.10562761116E+01  0.10408591961E+02 -0.29111374186E+02  0.30934230439E+02  0.00000000000E+00 0. -1.
        -12    1    6    6    0    0  0.12528146439E+03 -0.10099830057E+03 -0.22553827567E+03  0.27706247641E+03  0.00000000000E+00 0.  1.
</event>
<event>
12    1  0.8728348E-002  0.2204717E+03  0.7818608E-02  0.1133644E+00
         21   -1    0    0  501  502  0.00000000000E+00  0.00000000000E+00  0.76605153298E+02  0.76605153298E+02  0.00000000000E+00 0.  1.
         21   -1    0    0  502  503 -0.00000000000E+00 -0.00000000000E+00 -0.64751428239E+03  0.64751428239E+03  0.00000000000E+00 0. -1.
         -6    2    1    2    0  503  0.11028798473E+03 -0.84184037748E+02 -0.23125201394E+03  0.31950784419E+03  0.17133994503E+03 0.  0.
        -24    2    3    3    0    0  0.39026627993E+02  0.53539115975E+01 -0.16347005105E+03  0.18642249627E+03  0.80493151670E+02 0.  0.
          6    2    1    2  501    0 -0.11028798473E+03  0.84184037748E+02 -0.33965711516E+03  0.40461159150E+03  0.17056726624E+03 0.  0.
         24    2    5    5    0    0 -0.80706899928E+02  0.44065301196E+01 -0.10640035561E+03  0.15627654126E+03  0.81045052109E+02 0.  0.
          5    1    5    5  501    0 -0.29581084803E+02  0.79777507629E+02 -0.23325675955E+03  0.24833505024E+03  0.47000000000E+01 0. -1.
        -13    1    6    6    0    0 -0.78383015720E+02  0.29703941636E+02 -0.99198836085E+02  0.12987159190E+03  0.00000000000E+00 0.  1.
         14    1    6    6    0    0 -0.23238842083E+01 -0.25297411517E+02 -0.72015195201E+01  0.26404949359E+02  0.00000000000E+00 0. -1.
         -5    1    3    3    0  503  0.71261356738E+02 -0.89537949346E+02 -0.67781962893E+02  0.13308534792E+03  0.47000000000E+01 0.  1.
         13    1    4    4    0    0  0.95645878859E+01  0.41568092640E+02 -0.85373509087E+02  0.95435966601E+02  0.00000000000E+00 0. -1.
        -14    1    4    4    0    0  0.29462040107E+02 -0.36214181043E+02 -0.78096541960E+02  0.90986529673E+02  0.00000000000E+00 0.  1.
</event>
<event>
12    1  0.8728348E-002  0.1859701E+03  0.7818608E-02  0.1162560E+00
         21   -1    0    0  503  502  0.00000000000E+00  0.00000000000E+00  0.32701098204E+03  0.32701098204E+03  0.00000000000E+00 0. -1.
         21   -1    0    0  501  503 -0.00000000000E+00 -0.00000000000E+00 -0.14133909924E+03  0.14133909924E+03  0.00000000000E+00 0. -1.
          6    2    1    2  501    0 -0.46458199446E+02 -0.50364370178E+02  0.21164452772E+03  0.28057502942E+03  0.17097955123E+03 0.  0.
         24    2    3    3    0    0 -0.46432535775E+02  0.37438199229E+01  0.37979083748E+02  0.98614942239E+02  0.78182475430E+02 0.  0.
         -6    2    1    2    0  502  0.46458199446E+02  0.50364370178E+02 -0.25972644919E+02  0.18777505186E+03  0.17288712427E+03 0.  0.
        -24    2    5    5    0    0  0.65932366991E+02  0.50445581790E+02 -0.72750289199E+02  0.13688804172E+03  0.80956146446E+02 0.  0.
          5    1    3    3  501    0 -0.25663671233E-01 -0.54108190101E+02  0.17366544398E+03  0.18196008718E+03  0.47000000000E+01 0. -1.
        -13    1    4    4    0    0 -0.33021904103E+02 -0.32194468944E+02  0.22179087886E+01  0.46171951448E+02  0.00000000000E+00 0.  1.
         14    1    4    4    0    0 -0.13410631672E+02  0.35938288867E+02  0.35761174959E+02  0.52442990790E+02  0.00000000000E+00 0. -1.
         -5    1    5    5    0  502 -0.19474167545E+02 -0.81211612349E-01  0.46777644281E+02  0.50887010143E+02  0.47000000000E+01 0.  1.
         11    1    6    6    0    0  0.40827048867E+01 -0.21028320953E+02 -0.14314209855E+02  0.25763450178E+02  0.00000000000E+00 0. -1.
        -12    1    6    6    0    0  0.61849662104E+02  0.71473902743E+02 -0.58436079344E+02  0.11112459154E+03  0.00000000000E+00 0.  1.
</event>
<event>
12    1  0.8728348E-002  0.2060498E+03  0.7818608E-02  0.1147878E+00
         21   -1    0    0  501  502  0.00000000000E+00  0.00000000000E+00  0.19853340623E+04  0.19853340623E+04  0.00000000000E+00 0.  1.
         21   -1    0    0  502  503 -0.00000000000E+00 -0.00000000000E+00 -0.24001213281E+02  0.24001213281E+02  0.00000000000E+00 0.  1.
         -6    2    1    2    0  503  0.33454911718E+02  0.73984042688E+02  0.59440238769E+03  0.62910309224E+03  0.18937695870E+03 0.  0.
        -24    2    3    3    0    0  0.97508820612E+02  0.47817668100E+02  0.43183526003E+03  0.45236106725E+03  0.79714138495E+02 0.  0.
          6    2    1    2  501    0 -0.33454911718E+02 -0.73984042688E+02  0.13669304613E+04  0.13802321833E+04  0.17305815243E+03 0.  0.
         24    2    5    5    0    0 -0.33273355564E+02 -0.36465475976E+02  0.13002268439E+04  0.13035566436E+04  0.78950810221E+02 0.  0.
          5    1    5    5  501    0 -0.18155615388E+00 -0.37518566712E+02  0.66703617423E+02  0.76675539699E+02  0.47000000000E+01 0. -1.
        -13    1    6    6    0    0 -0.17778642631E+02  0.24420753884E+02  0.44777875371E+03  0.44879646347E+03  0.00000000000E+00 0.  1.
         14    1    6    6    0    0 -0.15494712933E+02 -0.60886229860E+02  0.85244809016E+03  0.85476018013E+03  0.00000000000E+00 0. -1.
         -5    1    3    3    0  503 -0.64053908894E+02  0.26166374589E+02  0.16256712766E+03  0.17674202500E+03  0.47000000000E+01 0.  1.
         11    1    4    4    0    0  0.12012919485E+02 -0.21368360437E+02  0.89168486910E+02  0.92476678791E+02  0.00000000000E+00 0. -1.
        -12    1    4    4    0    0  0.85495901127E+02  0.69186028536E+02  0.34266677312E+03  0.35988438846E+03  0.00000000000E+00 0.  1.
</event>
<event>
12    1  0.8728348E-002  0.5265813E+03  0.7818608E-02  0.1007120E+00
         21   -1    0    0  501  502  0.00000000000E+00  0.00000000000E+00  0.16524823066E+03  0.16524823066E+03  0.00000000000E+00 0.  1.
         21   -1    0    0  502  503 -0.00000000000E+00 -0.00000000000E+00 -0.17204747536E+04  0.17204747536E+04  0.00000000000E+00 0. -1.
         -6    2    1    2    0  503 -0.37078750269E+03  0.33033122922E+03 -0.62385894538E+03  0.81580081735E+03  0.17242069689E+03 0.  0.
        -24    2    3    3    0    0 -0.28313986702E+03  0.30072509286E+03 -0.43343008408E+03  0.60403709864E+03  0.79971325951E+02 0.  0.
          6    2    1    2  501    0  0.37078750269E+03 -0.33033122922E+03 -0.93136757759E+03  0.10699221669E+04  0.17517358700E+03 0.  0.
         24    2    5    5    0    0  0.63379406431E+02 -0.82369653236E+02 -0.23174536363E+03  0.26650570391E+03  0.80732073662E+02 0.  0.
          5    1    5    5  501    0  0.30740809625E+03 -0.24796157598E+03 -0.69962221396E+03  0.80341646303E+03  0.47000000000E+01 0. -1.
        -13    1    6    6    0    0  0.21683894597E+02 -0.21046416143E+02 -0.86844704683E+01  0.31441420844E+02  0.00000000000E+00 0.  1.
         14    1    6    6    0    0  0.41695511835E+02 -0.61323237092E+02 -0.22306089316E+03  0.23506428306E+03  0.00000000000E+00 0. -1.
         -5    1    3    3    0  503 -0.87647635662E+02  0.29606136362E+02 -0.19042886130E+03  0.21176371871E+03  0.47000000000E+01 0.  1.
         13    1    4    4    0    0 -0.18434171051E+03  0.24315466425E+03 -0.33528832205E+03  0.45334789718E+03  0.00000000000E+00 0. -1.
        -14    1    4    4    0    0 -0.98798156510E+02  0.57570428610E+02 -0.98141762033E+02  0.15068920145E+03  0.00000000000E+00 0.  1.
</event>
<event>
12    1  0.8728348E-002  0.2871211E+03  0.7818608E-02  0.1091882E+00
         21   -1    0    0  503  502  0.00000000000E+00  0.00000000000E+00  0.10494756682E+03  0.10494756682E+03  0.00000000000E+00 0.  1.
         21   -1    0    0  501  503 -0.00000000000E+00 -0.00000000000E+00 -0.79194297057E+03  0.79194297057E+03  0.00000000000E+00 0. -1.
          6    2    1    2  501    0 -0.21588223646E+03  0.77165992682E+02 -0.30172390437E+03  0.41639844096E+03  0.17259958493E+03 0.  0.
         24    2    3    3    0    0 -0.16869118802E+03  0.70443893653E+02 -0.12228777189E+03  0.23067930541E+03  0.69567116672E+02 0.  0.
         -6    2    1    2    0  502  0.21588223646E+03 -0.77165992682E+02 -0.38527149938E+03  0.48049209643E+03  0.17285484098E+03 0.  0.
        -24    2    5    5    0    0  0.20783601157E+03 -0.20475736358E+02 -0.25805003974E+03  0.34090013144E+03  0.77511374131E+02 0.  0.
          5    1    3    3  501    0 -0.47191048434E+02  0.67220990292E+01 -0.17943613248E+03  0.18571913555E+03  0.47000000000E+01 0. -1.
        -13    1    4    4    0    0 -0.49038730216E+02 -0.21826492046E+01 -0.74911894305E+01  0.49655603288E+02  0.00000000000E+00 0.  1.
         14    1    4    4    0    0 -0.11965245781E+03  0.72626542857E+02 -0.11479658246E+03  0.18102370212E+03  0.00000000000E+00 0. -1.
         -5    1    5    5    0  502  0.80462248875E+01 -0.56690256324E+02 -0.12722145964E+03  0.13959196499E+03  0.47000000000E+01 0.  1.
         13    1    6    6    0    0  0.15950862998E+03 -0.37614558012E+02 -0.23011498235E+03  0.28250798770E+03  0.00000000000E+00 0. -1.
        -14    1    6    6    0    0  0.48327381585E+02  0.17138821654E+02 -0.27935057392E+02  0.58392143736E+02  0.00000000000E+00 0.  1.
</event>
<event>
12    1  0.8728348E-002  0.1906395E+03  0.7818608E-02  0.1159061E+00
         21   -1    0    0  503  502  0.00000000000E+00  0.00000000000E+00  0.27045896549E+03  0.27045896549E+03  0.00000000000E+00 0. -1.
         21   -1    0    0  501  503 -0.00000000000E+00 -0.00000000000E+00 -0.97020862200E+03  0.97020862200E+03  0.00000000000E+00 0. -1.
          6    2    1    2  501    0  0.61026015450E+02 -0.51755531331E+02 -0.92753136032E+03  0.94692019264E+03  0.17303357266E+03 0.  0.
         24    2    3    3    0    0 -0.10681752261E+01 -0.83354800127E+02 -0.68144261388E+03  0.69111565119E+03  0.79546487042E+02 0.  0.
         -6    2    1    2    0  502 -0.61026015450E+02  0.51755531331E+02  0.22778170381E+03  0.29374739485E+03  0.16733265613E+03 0.  0.
        -24    2    5    5    0    0 -0.10078687188E+03  0.37118694891E+02  0.20518145443E+03  0.24549779426E+03  0.81449043517E+02 0.  0.
          5    1    3    3  501    0  0.62094190676E+02  0.31599268796E+02 -0.24608874644E+03  0.25580454145E+03  0.47000000000E+01 0. -1.
        -11    1    4    4    0    0 -0.24253013765E+01  0.64520736290E+01 -0.44802211508E+01  0.82209319691E+01  0.00000000000E+00 0.  1.
         12    1    4    4    0    0  0.13571261504E+01 -0.89806873756E+02 -0.67696239273E+03  0.68289471922E+03  0.00000000000E+00 0. -1.
         -5    1    5    5    0  502  0.39760856435E+02  0.14636836440E+02  0.22600249383E+02  0.48249600595E+02  0.47000000000E+01 0.  1.
         11    1    6    6    0    0 -0.45247063691E+02  0.59437967811E+02  0.12111464735E+03  0.14229872309E+03  0.00000000000E+00 0. -1.
        -12    1    6    6    0    0 -0.55539808194E+02 -0.22319272920E+02  0.84066807077E+02  0.10319907117E+03  0.00000000000E+00 0.  1.
</event>
<event>
12    1  0.8728348E-002  0.2111777E+03  0.7818608E-02  0.1140907E+00
         21   -1    0    0  501  502  0.00000000000E+00  0.00000000000E+00  0.22163170307E+04  0.22163170307E+04  0.00000000000E+00 0.  1.
         21   -1    0    0  502  503 -0.00000000000E+00 -0.00000000000E+00 -0.76295205213E+02  0.76295205213E+02  0.00000000000E+00 0. -1.
         -6    2    1    2    0  503  0.32534806005E+02 -0.11595469469E+03  0.86185586156E+02  0.22808763346E+03  0.17347048295E+03 0.  0.
        -24    2    3    3    0    0  0.41466026287E+02 -0.14886918254E+03  0.62087458210E+02  0.18606454484E+03  0.82968051285E+02 0.  0.
          6    2    1    2  501    0 -0.32534806005E+02  0.11595469469E+03  0.20538362394E+04  0.20645246025E+04  0.17179793745E+03 0.  0.
         24    2    5    5    0    0 -0.99617484890E+01  0.12151152810E+03  0.20055804164E+04  0.20107553197E+04  0.76940633498E+02 0.  0.
          5    1    5    5  501    0 -0.22573057516E+02 -0.55568334136E+01  0.48255822970E+02  0.53769282808E+02  0.47000000000E+01 0. -1.
        -13    1    6    6    0    0  0.28868965350E+02  0.66208976455E+02  0.78881664603E+03  0.79211662448E+03  0.00000000000E+00 0.  1.
         14    1    6    6    0    0 -0.38830713839E+02  0.55302551648E+02  0.12167637704E+04  0.12186386952E+04  0.00000000000E+00 0. -1.
         -5    1    3    3    0  503 -0.89312202822E+01  0.32914487853E+02  0.24098127946E+02  0.42023088617E+02  0.47000000000E+01 0.  1.
         11    1    4    4    0    0  0.19183562879E+01 -0.11321475744E+03  0.13593100248E+02  0.11404399926E+03  0.00000000000E+00 0. -1.
        -12    1    4    4    0    0  0.39547670000E+02 -0.35654425100E+02  0.48494357962E+02  0.72020545581E+02  0.00000000000E+00 0.  1.
</event>
<event>
12    1  0.8728348E-002  0.2043532E+03  0.7818608E-02  0.1146206E+00
         21   -1    0    0  501  502  0.00000000000E+00  0.00000000000E+00  0.60193163523E+03  0.60193163523E+03  0.00000000000E+00 0. -1.
         21   -1    0    0  502  503 -0.00000000000E+00 -0.00000000000E+00 -0.83119138238E+02  0.83119138238E+02  0.00000000000E+00 0.  1.
         -6    2    1    2    0  503  0.51945286734E+02  0.96317734126E+02  0.11961889018E+03  0.23678871545E+03  0.17258272844E+03 0.  0.
        -24    2    3    3    0    0 -0.93377485399E+01  0.39133153027E+02 -0.23164055767E+01  0.88748203836E+02  0.79071364828E+02 0.  0.
          6    2    1    2  501    0 -0.51945286734E+02 -0.96317734126E+02  0.39919360681E+03  0.44826205801E+03  0.17206951565E+03 0.  0.
         24    2    5    5    0    0  0.14234258340E+02 -0.10905541789E+03  0.25425670058E+03  0.28835340421E+03  0.80034477878E+02 0.  0.
          5    1    5    5  501    0 -0.66179545075E+02  0.12737683763E+02  0.14493690622E+03  0.15990865380E+03  0.47000000000E+01 0. -1.
        -13    1    6    6    0    0 -0.30354957837E+02 -0.55779823275E+02  0.91383503870E+02  0.11128232982E+03  0.00000000000E+00 0.  1.
         14    1    6    6    0    0  0.44589216177E+02 -0.53275594614E+02  0.16287319671E+03  0.17707107440E+03  0.00000000000E+00 0. -1.
         -5    1    3    3    0  503  0.61283035274E+02  0.57184581099E+02  0.12193529576E+03  0.14804051162E+03  0.47000000000E+01 0.  1.
         13    1    4    4    0    0 -0.38352484161E+02 -0.19055671147E+01  0.59370699907E+00  0.38404384064E+02  0.00000000000E+00 0. -1.
        -14    1    4    4    0    0  0.29014735621E+02  0.41038720141E+02 -0.29101125758E+01  0.50343819772E+02  0.00000000000E+00 0.  1.
</event>
<event>
12    1  0.8728348E-002  0.1802766E+03  0.7818608E-02  0.1167790E+00
         21   -1    0    0  503  502  0.00000000000E+00  0.00000000000E+00  0.13905644645E+03  0.13905644645E+03  0.00000000000E+00 0.  1.
         21   -1    0    0  501  503 -0.00000000000E+00 -0.00000000000E+00 -0.37538474009E+03  0.37538474009E+03  0.00000000000E+00 0.  1.
          6    2    1    2  501    0 -0.47164487121E+01  0.53201955819E+02 -0.27672434885E+03  0.32969405704E+03  0.17108218204E+03 0.  0.
         24    2    3    3    0    0  0.28958125259E+02  0.86093364501E+01 -0.58283188667E+02  0.10416998051E+03  0.80881153954E+02 0.  0.
         -6    2    1    2    0  502  0.47164487121E+01 -0.53201955819E+02  0.40396055206E+02  0.18474712950E+03  0.17218294802E+03 0.  0.
        -24    2    5    5    0    0 -0.42027033323E+02 -0.64209726785E+02  0.66189391210E+02  0.13003414825E+03  0.81478117674E+02 0.  0.
          5    1    3    3  501    0 -0.33674573971E+02  0.44592619369E+02 -0.21844116019E+03  0.22552407654E+03  0.47000000000E+01 0. -1.
        -13    1    4    4    0    0 -0.69331722532E+01 -0.20663252171E+02 -0.53304486054E+02  0.57588254890E+02  0.00000000000E+00 0.  1.
         14    1    4    4    0    0  0.35891297513E+02  0.29272588621E+02 -0.49787026134E+01  0.46581725617E+02  0.00000000000E+00 0. -1.
         -5    1    5    5    0  502  0.46743482035E+02  0.11007770966E+02 -0.25793336004E+02  0.54712981244E+02  0.47000000000E+01 0.  1.
         13    1    6    6    0    0 -0.27537609920E+02 -0.78627806409E+02  0.30144073697E+02  0.88596371708E+02  0.00000000000E+00 0. -1.
        -14    1    6    6    0    0 -0.14489423403E+02  0.14418079623E+02  0.36045317512E+02  0.41437776547E+02  0.00000000000E+00 0.  1.
</event>
<event>
12    1  0.8728348E-002  0.3869367E+03  0.7818608E-02  0.1048422E+00
         21   -1    0    0  503  502  0.00000000000E+00  0.00000000000E+00  0.24751953659E+03  0.24751953659E+03  0.00000000000E+00 0.  1.
         21   -1    0    0  501  503 -0.00000000000E+00 -0.00000000000E+00 -0.10008408952E+04  0.10008408952E+04  0.00000000000E+00 0. -1.
          6    2    1    2  501    0 -0.36432711209E+02  0.34461180801E+03 -0.76938328228E+03  0.86109051177E+03  0.17158552893E+03 0.  0.
         24    2    3    3    0    0 -0.84495367259E+02  0.23830893129E+03 -0.47292837773E+03  0.54247174123E+03  0.81754056489E+02 0.  0.
         -6    2    1    2    0  502  0.36432711209E+02 -0.34461180801E+03  0.16061923653E+02  0.38726992004E+03  0.17214925184E+03 0.  0.
        -24    2    5    5    0    0  0.34973205292E+02 -0.27482960555E+03  0.72762039255E+02  0.29722171602E+03  0.79322108796E+02 0.  0.
          5    1    3    3  501    0  0.48062656050E+02  0.10630287672E+03 -0.29645490455E+03  0.31861877054E+03  0.47000000000E+01 0. -1.
        -13    1    4    4    0    0 -0.86183975231E+01  0.95769705882E+02 -0.11569139488E+03  0.15043474396E+03  0.00000000000E+00 0.  1.
         14    1    4    4    0    0 -0.75876969736E+02  0.14253922541E+03 -0.35723698284E+03  0.39203699727E+03  0.00000000000E+00 0. -1.
         -5    1    5    5    0  502  0.14595059178E+01 -0.69782202468E+02 -0.56700115602E+02  0.90048204025E+02  0.47000000000E+01 0.  1.
         13    1    6    6    0    0 -0.14935716615E+02 -0.14571311551E+03  0.15055280781E+02  0.14724825684E+03  0.00000000000E+00 0. -1.
        -14    1    6    6    0    0  0.49908921906E+02 -0.12911649003E+03  0.57706758474E+02  0.14997345918E+03  0.00000000000E+00 0.  1.
</event>
<event>
12    1  0.8728348E-002  0.1848583E+03  0.7818608E-02  0.1165843E+00
         21   -1    0    0  501  502  0.00000000000E+00  0.00000000000E+00  0.22266121056E+03  0.22266121056E+03  0.00000000000E+00 0. -1.
         21   -1    0    0  502  503 -0.00000000000E+00 -0.00000000000E+00 -0.17208148525E+03  0.17208148525E+03  0.00000000000E+00 0. -1.
         -6    2    1    2    0  503 -0.11717912723E+02  0.20725111598E+02 -0.53096485922E+02  0.19233260116E+03  0.18331871951E+03 0.  0.
        -24    2    3    3    0    0  0.39574231034E+01 -0.63859107797E+02 -0.36769894098E+02  0.10464649094E+03  0.74197143535E+02 0.  0.
          6    2    1    2  501    0  0.11717912723E+02 -0.20725111598E+02  0.10367621124E+03  0.20241009466E+03  0.17220409378E+03 0.  0.
         24    2    5    5    0    0  0.58537752106E+02 -0.43158063986E+02  0.10173615979E+03  0.15024508232E+03  0.83270953178E+02 0.  0.
          5    1    5    5  501    0 -0.46819839383E+02  0.22432952388E+02  0.19400514476E+01  0.52165012339E+02  0.47000000000E+01 0. -1.
        -11    1    6    6    0    0  0.44244922360E+02 -0.26644865475E+02  0.59376195887E+01  0.51988626999E+02  0.00000000000E+00 0.  1.
         12    1    6    6    0    0  0.14292829746E+02 -0.16513198511E+02  0.95798540200E+02  0.98256455317E+02  0.00000000000E+00 0. -1.
         -5    1    3    3    0  503 -0.15675335826E+02  0.84584219395E+02 -0.16326591824E+02  0.87686110214E+02  0.47000000000E+01 0.  1.
         11    1    4    4    0    0  0.42387503097E+01 -0.52877734293E+02 -0.59310068904E+02  0.79572018081E+02  0.00000000000E+00 0. -1.
        -12    1    4    4    0    0 -0.28132720635E+00 -0.10981373504E+02  0.22540174807E+02  0.25074472863E+02  0.00000000000E+00 0.  1.
</event>
<event>
12    1  0.8728348E-002  0.3052987E+03  0.7818608E-02  0.1082632E+00
         21   -1    0    0  501  502  0.00000000000E+00  0.00000000000E+00  0.71180076969E+03  0.71180076969E+03  0.00000000000E+00 0.  1.
         21   -1    0    0  502  503 -0.00000000000E+00 -0.00000000000E+00 -0.27907281219E+03  0.27907281219E+03  0.00000000000E+00 0. -1.
         -6    2    1    2    0  503 -0.11365300080E+03  0.22476633544E+03 -0.14461737455E+03  0.33781869768E+03  0.17254094397E+03 0.  0.
        -24    2    3    3    0    0 -0.33260875966E+02  0.17426569341E+03 -0.14491807542E+03  0.24276403445E+03  0.80363611616E+02 0.  0.
          6    2    1    2  501    0  0.11365300080E+03 -0.22476633544E+03  0.57734533205E+03  0.65305488420E+03  0.17238369758E+03 0.  0.
         24    2    5    5    0    0  0.12936291065E+03 -0.22540935153E+03  0.45812360669E+03  0.53270903036E+03  0.79734143325E+02 0.  0.
          5    1    5    5  501    0 -0.15709909846E+02  0.64301609388E+00  0.11922172536E+03  0.12034585383E+03  0.47000000000E+01 0. -1.
        -11    1    6    6    0    0  0.49680603018E+02 -0.11862471664E+03  0.29688358723E+03  0.32354265573E+03  0.00000000000E+00 0.  1.
         12    1    6    6    0    0  0.79682307631E+02 -0.10678463489E+03  0.16124001946E+03  0.20916637463E+03  0.00000000000E+00 0. -1.
         -5    1    3    3    0  503 -0.80392124837E+02  0.50500642028E+02  0.30070086464E+00  0.95054663232E+02  0.47000000000E+01 0.  1.
         11    1    4    4    0    0  0.11622752243E+02  0.99727565697E+02 -0.44294004364E+02  0.10973893818E+03  0.00000000000E+00 0. -1.
        -12    1    4    4    0    0 -0.44883628209E+02  0.74538127712E+02 -0.10062407105E+03  0.13302509628E+03  0.00000000000E+00 0.  1.
</event>
<event>
12    1  0.8728348E-002  0.2095884E+03  0.7818608E-02  0.1142298E+00
         21   -1    0    0  501  502  0.00000000000E+00  0.00000000000E+00  0.23920150648E+04  0.23920150648E+04  0.00000000000E+00 0. -1.
         21   -1    0    0  502  503 -0.00000000000E+00 -0.00000000000E+00 -0.18191285867E+02  0.18191285867E+02  0.00000000000E+00 0.  1.
         -6    2    1    2    0  503  0.62010087967E+02 -0.10043685755E+03  0.11726583211E+04  0.11912408888E+04  0.17318921307E+03 0.  0.
        -24    2    3    3    0    0 -0.17903314302E+02 -0.92103026688E+02  0.83258073844E+03  0.84176920627E+03  0.81124684383E+02 0.  0.
          6    2    1    2  501    0 -0.62010087967E+02  0.10043685755E+03  0.12011654577E+04  0.12189654619E+04  0.17072061090E+03 0.  0.
         24    2    5    5    0    0  0.26606427363E+02  0.19017626445E+02  0.55042733507E+03  0.55717684585E+03  0.80038829780E+02 0.  0.
          5    1    5    5  501    0 -0.88616515330E+02  0.81419231106E+02  0.65073812268E+03  0.66178861602E+03  0.47000000000E+01 0. -1.
        -11    1    6    6    0    0  0.54337047535E+02  0.21025519778E+02  0.34678866782E+03  0.35164892627E+03  0.00000000000E+00 0.  1.
         12    1    6    6    0    0 -0.27730620172E+02 -0.20078933331E+01  0.20363866725E+03  0.20552791959E+03  0.00000000000E+00 0. -1.
         -5    1    3    3    0  503  0.79913402269E+02 -0.83338308621E+01  0.34007758271E+03  0.34947168248E+03  0.47000000000E+01 0.  1.
         13    1    4    4    0    0  0.22903117072E+02 -0.60076734902E+02  0.30856523733E+03  0.31519243731E+03  0.00000000000E+00 0. -1.
        -14    1    4    4    0    0 -0.40806431373E+02 -0.32026291787E+02  0.52401550111E+03  0.52657676896E+03  0.00000000000E+00 0.  1.
</event>
<event>
12    1  0.8728348E-002  0.1763772E+03  0.7818608E-02  0.1172440E+00
         21   -1    0    0  503  502  0.00000000000E+00  0.00000000000E+00  0.10884071978E+03  0.10884071978E+03  0.00000000000E+00 0. -1.
         21   -1    0    0  501  503 -0.00000000000E+00 -0.00000000000E+00 -0.45170927187E+03  0.45170927187E+03  0.00000000000E+00 0. -1.
          6    2    1    2  501    0  0.30658131782E+02 -0.21853122641E+02 -0.34348068050E+03  0.38417168216E+03  0.16790301810E+03 0.  0.
         24    2    3    3    0    0 -0.30482938173E+02 -0.52373636437E+02 -0.16182035129E+03  0.19002663997E+03  0.79070161853E+02 0.  0.
         -6    2    1    2    0  502 -0.30658131782E+02  0.21853122641E+02  0.61212841403E+00  0.17637830949E+03  0.17231208124E+03 0.  0.
        -24    2    5    5    0    0 -0.29325161622E+02 -0.51087722151E+02  0.21390779762E+02  0.10037840159E+03  0.78411335838E+02 0.  0.
          5    1    3    3  501    0  0.61141069955E+02  0.30520513795E+02 -0.18166032921E+03  0.19414504219E+03  0.47000000000E+01 0. -1.
        -13    1    4    4    0    0 -0.41313912273E+02  0.43826846842E+01 -0.60560600667E+02  0.73441361817E+02  0.00000000000E+00 0.  1.
         14    1    4    4    0    0  0.10830974100E+02 -0.56756321121E+02 -0.10125975062E+03  0.11658527815E+03  0.00000000000E+00 0. -1.
         -5    1    5    5    0  502 -0.13329701593E+01  0.72940844792E+02 -0.20778651348E+02  0.75999907897E+02  0.47000000000E+01 0.  1.
         13    1    6    6    0    0 -0.39995218490E+02  0.41629161167E+01  0.17851424492E+02  0.43995689892E+02  0.00000000000E+00 0. -1.
        -14    1    6    6    0    0  0.10670056868E+02 -0.55250638268E+02  0.35393552701E+01  0.56382711697E+02  0.00000000000E+00 0.  1.
</event>
<event>
12    1  0.8728348E-002  0.2781337E+03  0.7818608E-02  0.1096844E+00
         21   -1    0    0  503  502  0.00000000000E+00  0.00000000000E+00  0.33362773232E+03  0.33362773232E+03  0.00000000000E+00 0. -1.
         21   -1    0    0  501  503 -0.00000000000E+00 -0.00000000000E+00 -0.37371763965E+03  0.37371763965E+03  0.00000000000E+00 0. -1.
          6    2    1    2  501    0  0.29788492642E+02  0.21551914109E+03 -0.23852412495E+03  0.36568108647E+03  0.17173539049E+03 0.  0.
         24    2    3    3    0    0 -0.57094869810E+01  0.16521939839E+03 -0.88967933576E+02  0.20388085454E+03  0.79511394142E+02 0.  0.
         -6    2    1    2    0  502 -0.29788492642E+02 -0.21551914109E+03  0.19843421762E+03  0.34166428550E+03  0.17326999392E+03 0.  0.
        -24    2    5    5    0    0 -0.66918774815E+02 -0.20061097566E+03  0.19946728824E+03  0.30136455243E+03  0.79438708466E+02 0.  0.
          5    1    3    3  501    0  0.35497979623E+02  0.50299742706E+02 -0.14955619137E+03  0.16180023193E+03  0.47000000000E+01 0. -1.
        -11    1    4    4    0    0  0.10854110965E+02  0.82924820142E+02 -0.29413920756E+01  0.83683865277E+02  0.00000000000E+00 0.  1.
         12    1    4    4    0    0 -0.16563597946E+02  0.82294578246E+02 -0.86026541500E+02  0.12019698926E+03  0.00000000000E+00 0. -1.
         -5    1    5    5    0  502  0.37130282173E+02 -0.14908165431E+02 -0.10330706229E+01  0.40299733072E+02  0.47000000000E+01 0.  1.
         13    1    6    6    0    0 -0.93316499647E+01 -0.79914852147E+02  0.30886703681E+02  0.86182665014E+02  0.00000000000E+00 0. -1.
        -14    1    6    6    0    0 -0.57587124851E+02 -0.12069612352E+03  0.16858058456E+03  0.21518188741E+03  0.00000000000E+00 0.  1.
</event>
<event>
12    1  0.8728348E-002  0.2239297E+03  0.7818608E-02  0.1132069E+00
         21   -1    0    0  501  502  0.00000000000E+00  0.00000000000E+00  0.15474404451E+03  0.15474404451E+03  0.00000000000E+00 0. -1.
         21   -1    0    0  502  503 -0.00000000000E+00 -0.00000000000E+00 -0.17081498729E+04  0.17081498729E+04  0.00000000000E+00 0.  1.
         -6    2    1    2    0  503 -0.13198207313E+03  0.17956191485E+02 -0.16195918135E+04  0.16349991236E+04  0.18000777627E+03 0.  0.
        -24    2    3    3    0    0 -0.80984437582E+02  0.19876023992E+02 -0.15062359713E+04  0.15105962236E+04  0.78743977079E+02 0.  0.
          6    2    1    2  501    0  0.13198207313E+03 -0.17956191485E+02  0.66185985116E+02  0.22789479376E+03  0.17266661506E+03 0.  0.
         24    2    5    5    0    0  0.23765914802E+02  0.18718498689E+02  0.73878295386E+02  0.11327790382E+03  0.80365913575E+02 0.  0.
          5    1    5    5  501    0  0.10821615833E+03 -0.36674690174E+02 -0.76923102700E+01  0.11461688994E+03  0.47000000000E+01 0. -1.
        -13    1    6    6    0    0  0.10045750130E+02  0.38448247630E+01 -0.17031221562E+02  0.20143541919E+02  0.00000000000E+00 0.  1.
         14    1    6    6    0    0  0.13720164671E+02  0.14873673926E+02  0.90909516948E+02  0.93134361899E+02  0.00000000000E+00 0. -1.
         -5    1    3    3    0  503 -0.50997635546E+02 -0.19198325071E+01 -0.11335584216E+03  0.12440290005E+03  0.47000000000E+01 0.  1.
         11    1    4    4    0    0  0.11551195968E+02  0.80133583705E+01 -0.73908332147E+02  0.75233540402E+02  0.00000000000E+00 0. -1.
        -12    1    4    4    0    0 -0.92535633550E+02  0.11862665622E+02 -0.14323276392E+04  0.14353626832E+04  0.00000000000E+00 0.  1.
</event>
<event>
12    1  0.8728348E-002  0.1812095E+03  0.7818608E-02  0.1166726E+00
         21   -1    0    0  501  502  0.00000000000E+00  0.00000000000E+00  0.15467378274E+04  0.15467378274E+04  0.00000000000E+00 0.  1.
         21   -1    0    0  502  503 -0.00000000000E+00 -0.00000000000E+00 -0.63731546748E+02  0.63731546748E+02  0.00000000000E+00 0.  1.
         -6    2    1    2    0  503 -0.44102168002E+02  0.35820024238E+02  0.83336524559E+02  0.19911814445E+03  0.17168279985E+03 0.  0.
        -24    2    3    3    0    0  0.19849549276E+01 -0.84291702229E+01 -0.19565226516E+02  0.77903976607E+02  0.74908214008E+02 0.  0.
          6    2    1    2  501    0  0.44102168002E+02 -0.35820024238E+02  0.13996697561E+04  0.14113512297E+04  0.17207205498E+03 0.  0.
         24    2    5    5    0    0  0.21843179429E+02 -0.58111096172E+02  0.13378580662E+04  0.13418161344E+04  0.82172437521E+02 0.  0.
          5    1    5    5  501    0  0.22258988573E+02  0.22291071934E+02  0.61811689963E+02  0.69535095286E+02  0.47000000000E+01 0. -1.
        -13    1    6    6    0    0  0.55815745954E+00  0.32268833741E+01  0.80643048106E+03  0.80643713028E+03  0.00000000000E+00 0.  1.
         14    1    6    6    0    0  0.21285021970E+02 -0.61337979547E+02  0.53142758510E+03  0.53537900416E+03  0.00000000000E+00 0. -1.
         -5    1    3    3    0  503 -0.46087122930E+02  0.44249194461E+02  0.10290175108E+03  0.12121416784E+03  0.47000000000E+01 0.  1.
         11    1    4    4    0    0 -0.14587644109E+02  0.91608070580E+01  0.23132330066E+02  0.28841366835E+02  0.00000000000E+00 0. -1.
        -12    1    4    4    0    0  0.16572599037E+02 -0.17589977281E+02 -0.42697556582E+02  0.49062609772E+02  0.00000000000E+00 0.  1.
</event>
<event>
12    1  0.8728348E-002  0.1996192E+03  0.7818608E-02  0.1153414E+00
         21   -1    0    0  503  502  0.00000000000E+00  0.00000000000E+00  0.12762745629E+03  0.12762745629E+03  0.00000000000E+00 0. -1.
         21   -1    0    0  501  503 -0.00000000000E+00 -0.00000000000E+00 -0.30653784376E+03  0.30653784376E+03  0.00000000000E+00 0. -1.
          6    2    1    2  501    0 -0.61838426238E+02  0.79542035722E+02 -0.14482822603E+03  0.24662329709E+03  0.17232791187E+03 0.  0.
         24    2    3    3    0    0 -0.66527116683E+02 -0.12723162476E+02 -0.57408234133E+02  0.11934723650E+03  0.79751623161E+02 0.  0.
         -6    2    1    2    0  502  0.61838426238E+02 -0.79542035722E+02 -0.34082161442E+02  0.18754200296E+03  0.15446515057E+03 0.  0.
        -24    2    5    5    0    0  0.82590032361E+02 -0.15781570560E+02 -0.13039143789E+02  0.11710817113E+03  0.80461997617E+02 0.  0.
          5    1    3    3  501    0  0.46886904452E+01  0.92265198198E+02 -0.87419991896E+02  0.12727606059E+03  0.47000000000E+01 0. -1.
        -13    1    4    4    0    0 -0.82195440880E+02  0.28475452959E+01 -0.41472337898E+02  0.92109466540E+02  0.00000000000E+00 0.  1.
         14    1    4    4    0    0  0.15668324197E+02 -0.15570707772E+02 -0.15935896235E+02  0.27237769961E+02  0.00000000000E+00 0. -1.
         -5    1    5    5    0  502 -0.20751606124E+02 -0.63760465161E+02 -0.21043017654E+02  0.70433831830E+02  0.47000000000E+01 0.  1.
         13    1    6    6    0    0  0.17577310965E+02  0.18159353116E+02  0.24082092092E+02  0.34909470433E+02  0.00000000000E+00 0. -1.
        -14    1    6    6    0    0  0.65012721396E+02 -0.33940923677E+02 -0.37121235881E+02  0.82198700700E+02  0.00000000000E+00 0.  1.
</event>
<event>
12    1  0.8728348E-002  0.2012412E+03  0.7818608E-02  0.1148767E+00
         21   -1    0    0  501  502  0.00000000000E+00  0.00000000000E+00  0.90560198382E+02  0.90560198382E+02  0.00000000000E+00 0.  1.
         21   -1    0    0  502  503 -0.00000000000E+00 -0.00000000000E+00 -0.47633955631E+03  0.47633955631E+03  0.00000000000E+00 0.  1.
         -6    2    1    2    0  503 -0.90760488806E+02  0.52673942023E+02 -0.12172234215E+03  0.23489954310E+03  0.17131683010E+03 0.  0.
        -24    2    3    3    0    0  0.12401239070E+02  0.37847130272E+01 -0.78358714814E+02  0.11269073415E+03  0.79943721407E+02 0.  0.
          6    2    1    2  501    0  0.90760488806E+02 -0.52673942023E+02 -0.26405701578E+03  0.33200021159E+03  0.17171494524E+03 0.  0.
         24    2    5    5    0    0  0.12141431574E+02  0.11369941679E+02 -0.18817963638E+03  0.20526410031E+03  0.80281289172E+02 0.  0.
          5    1    5    5  501    0  0.78619057232E+02 -0.64043883702E+02 -0.75877379395E+02  0.12673611128E+03  0.47000000000E+01 0. -1.
        -13    1    6    6    0    0  0.31099083839E+02  0.15700571078E+02 -0.30239090200E+02  0.46130938901E+02  0.00000000000E+00 0.  1.
         14    1    6    6    0    0 -0.18957652265E+02 -0.43306293982E+01 -0.15794054618E+03  0.15913316140E+03  0.00000000000E+00 0. -1.
         -5    1    3    3    0  503 -0.10316172788E+03  0.48889228995E+02 -0.43363627338E+02  0.12220880895E+03  0.47000000000E+01 0.  1.
         13    1    4    4    0    0 -0.13453411552E+02  0.34495105434E+02 -0.54825157631E+02  0.66156666260E+02  0.00000000000E+00 0. -1.
        -14    1    4    4    0    0  0.25854650622E+02 -0.30710392407E+02 -0.23533557183E+02  0.46534067889E+02  0.00000000000E+00 0.  1.
</event>
<event>
12    1  0.8728348E-002  0.1984543E+03  0.7818608E-02  0.1151103E+00
         21   -1    0    0  501  502  0.00000000000E+00  0.00000000000E+00  0.57524157358E+03  0.57524157358E+03  0.00000000000E+00 0.  1.
         21   -1    0    0  502  503 -0.00000000000E+00 -0.00000000000E+00 -0.21783123061E+03  0.21783123061E+03  0.00000000000E+00 0.  1.
         -6    2    1    2    0  503  0.89111446532E+02 -0.33009765682E+02 -0.14971292674E+03  0.24859217376E+03  0.17422288567E+03 0.  0.
        -24    2    3    3    0    0 -0.67986485767E+01  0.23718902019E+02 -0.38987429343E+02  0.91432656531E+02  0.78937336528E+02 0.  0.
          6    2    1    2  501    0 -0.89111446532E+02  0.33009765682E+02  0.50712326971E+03  0.54448063042E+03  0.17393864345E+03 0.  0.
         24    2    5    5    0    0 -0.10244867933E+03 -0.22457565292E+01  0.48016338132E+03  0.49789995624E+03  0.82744899203E+02 0.  0.
          5    1    5    5  501    0  0.13337232796E+02  0.35255522211E+02  0.26959888392E+02  0.46580674181E+02  0.47000000000E+01 0. -1.
        -11    1    6    6    0    0 -0.62114711116E+02  0.95262807576E+01  0.41905372228E+03  0.42373931788E+03  0.00000000000E+00 0.  1.
         12    1    6    6    0    0 -0.40333968211E+02 -0.11772037287E+02  0.61109659037E+02  0.74160638354E+02  0.00000000000E+00 0. -1.
         -5    1    3    3    0  503  0.95910095109E+02 -0.56728667701E+02 -0.11072549740E+03  0.15715951723E+03  0.47000000000E+01 0.  1.
         13    1    4    4    0    0  0.29753985135E+02  0.23946979816E+02 -0.39404569544E+02  0.54876931170E+02  0.00000000000E+00 0. -1.
        -14    1    4    4    0    0 -0.36552633712E+02 -0.22807779670E+00  0.41714020142E+00  0.36555725361E+02  0.00000000000E+00 0.  1.
</event>
<event>
12    1  0.8728348E-002  0.1748707E+03  0.7818608E-02  0.1172990E+00
         21   -1    0    0  501  502  0.00000000000E+00  0.00000000000E+00  0.97938131249E+03  0.97938131249E+03  0.00000000000E+00 0. -1.
         21   -1    0    0  502  503 -0.00000000000E+00 -0.00000000000E+00 -0.37717622084E+02  0.37717622084E+02  0.00000000000E+00 0. -1.
         -6    2    1    2    0  503  0.25110549840E+02  0.13763065619E+02  0.25777413416E+03  0.31120609627E+03  0.17199351274E+03 0.  0.
        -24    2    3    3    0    0 -0.25132550603E+02  0.62481728407E+02  0.15405909128E+03  0.18599915810E+03  0.79535348900E+02 0.  0.
          6    2    1    2  501    0 -0.25110549840E+02 -0.13763065619E+02  0.68388955626E+03  0.70589283831E+03  0.17251032530E+03 0.  0.
         24    2    5    5    0    0 -0.43119516210E+02 -0.34198356224E+02  0.21413935686E+03  0.23533012856E+03  0.80596432965E+02 0.  0.
          5    1    5    5  501    0  0.18008966370E+02  0.20435290605E+02  0.46975019940E+03  0.47056270975E+03  0.47000000000E+01 0. -1.
        -11    1    6    6    0    0 -0.37233209062E+02 -0.53282009426E+02  0.20142912646E+03  0.21165768914E+03  0.00000000000E+00 0.  1.
         12    1    6    6    0    0 -0.58863071483E+01  0.19083653202E+02  0.12710230396E+02  0.23672439420E+02  0.00000000000E+00 0. -1.
         -5    1    3    3    0  503  0.50243100442E+02 -0.48718662788E+02  0.10371504288E+03  0.12520693817E+03  0.47000000000E+01 0.  1.
         11    1    4    4    0    0 -0.52878880210E+02  0.32790404249E+02  0.10742470734E+03  0.12414287870E+03  0.00000000000E+00 0. -1.
        -12    1    4    4    0    0  0.27746329608E+02  0.29691324158E+02  0.46634383935E+02  0.61856279406E+02  0.00000000000E+00 0.  1.
</event>
<event>
12    1  0.8728348E-002  0.1937954E+03  0.7818608E-02  0.1155154E+00
         21   -1    0    0  503  502  0.00000000000E+00  0.00000000000E+00  0.25719976341E+04  0.25719976341E+04  0.00000000000E+00 0. -1.
         21   -1    0    0  501  503 -0.00000000000E+00 -0.00000000000E+00 -0.25684673882E+02  0.25684673882E+02  0.00000000000E+00 0.  1.
          6    2    1    2  501    0 -0.79419696984E+02 -0.38429037872E+02  0.41842104109E+03  0.46098375825E+03  0.17217891428E+03 0.  0.
         24    2    3    3    0    0 -0.11884434747E+03 -0.92183728055E+01  0.29208627986E+03  0.32537355246E+03  0.79652975049E+02 0.  0.
         -6    2    1    2    0  502  0.79419696984E+02  0.38429037872E+02  0.21278919191E+04  0.21366985498E+04  0.17254678703E+03 0.  0.
        -24    2    5    5    0    0 -0.75254274470E-01 -0.29748237880E+02  0.10201710105E+04  0.10240282079E+04  0.83665504049E+02 0.  0.
          5    1    3    3  501    0  0.39424650489E+02 -0.29210665066E+02  0.12633476123E+03  0.13561020579E+03  0.47000000000E+01 0. -1.
        -11    1    4    4    0    0 -0.32061968321E+02  0.24790124557E+02  0.41467783336E+02  0.57983593740E+02  0.00000000000E+00 0.  1.
         12    1    4    4    0    0 -0.86782379152E+02 -0.34008497363E+02  0.25061849652E+03  0.26738995872E+03  0.00000000000E+00 0. -1.
         -5    1    5    5    0  502  0.79494951259E+02  0.68177275752E+02  0.11077209086E+04  0.11126703418E+04  0.47000000000E+01 0.  1.
         13    1    6    6    0    0  0.38889549067E+02 -0.23898602672E+02  0.39758915496E+03  0.40020079507E+03  0.00000000000E+00 0. -1.
        -14    1    6    6    0    0 -0.38964803341E+02 -0.58496352075E+01  0.62258185556E+03  0.62382741284E+03  0.00000000000E+00 0.  1.
</event>
<event>
12    1  0.8728348E-002  0.1781810E+03  0.7818608E-02  0.1170446E+00
         21   -1    0    0  501  502  0.00000000000E+00  0.00000000000E+00  0.18978837461E+03  0.18978837461E+03  0.00000000000E+00 0. -1.
         21   -1    0    0  502  503 -0.00000000000E+00 -0.00000000000E+00 -0.21858309441E+03  0.21858309441E+03  0.00000000000E+00 0. -1.
         -6    2    1    2    0  503  0.17689072761E+02  0.26458243310E+02 -0.11631816843E+03  0.20985487839E+03  0.17174461197E+03 0.  0.
        -24    2    3    3    0    0 -0.49988368588E+02  0.15824199536E+02 -0.33593031985E+02  0.10234275277E+03  0.81217639477E+02 0.  0.
          6    2    1    2  501    0 -0.17689072761E+02 -0.26458243310E+02  0.87523448627E+02  0.19851659063E+03  0.17531554627E+03 0.  0.
         24    2    5    5    0    0 -0.34832338776E+02  0.39833182796E+02  0.12507895632E+02  0.96841284210E+02  0.80136212776E+02 0.  0.
          5    1    5    5  501    0  0.17143266015E+02 -0.66291426106E+02  0.75015552994E+02  0.10167530642E+03  0.47000000000E+01 0. -1.
        -13    1    6    6    0    0  0.24781182625E+02  0.22982709599E+02  0.87600174971E+00  0.33809456249E+02  0.00000000000E+00 0.  1.
         14    1    6    6    0    0 -0.59613521401E+02  0.16850473197E+02  0.11631893883E+02  0.63031827961E+02  0.00000000000E+00 0. -1.
         -5    1    3    3    0  503  0.67677441349E+02  0.10634043773E+02 -0.82725136442E+02  0.10751212561E+03  0.47000000000E+01 0.  1.
         11    1    4    4    0    0 -0.56624783166E+02  0.32614707325E+02 -0.46454655139E+02  0.80175558535E+02  0.00000000000E+00 0. -1.
        -12    1    4    4    0    0  0.66364145774E+01 -0.16790507788E+02  0.12861623153E+02  0.22167194238E+02  0.00000000000E+00 0.  1.
</event>
<event>
12    1  0.8728348E-002  0.1889589E+03  0.7818608E-02  0.1159463E+00
         21   -1    0    0  503  502  0.00000000000E+00  0.00000000000E+00  0.50823518414E+02  0.50823518414E+02  0.00000000000E+00 0. -1.
         21   -1    0    0  501  503 -0.00000000000E+00 -0.00000000000E+00 -0.71045275365E+03  0.71045275365E+03  0.00000000000E+00 0. -1.
          6    2    1    2  501    0 -0.73191530829E+02 -0.23756228857E+02 -0.28700697630E+03  0.34348107138E+03  0.17229301597E+03 0.  0.
         24    2    3    3    0    0  0.28020489017E+01 -0.59113555313E+02 -0.10873974467E+03  0.14643676020E+03  0.78212075579E+02 0.  0.
         -6    2    1    2    0  502  0.73191530829E+02  0.23756228857E+02 -0.37262225893E+03  0.41779520069E+03  0.17258077317E+03 0.  0.
        -24    2    5    5    0    0 -0.25873172859E+02 -0.86809035271E+01 -0.14130797720E+03  0.16403474276E+03  0.78706246585E+02 0.  0.
          5    1    3    3  501    0 -0.75993579731E+02  0.35357326456E+02 -0.17826723163E+03  0.19704431118E+03  0.47000000000E+01 0. -1.
        -13    1    4    4    0    0  0.18142269641E+01  0.79741631213E+01 -0.66829338641E+02  0.67327848623E+02  0.00000000000E+00 0.  1.
         14    1    4    4    0    0  0.98782193759E+00 -0.67087718435E+02 -0.41910406027E+02  0.79108911573E+02  0.00000000000E+00 0. -1.
         -5    1    5    5    0  502  0.99064703688E+02  0.32437132384E+02 -0.23131428173E+03  0.25376045793E+03  0.47000000000E+01 0.  1.
         11    1    6    6    0    0  0.24274187052E+02 -0.64019771396E+01 -0.84855699348E+02  0.88491305676E+02  0.00000000000E+00 0. -1.
        -12    1    6    6    0    0 -0.50147359911E+02 -0.22789263876E+01 -0.56452277854E+02  0.75543437084E+02  0.00000000000E+00 0.  1.
</event>
<event>
12    1  0.8728348E-002  0.2018750E+03  0.7818608E-02  0.1149238E+00
         21   -1    0    0  501  502  0.00000000000E+00  0.00000000000E+00  0.18884751255E+03  0.18884751255E+03  0.00000000000E+00 0.  1.
         21   -1    0    0  502  503 -0.00000000000E+00 -0.00000000000E+00 -0.32719296024E+03  0.32719296024E+03  0.00000000000E+00 0. -1.
         -6    2    1    2    0  503  0.41778294718E+02 -0.85248598588E+02 -0.22387839079E+03  0.30145488791E+03  0.17815938400E+03 0.  0.
        -24    2    3    3    0    0  0.59152055622E+02 -0.68253862438E+02 -0.57038879319E+02  0.13278900157E+03  0.78879209951E+02 0.  0.
          6    2    1    2  501    0 -0.41778294718E+02  0.85248598588E+02  0.85532943107E+02  0.21458558488E+03  0.17239007922E+03 0.  0.
         24    2    5    5    0    0 -0.76517751141E+02  0.11087445289E+03  0.78414916462E+02  0.17058251062E+03  0.69292014436E+02 0.  0.
          5    1    5    5  501    0  0.34739456424E+02 -0.25625854297E+02  0.71180266448E+01  0.44003074261E+02  0.47000000000E+01 0. -1.
        -13    1    6    6    0    0 -0.39892222473E+02  0.26511227073E+02 -0.26692085995E+01  0.47972484294E+02  0.00000000000E+00 0.  1.
         14    1    6    6    0    0 -0.36625528668E+02  0.84363225812E+02  0.81084125061E+02  0.12261002633E+03  0.00000000000E+00 0. -1.
         -5    1    3    3    0  503 -0.17373760904E+02 -0.16994736150E+02 -0.16683951147E+03  0.16866588634E+03  0.47000000000E+01 0.  1.
         13    1    4    4    0    0  0.69097038454E+02 -0.78735888050E+02 -0.45124286375E+02  0.11406113278E+03  0.00000000000E+00 0. -1.
        -14    1    4    4    0    0 -0.99449828318E+01  0.10482025612E+02 -0.11914592944E+02  0.18727868792E+02  0.00000000000E+00 0.  1.
</event>
<event>
12    1  0.8728348E-002  0.1810685E+03  0.7818608E-02  0.1167229E+00
         21   -1    0    0  501  502  0.00000000000E+00  0.00000000000E+00  0.14627553832E+03  0.14627553832E+03  0.00000000000E+00 0. -1.
         21   -1    0    0  502  503 -0.00000000000E+00 -0.00000000000E+00 -0.31766814567E+03  0.31766814567E+03  0.00000000000E+00 0. -1.
         -6    2    1    2    0  503  0.38300521285E+02  0.33896023804E+02 -0.21344085149E+03  0.27989786337E+03  0.17369498115E+03 0.  0.
        -24    2    3    3    0    0  0.31404452189E+02  0.10918597108E+02 -0.25389150995E+02  0.90263873895E+02  0.79984389490E+02 0.  0.
          6    2    1    2  501    0 -0.38300521285E+02 -0.33896023804E+02  0.42048244143E+02  0.18404582062E+03  0.17172343722E+03 0.  0.
         24    2    5    5    0    0 -0.80231895166E+02 -0.58921620762E+02  0.16307271656E+02  0.12864538485E+03  0.79842304201E+02 0.  0.
          5    1    5    5  501    0  0.41931373880E+02  0.25025596959E+02  0.25740972488E+02  0.55400435768E+02  0.47000000000E+01 0. -1.
        -11    1    6    6    0    0 -0.12793801543E+02 -0.80727044299E+01 -0.29067551245E+02  0.32768467314E+02  0.00000000000E+00 0.  1.
         12    1    6    6    0    0 -0.67438093623E+02 -0.50848916332E+02  0.45374822901E+02  0.95876917540E+02  0.00000000000E+00 0. -1.
         -5    1    3    3    0  503  0.68960690961E+01  0.22977426696E+02 -0.18805170049E+03  0.18963398948E+03  0.47000000000E+01 0.  1.
         11    1    4    4    0    0 -0.25647104496E+02  0.14405600495E+02 -0.72424143178E+01  0.30294353596E+02  0.00000000000E+00 0. -1.
        -12    1    4    4    0    0  0.57051556685E+02 -0.34870033870E+01 -0.18146736678E+02  0.59969520299E+02  0.00000000000E+00 0.  1.
</event>
<event>
12    1  0.8728348E-002  0.2272045E+03  0.7818608E-02  0.1129528E+00
         21   -1    0    0  503  502  0.00000000000E+00  0.00000000000E+00  0.19801316514E+02  0.19801316514E+02  0.00000000000E+00 0. -1.
         21   -1    0    0  501  503 -0.00000000000E+00 -0.00000000000E+00 -0.25517854238E+04  0.25517854238E+04  0.00000000000E+00 0.  1.
          6    2    1    2  501    0  0.35806892413E+02 -0.13603496535E+03 -0.12168876194E+04  0.12370079164E+04  0.17200424923E+03 0.  0.
         24    2    3    3    0    0 -0.91651734131E+01 -0.64483064038E+02 -0.97895339920E+03  0.98446694070E+03  0.81137744457E+02 0.  0.
         -6    2    1    2    0  502 -0.35806892413E+02  0.13603496535E+03 -0.13150964879E+04  0.13345788239E+04  0.17842146544E+03 0.  0.
        -24    2    5    5    0    0  0.44598303340E+01  0.12541088776E+03 -0.60420768907E+03  0.62245576268E+03  0.81464496047E+02 0.  0.
          5    1    3    3  501    0  0.44972065826E+02 -0.71551901309E+02 -0.23793422015E+03  0.25254097569E+03  0.47000000000E+01 0. -1.
        -11    1    4    4    0    0 -0.27246319995E+02  0.61100293812E+01 -0.17452919428E+03  0.17674878802E+03  0.00000000000E+00 0.  1.
         12    1    4    4    0    0  0.18081146582E+02 -0.70593093419E+02 -0.80442420493E+03  0.80771815268E+03  0.00000000000E+00 0. -1.
         -5    1    5    5    0  502 -0.40266722747E+02  0.10624077586E+02 -0.71088879884E+03  0.71212306120E+03  0.47000000000E+01 0.  1.
         11    1    6    6    0    0 -0.92074316257E-01  0.37182991757E+02 -0.56294790973E+02  0.67466190380E+02  0.00000000000E+00 0. -1.
        -12    1    6    6    0    0  0.45519046503E+01  0.88227896003E+02 -0.54791289809E+03  0.55498957230E+03  0.00000000000E+00 0.  1.
</event>
<event>
12    1  0.8728348E-002  0.1990299E+03  0.7818608E-02  0.1151773E+00
         21   -1    0    0  503  502  0.00000000000E+00  0.00000000000E+00  0.48090548505E+02  0.48090548505E+02  0.00000000000E+00 0. -1.
         21   -1    0    0  501  503 -0.00000000000E+00 -0.00000000000E+00 -0.94772951243E+03  0.94772951243E+03  0.00000000000E+00 0. -1.
          6    2    1    2  501    0 -0.85428129116E+02  0.23437862227E+02 -0.24820814453E+03  0.31466295995E+03  0.17192497410E+03 0.  0.
         24    2    3    3    0    0 -0.12728803841E+02  0.57038246465E+02 -0.19468227848E+03  0.21821978470E+03  0.79393330140E+02 0.  0.
         -6    2    1    2    0  502  0.85428129116E+02 -0.23437862227E+02 -0.65143081939E+03  0.68115710098E+03  0.17822902441E+03 0.  0.
        -24    2    5    5    0    0  0.41940106650E+02 -0.83973969880E+02 -0.41363371865E+03  0.43190746799E+03  0.81489922922E+02 0.  0.
          5    1    3    3  501    0 -0.72699325275E+02 -0.33600384238E+02 -0.53525866053E+02  0.96443175254E+02  0.47000000000E+01 0. -1.
        -13    1    4    4    0    0  0.66350526755E+01  0.18074550357E+02 -0.16364577050E+03  0.16477454748E+03  0.00000000000E+00 0.  1.
         14    1    4    4    0    0 -0.19363856517E+02  0.38963696107E+02 -0.31036507986E+02  0.53445237220E+02  0.00000000000E+00 0. -1.
         -5    1    5    5    0  502  0.43488022466E+02  0.60536107653E+02 -0.23779710074E+03  0.24924963300E+03  0.47000000000E+01 0.  1.
         11    1    6    6    0    0  0.38189982155E+02 -0.21702231043E+01 -0.84757249247E+02  0.92989117134E+02  0.00000000000E+00 0. -1.
        -12    1    6    6    0    0  0.37501244951E+01 -0.81803746776E+02 -0.32887646940E+03  0.33891835085E+03  0.00000000000E+00 0.  1.
</event>
<event>
12    1  0.8728348E-002  0.1872357E+03  0.7818608E-02  0.1161149E+00
         21   -1    0    0  501  502  0.00000000000E+00  0.00000000000E+00  0.30004724709E+03  0.30004724709E+03  0.00000000000E+00 0.  1.
         21   -1    0    0  502  503 -0.00000000000E+00 -0.00000000000E+00 -0.16861865926E+03  0.16861865926E+03  0.00000000000E+00 0.  1.
         -6    2    1    2    0  503  0.40679393250E+02  0.60703695606E+02 -0.64810018461E+02  0.19743387480E+03  0.17158101507E+03 0.  0.
        -24    2    3    3    0    0  0.85251098551E+02  0.74284470334E+02 -0.39535967125E+02  0.14421788072E+03  0.80310473072E+02 0.  0.
          6    2    1    2  501    0 -0.40679393250E+02 -0.60703695606E+02  0.19623860629E+03  0.27123203155E+03  0.17238756523E+03 0.  0.
         24    2    5    5    0    0 -0.96436510132E+01 -0.88812230360E+02  0.73956100397E+02  0.14189368353E+03  0.81753901274E+02 0.  0.
          5    1    5    5  501    0 -0.31035742237E+02  0.28108534754E+02  0.12228250589E+03  0.12933834802E+03  0.47000000000E+01 0. -1.
        -11    1    6    6    0    0  0.64102823300E+01 -0.78360372420E+02  0.88100604609E+02  0.11808114252E+03  0.00000000000E+00 0.  1.
         12    1    6    6    0    0 -0.16053933343E+02 -0.10451857940E+02 -0.14144504212E+02  0.23812541015E+02  0.00000000000E+00 0. -1.
         -5    1    3    3    0  503 -0.44571705300E+02 -0.13580774728E+02 -0.25274051336E+02  0.53215994086E+02  0.47000000000E+01 0.  1.
         11    1    4    4    0    0 -0.42756608589E+00 -0.97367091883E+01  0.10389265906E+02  0.14245110201E+02  0.00000000000E+00 0. -1.
        -12    1    4    4    0    0  0.85678664636E+02  0.84021179522E+02 -0.49925233032E+02  0.12997277052E+03  0.00000000000E+00 0.  1.
</event>
<event>
12    1  0.8728348E-002  0.2270665E+03  0.7818608E-02  0.1128919E+00
         21   -1    0    0  501  502  0.00000000000E+00  0.00000000000E+00  0.37147464795E+03  0.37147464795E+03  0.00000000000E+00 0. -1.
         21   -1    0    0  502  503 -0.00000000000E+00 -0.00000000000E+00 -0.14377045863E+03  0.14377045863E+03  0.00000000000E+00 0. -1.
         -6    2    1    2    0  503 -0.13841055280E+03  0.52263858131E+02  0.62529202670E+02  0.23445700851E+03  0.17079577179E+03 0.  0.
        -24    2    3    3    0    0 -0.12868256488E+03 -0.17222277716E+02  0.62481433135E+02  0.16413596539E+03  0.78618549303E+02 0.  0.
          6    2    1    2  501    0  0.13841055280E+03 -0.52263858131E+02  0.16517498665E+03  0.28078809808E+03  0.17225036376E+03 0.  0.
         24    2    5    5    0    0  0.34862746874E+02  0.14798137876E+02  0.12183450455E+03  0.14994488347E+03  0.78774523645E+02 0.  0.
          5    1    5    5  501    0  0.10354780592E+03 -0.67061996006E+02  0.43340482099E+02  0.13084321461E+03  0.47000000000E+01 0. -1.
        -11    1    6    6    0    0  0.57984717627E+01 -0.28338736297E+02  0.18722501111E+02  0.34456324493E+02  0.00000000000E+00 0.  1.
         12    1    6    6    0    0  0.29064275111E+02  0.43136874173E+02  0.10311200344E+03  0.11548855898E+03  0.00000000000E+00 0. -1.
         -5    1    3    3    0  503 -0.97279879225E+01  0.69486135847E+02  0.47769534998E-01  0.70321043123E+02  0.47000000000E+01 0.  1.
         11    1    4    4    0    0 -0.87846161252E+02  0.24033995624E+02  0.23003321893E+02  0.93934731652E+02  0.00000000000E+00 0. -1.
        -12    1    4    4    0    0 -0.40836403623E+02 -0.41256273340E+02  0.39478111242E+02  0.70201233736E+02  0.00000000000E+00 0.  1.
</event>
<event>
12    1  0.8728348E-002  0.2736606E+03  0.7818608E-02  0.1099244E+00
         21   -1    0    0  501  502  0.00000000000E+00  0.00000000000E+00  0.16183251805E+03  0.16183251805E+03  0.00000000000E+00 0. -1.
         21   -1    0    0  502  503 -0.00000000000E+00 -0.00000000000E+00 -0.47409921044E+03  0.47409921044E+03  0.00000000000E+00 0. -1.
         -6    2    1    2    0  503  0.10241558013E+03 -0.18619789405E+03 -0.10598406769E+03  0.29346673141E+03  0.17242822576E+03 0.  0.
        -24    2    3    3    0    0  0.36981071288E+01 -0.82570880573E+02 -0.95575024980E+02  0.14989049533E+03  0.80628461936E+02 0.  0.
          6    2    1    2  501    0 -0.10241558013E+03  0.18619789405E+03 -0.20628262471E+03  0.34246499707E+03  0.17196263014E+03 0.  0.
         24    2    5    5    0    0  0.13809246393E+02  0.94288164834E+02 -0.71200947581E+02  0.14190388888E+03  0.77370442866E+02 0.  0.
          5    1    5    5  501    0 -0.11622482653E+03  0.91909729216E+02 -0.13508167712E+03  0.20056110819E+03  0.47000000000E+01 0. -1.
        -11    1    6    6    0    0  0.18310812791E+02 -0.42345101971E+01 -0.29160045029E+02  0.34691860252E+02  0.00000000000E+00 0.  1.
         12    1    6    6    0    0 -0.45015663977E+01  0.98522675031E+02 -0.42040902552E+02  0.10721202863E+03  0.00000000000E+00 0. -1.
         -5    1    3    3    0  503  0.98717473003E+02 -0.10362701348E+03 -0.10409042706E+02  0.14357623609E+03  0.47000000000E+01 0.  1.
         11    1    4    4    0    0  0.77821261048E+01 -0.34968230706E+02 -0.95622780053E+02  0.10211295075E+03  0.00000000000E+00 0. -1.
        -12    1    4    4    0    0 -0.40840189760E+01 -0.47602649866E+02  0.47755072756E-01  0.47777544578E+02  0.00000000000E+00 0.  1.
</event>
<event>
12    1  0.8728348E-002  0.2439359E+03  0.7818608E-02  0.1117536E+00
         21   -1    0    0  503  502  0.00000000000E+00  0.00000000000E+00  0.15409598532E+03  0.15409598532E+03  0.00000000000E+00 0. -1.
         21   -1    0    0  501  503 -0.00000000000E+00 -0.00000000000E+00 -0.38297726776E+03  0.38297726776E+03  0.00000000000E+00 0.  1.
          6    2    1    2  501    0  0.77862348519E+01 -0.17233236558E+03 -0.11773918540E+03  0.26901112714E+03  0.16954468752E+03 0.  0.
         24    2    3    3    0    0 -0.16272624311E+02 -0.10035080571E+03 -0.28626901788E+00  0.12909168163E+03  0.79558141049E+02 0.  0.
         -6    2    1    2    0  502 -0.77862348519E+01  0.17233236558E+03 -0.11114209704E+03  0.26806212594E+03  0.17246932466E+03 0.  0.
        -24    2    5    5    0    0 -0.26142425525E+02  0.73696899434E+02  0.89625072577E+01  0.11149549191E+03  0.78969986581E+02 0.  0.
          5    1    3    3  501    0  0.24058859163E+02 -0.71981559866E+02 -0.11745291638E+03  0.13991944551E+03  0.47000000000E+01 0. -1.
        -13    1    4    4    0    0 -0.28175451091E+02 -0.12392056965E+02 -0.21852848011E+02  0.37748722974E+02  0.00000000000E+00 0.  1.
         14    1    4    4    0    0  0.11902826779E+02 -0.87958748749E+02  0.21566578993E+02  0.91342958658E+02  0.00000000000E+00 0. -1.
         -5    1    5    5    0  502  0.18356190673E+02  0.98635466146E+02 -0.12010460430E+03  0.15656663403E+03  0.47000000000E+01 0.  1.
         11    1    6    6    0    0 -0.33085283542E+02  0.47866050792E+00  0.17540226775E+02  0.37450295836E+02  0.00000000000E+00 0. -1.
        -12    1    6    6    0    0  0.69428580166E+01  0.73218238926E+02 -0.85777195175E+01  0.74045196070E+02  0.00000000000E+00 0.  1.
</event>
<event>
12    1  0.8728348E-002  0.1835050E+03  0.7818608E-02  0.1164968E+00
         21   -1    0    0  503  502  0.00000000000E+00  0.00000000000E+00  0.11606880129E+03  0.11606880129E+03  0.00000000000E+00 0. -1.
         21   -1    0    0  501  503 -0.00000000000E+00 -0.00000000000E+00 -0.10824650435E+04  0.10824650435E+04  0.00000000000E+00 0. -1.
          6    2    1    2  501    0  0.57544334326E+02 -0.13073569686E+02 -0.99624756833E+03  0.10126167093E+04  0.17146752991E+03 0.  0.
         24    2    3    3    0    0  0.50053575728E+02 -0.54033418471E+01 -0.99650540673E+03  0.10009077238E+04  0.79111878907E+02 0.  0.
         -6    2    1    2    0  502 -0.57544334326E+02  0.13073569686E+02  0.29851326167E+02  0.18591713549E+03  0.17375790906E+03 0.  0.
        -24    2    5    5    0    0 -0.55740925967E+02  0.14507161058E+01 -0.47004959119E+02  0.10802412172E+03  0.79690584680E+02 0.  0.
          5    1    3    3  501    0  0.74907585982E+01 -0.76702278394E+01  0.25783840157E+00  0.11708985444E+02  0.47000000000E+01 0. -1.
        -11    1    4    4    0    0  0.11070423520E+01 -0.58930321072E+01 -0.40268132264E+01  0.72227830472E+01  0.00000000000E+00 0.  1.
         12    1    4    4    0    0  0.48946533376E+02  0.48969026019E+00 -0.99247859350E+03  0.99368494076E+03  0.00000000000E+00 0. -1.
         -5    1    5    5    0  502 -0.18034083591E+01  0.11622853581E+02  0.76856285286E+02  0.77893013775E+02  0.47000000000E+01 0.  1.
         13    1    6    6    0    0 -0.55110892950E+02  0.30593352601E+02 -0.15116373944E+02  0.64820278512E+02  0.00000000000E+00 0. -1.
        -14    1    6    6    0    0 -0.63003301693E+00 -0.29142636495E+02 -0.31888585175E+02  0.43203843208E+02  0.00000000000E+00 0.  1.
</event>
<event>
12    1  0.8728348E-002  0.1868880E+03  0.7818608E-02  0.1161664E+00
         21   -1    0    0  501  502  0.00000000000E+00  0.00000000000E+00  0.76305488040E+03  0.76305488040E+03  0.00000000000E+00 0. -1.
         21   -1    0    0  502  503 -0.00000000000E+00 -0.00000000000E+00 -0.79941551383E+02  0.79941551383E+02  0.00000000000E+00 0. -1.
         -6    2    1    2    0  503  0.31604797515E+02  0.59611519643E+02  0.65264557891E+02  0.19795604642E+03  0.17428349691E+03 0.  0.
        -24    2    3    3    0    0 -0.40000602824E+02  0.58773069840E+02  0.67661766044E+02  0.12615163874E+03  0.79257803444E+02 0.  0.
          6    2    1    2  501    0 -0.31604797515E+02 -0.59611519643E+02  0.61784877113E+03  0.64504038536E+03  0.17259084063E+03 0.  0.
         24    2    5    5    0    0  0.38222243005E+02 -0.18053428553E+02  0.31979178792E+03  0.33606960072E+03  0.94282144478E+02 0.  0.
          5    1    5    5  501    0 -0.69827040521E+02 -0.41558091090E+02  0.29805698321E+03  0.30897078464E+03  0.47000000000E+01 0. -1.
        -11    1    6    6    0    0 -0.54366940264E+01 -0.40531523905E+02  0.66548811868E+02  0.78109579650E+02  0.00000000000E+00 0.  1.
         12    1    6    6    0    0  0.43658937032E+02  0.22478095352E+02  0.25324297605E+03  0.25796002107E+03  0.00000000000E+00 0. -1.
         -5    1    3    3    0  503  0.71605400339E+02  0.83844980283E+00 -0.23972081527E+01  0.71804407683E+02  0.47000000000E+01 0.  1.
         13    1    4    4    0    0 -0.56556808909E+01 -0.56178672094E+01 -0.14322787989E+02  0.16391748354E+02  0.00000000000E+00 0. -1.
        -14    1    4    4    0    0 -0.34344921933E+02  0.64390937050E+02  0.81984554033E+02  0.10975989038E+03  0.00000000000E+00 0.  1.
</event>
<event>
12    1  0.8728348E-002  0.1769154E+03  0.7818608E-02  0.1172322E+00
         21   -1    0    0  501  502  0.00000000000E+00  0.00000000000E+00  0.13367461963E+03  0.13367461963E+03  0.00000000000E+00 0. -1.
         21   -1    0    0  502  503 -0.00000000000E+00 -0.00000000000E+00 -0.25009329485E+03  0.25009329485E+03  0.00000000000E+00 0. -1.
         -6    2    1    2    0  503  0.73755131032E+01 -0.30061919226E+02 -0.11824528297E+03  0.21279335484E+03  0.17418653145E+03 0.  0.
        -24    2    3    3    0    0  0.70199504899E+02 -0.31488016569E+02 -0.49811462300E+02  0.11976558743E+03  0.77091818499E+02 0.  0.
          6    2    1    2  501    0 -0.73755131032E+01  0.30061919226E+02  0.18266077455E+01  0.17097455964E+03  0.16813936590E+03 0.  0.
         24    2    5    5    0    0 -0.30697519638E+02 -0.39801843813E+02  0.17481223684E+02  0.95529093404E+02  0.79332780250E+02 0.  0.
          5    1    5    5  501    0  0.23322006535E+02  0.69863763038E+02 -0.15654615939E+02  0.75445466231E+02  0.47000000000E+01 0. -1.
        -13    1    6    6    0    0 -0.25025038238E+02  0.61275025601E+01 -0.22626491861E+02  0.34289312626E+02  0.00000000000E+00 0.  1.
         14    1    6    6    0    0 -0.56724814000E+01 -0.45929346373E+02  0.40107715545E+02  0.61239780778E+02  0.00000000000E+00 0. -1.
         -5    1    3    3    0  503 -0.62823991795E+02  0.14260973433E+01 -0.68433820671E+02  0.93027767416E+02  0.47000000000E+01 0.  1.
         13    1    4    4    0    0  0.25167368592E+02 -0.46924578483E+01 -0.61025334786E+02  0.66177844391E+02  0.00000000000E+00 0. -1.
        -14    1    4    4    0    0  0.45032136306E+02 -0.26795558721E+02  0.11213872485E+02  0.53587743035E+02  0.00000000000E+00 0.  1.
</event>
<event>
12    1  0.8728348E-002  0.2676712E+03  0.7818608E-02  0.1103712E+00
         21   -1    0    0  501  502  0.00000000000E+00  0.00000000000E+00  0.17126779262E+03  0.17126779262E+03  0.00000000000E+00 0. -1.
         21   -1    0    0  502  503 -0.00000000000E+00 -0.00000000000E+00 -0.41243991116E+03  0.41243991116E+03  0.00000000000E+00 0. -1.
         -6    2    1    2    0  503  0.23049515663E+02 -0.19318284870E+03 -0.15638305610E+03  0.31000572544E+03  0.18383959412E+03 0.  0.
        -24    2    3    3    0    0 -0.10316466769E+02 -0.21344750248E+03 -0.13327429790E+03  0.26439816376E+03  0.80486549918E+02 0.  0.
          6    2    1    2  501    0 -0.23049515663E+02  0.19318284870E+03 -0.84789062443E+02  0.27370197835E+03  0.17283719114E+03 0.  0.
         24    2    5    5    0    0  0.22207877082E+02  0.19564061685E+03 -0.58879989683E+02  0.22128402080E+03  0.82044645831E+02 0.  0.
          5    1    5    5  501    0 -0.45257392746E+02 -0.24577681549E+01 -0.25909072760E+02  0.52417957550E+02  0.47000000000E+01 0. -1.
        -11    1    6    6    0    0 -0.29482309221E+01  0.65741895248E+01  0.15080679604E+02  0.16713435637E+02  0.00000000000E+00 0.  1.
         12    1    6    6    0    0  0.25156108004E+02  0.18906642733E+03 -0.73960669288E+02  0.20457058516E+03  0.00000000000E+00 0. -1.
         -5    1    3    3    0  503  0.33365982432E+02  0.20264653782E+02 -0.23108758196E+02  0.45607561675E+02  0.47000000000E+01 0.  1.
         11    1    4    4    0    0 -0.41133656857E+02 -0.12687091990E+03 -0.57293386916E+02  0.14515763923E+03  0.00000000000E+00 0. -1.
        -12    1    4    4    0    0  0.30817190088E+02 -0.86576582578E+02 -0.75980910984E+02  0.11924052453E+03  0.00000000000E+00 0.  1.
</event>
<event>
12    1  0.8728348E-002  0.1950161E+03  0.7818608E-02  0.1155013E+00
         21   -1    0    0  503  502  0.00000000000E+00  0.00000000000E+00  0.24550800595E+03  0.24550800595E+03  0.00000000000E+00 0. -1.
         21   -1    0    0  501  503 -0.00000000000E+00 -0.00000000000E+00 -0.20931575447E+03  0.20931575447E+03  0.00000000000E+00 0.  1.
          6    2    1    2  501    0 -0.71650859266E+02  0.54268845167E+02 -0.10143769619E+03  0.21982007741E+03  0.17306734827E+03 0.  0.
         24    2    3    3    0    0 -0.26213757893E+02  0.59417161389E+02  0.68838667221E+01  0.10214813372E+03  0.78544849804E+02 0.  0.
         -6    2    1    2    0  502  0.71650859266E+02 -0.54268845167E+02  0.13762994766E+03  0.23500368301E+03  0.16794575119E+03 0.  0.
        -24    2    5    5    0    0  0.70158847558E+02 -0.13647119875E+02  0.15635067651E+03  0.19000472354E+03  0.80918188009E+02 0.  0.
          5    1    3    3  501    0 -0.45437101373E+02 -0.51483162215E+01 -0.10832156291E+03  0.11767194369E+03  0.47000000000E+01 0. -1.
        -11    1    4    4    0    0 -0.43373072694E+02  0.63098912809E+02 -0.10691212561E+02  0.77311048749E+02  0.00000000000E+00 0.  1.
         12    1    4    4    0    0  0.17159314801E+02 -0.36817514209E+01  0.17575079283E+02  0.24837084969E+02  0.00000000000E+00 0. -1.
         -5    1    5    5    0  502  0.14920117078E+01 -0.40621725292E+02 -0.18720728846E+02  0.44998959468E+02  0.47000000000E+01 0.  1.
         13    1    6    6    0    0  0.64347552027E+02  0.41146532335E+01  0.48856316779E+02  0.80897945044E+02  0.00000000000E+00 0. -1.
        -14    1    6    6    0    0  0.58112955310E+01 -0.17761773108E+02  0.10749435973E+03  0.10910677850E+03  0.00000000000E+00 0.  1.
</event>
<event>
12    1  0.8728348E-002  0.2721821E+03  0.7818608E-02  0.1101063E+00
         21   -1    0    0  503  502  0.00000000000E+00  0.00000000000E+00  0.70463776212E+03  0.70463776212E+03  0.00000000000E+00 0. -1.
         21   -1    0    0  501  503 -0.00000000000E+00 -0.00000000000E+00 -0.11885125983E+03  0.11885125983E+03  0.00000000000E+00 0.  1.
          6    2    1    2  501    0  0.16175200598E+03  0.13496098975E+03  0.14305195263E+03  0.30748492556E+03  0.17235120569E+03 0.  0.
         24    2    3    3    0    0  0.53702655014E+01  0.25875188903E+02  0.98696916919E+01  0.74859550054E+02  0.69341014327E+02 0.  0.
         -6    2    1    2    0  502 -0.16175200598E+03 -0.13496098975E+03  0.44273454966E+03  0.51600409639E+03  0.16083583503E+03 0.  0.
        -24    2    5    5    0    0 -0.65750530994E+02 -0.47252804977E+01  0.19255739582E+03  0.21803040381E+03  0.78188526644E+02 0.  0.
          5    1    3    3  501    0  0.15638174048E+03  0.10908580084E+03  0.13318226093E+03  0.23262537551E+03  0.47000000000E+01 0. -1.
        -13    1    4    4    0    0  0.26448297747E+01  0.20269734937E+02 -0.29007156623E+02  0.35486228516E+02  0.00000000000E+00 0.  1.
         14    1    4    4    0    0  0.27254357267E+01  0.56054539660E+01  0.38876848315E+02  0.39373321538E+02  0.00000000000E+00 0. -1.
         -5    1    5    5    0  502 -0.96001474988E+02 -0.13023570925E+03  0.25017715384E+03  0.29797369257E+03  0.47000000000E+01 0.  1.
         11    1    6    6    0    0 -0.43898985475E+02 -0.27611299847E+02  0.17351600779E+03  0.18110027544E+03  0.00000000000E+00 0. -1.
        -12    1    6    6    0    0 -0.21851545519E+02  0.22886019349E+02  0.19041388027E+02  0.36930128367E+02  0.00000000000E+00 0.  1.
</event>
<event>
12    1  0.8728348E-002  0.2190234E+03  0.7818608E-02  0.1135243E+00
         21   -1    0    0  501  502  0.00000000000E+00  0.00000000000E+00  0.14548353835E+03  0.14548353835E+03  0.00000000000E+00 0.  1.
         21   -1    0    0  502  503 -0.00000000000E+00 -0.00000000000E+00 -0.10922476578E+04  0.10922476578E+04  0.00000000000E+00 0. -1.
         -6    2    1    2    0  503 -0.12988958868E+03 -0.12102244499E+02 -0.99322760250E+03  0.10170901343E+04  0.17593607207E+03 0.  0.
        -24    2    3    3    0    0 -0.88944494551E+02 -0.78497101033E+02 -0.67448930376E+03  0.68891187366E+03  0.74771858332E+02 0.  0.
          6    2    1    2  501    0  0.12988958868E+03  0.12102244499E+02  0.46463483071E+02  0.22064106178E+03  0.17177267918E+03 0.  0.
         24    2    5    5    0    0  0.59862479850E+02  0.68504942290E+02  0.46721809419E+02  0.13060097614E+03  0.81223419534E+02 0.  0.
          5    1    5    5  501    0  0.70027108831E+02 -0.56402697791E+02 -0.25832634759E+00  0.90040085638E+02  0.47000000000E+01 0. -1.
        -11    1    6    6    0    0  0.71995852088E+02  0.33856544064E+02  0.49637498915E+02  0.93773928106E+02  0.00000000000E+00 0.  1.
         12    1    6    6    0    0 -0.12133372238E+02  0.34648398226E+02 -0.29156894960E+01  0.36827048032E+02  0.00000000000E+00 0. -1.
         -5    1    3    3    0  503 -0.40945094130E+02  0.66394856534E+02 -0.31873829874E+03  0.32817826069E+03  0.47000000000E+01 0.  1.
         13    1    4    4    0    0 -0.18780722463E+02 -0.62494201136E+01 -0.31387652801E+03  0.31449999304E+03  0.00000000000E+00 0. -1.
        -14    1    4    4    0    0 -0.70163772088E+02 -0.72247680919E+02 -0.36061277575E+03  0.37441188061E+03  0.00000000000E+00 0.  1.
</event>
<event>
12    1  0.9735434E-002  0.2595664E+03  0.7818608E-02  0.1109909E+00
         21   -1    0    0  503  502  0.00000000000E+00  0.00000000000E+00  0.11979446503E+04  0.11979446503E+04  0.00000000000E+00 0. -1.
         21   -1    0    0  501  503 -0.00000000000E+00 -0.00000000000E+00 -0.62983167575E+02  0.62983167575E+02  0.00000000000E+00 0.  1.
          6    2    1    2  501    0 -0.12717088511E+03  0.11652179790E+03  0.83595150314E+03  0.87532258981E+03  0.19397153717E+03 0.  0.
         24    2    3    3    0    0 -0.98548594630E+02  0.12324325657E+02  0.27162926092E+03  0.30072879260E+03  0.82411387585E+02 0.  0.
         -6    2    1    2    0  502  0.12717088511E+03 -0.11652179790E+03  0.29900997961E+03  0.38560522809E+03  0.17185651171E+03 0.  0.
        -24    2    5    5    0    0  0.10049735471E+03 -0.14151181197E+03  0.29182352583E+03  0.34805908121E+03  0.76543076462E+02 0.  0.
          5    1    3    3  501    0 -0.28622290482E+02  0.10419747224E+03  0.56432224222E+03  0.57459379721E+03  0.47000000000E+01 0. -1.
        -11    1    4    4    0    0  0.31750219071E+00 -0.13462353158E+02  0.36796185798E+01  0.13959776255E+02  0.00000000000E+00 0.  1.
         12    1    4    4    0    0 -0.98866096821E+02  0.25786678815E+02  0.26794964234E+03  0.28676901634E+03  0.00000000000E+00 0. -1.
         -5    1    5    5    0  502  0.26673530401E+02  0.24990014076E+02  0.71864537856E+01  0.37546146881E+02  0.47000000000E+01 0.  1.
         11    1    6    6    0    0  0.47652550191E+02 -0.32361684458E+02  0.15431480488E+03  0.16471521838E+03  0.00000000000E+00 0. -1.
        -12    1    6    6    0    0  0.52844804520E+02 -0.10915012751E+03  0.13750872095E+03  0.18334386283E+03  0.00000000000E+00 0.  1.
</event>
<event>
12    1  0.8728348E-002  0.2927112E+03  0.7818608E-02  0.1089043E+00
         21   -1    0    0  503  502  0.00000000000E+00  0.00000000000E+00  0.10536179422E+03  0.10536179422E+03  0.00000000000E+00 0.  1.
         21   -1    0    0  501  503 -0.00000000000E+00 -0.00000000000E+00 -0.12585808336E+04  0.12585808336E+04  0.00000000000E+00 0.  1.
          6    2    1    2  501    0  0.41946249113E+02  0.23243212483E+03 -0.98279082893E+03  0.10252308797E+04  0.17157028506E+03 0.  0.
         24    2    3    3    0    0  0.23029721804E+02  0.51950878556E+02 -0.50428821996E+03  0.51345148182E+03  0.78080429851E+02 0.  0.
         -6    2    1    2    0  502 -0.41946249113E+02 -0.23243212483E+03 -0.17042821046E+03  0.33871174818E+03  0.17290371009E+03 0.  0.
        -24    2    5    5    0    0 -0.68312463831E+02 -0.23916356923E+03 -0.15696645594E+03  0.30799044519E+03  0.91399346161E+02 0.  0.
          5    1    3    3  501    0  0.18916527309E+02  0.18048124628E+03 -0.47850260898E+03  0.51177939785E+03  0.47000000000E+01 0. -1.
        -11    1    4    4    0    0  0.28809588505E+02  0.64921162616E+02 -0.28547687946E+03  0.29417987431E+03  0.00000000000E+00 0.  1.
         12    1    4    4    0    0 -0.57798667005E+01 -0.12970284061E+02 -0.21881134050E+03  0.21927160751E+03  0.00000000000E+00 0. -1.
         -5    1    5    5    0  502  0.26366214718E+02  0.67314443953E+01 -0.13461754524E+02  0.30721302984E+02  0.47000000000E+01 0.  1.
         13    1    6    6    0    0 -0.32480387373E+02 -0.68101948466E+02 -0.97695856314E+02  0.12343958559E+03  0.00000000000E+00 0. -1.
        -14    1    6    6    0    0 -0.35832076458E+02 -0.17106162076E+03 -0.59270599624E+02  0.18455085961E+03  0.00000000000E+00 0.  1.
</event>
<event>
12    1  0.8728348E-002  0.2322238E+03  0.7818608E-02  0.1125413E+00
         21   -1    0    0  503  502  0.00000000000E+00  0.00000000000E+00  0.24544823773E+03  0.24544823773E+03  0.00000000000E+00 0.  1.
         21   -1    0    0  501  503 -0.00000000000E+00 -0.00000000000E+00 -0.44331119719E+03  0.44331119719E+03  0.00000000000E+00 0.  1.
          6    2    1    2  501    0 -0.13694165572E+03 -0.76913082819E+02 -0.34428282155E+03  0.41422951190E+03  0.16848379131E+03 0.  0.
         24    2    3    3    0    0 -0.16656552574E+03 -0.55837649294E+02 -0.29699469911E+03  0.35439637645E+03  0.80802369399E+02 0.  0.
         -6    2    1    2    0  502  0.13694165572E+03  0.76913082819E+02  0.14641986209E+03  0.27452992302E+03  0.17105339295E+03 0.  0.
        -24    2    5    5    0    0  0.11891532684E+03  0.83644799823E+02  0.17205020527E+03  0.24213750048E+03  0.88836864601E+02 0.  0.
          5    1    3    3  501    0  0.29623870021E+02 -0.21075433525E+02 -0.47288122442E+02  0.59833135446E+02  0.47000000000E+01 0. -1.
        -11    1    4    4    0    0 -0.90664884707E+02 -0.31472908031E+02 -0.86080629706E+02  0.12892067355E+03  0.00000000000E+00 0.  1.
         12    1    4    4    0    0 -0.75900641032E+02 -0.24364741263E+02 -0.21091406940E+03  0.22547570290E+03  0.00000000000E+00 0. -1.
         -5    1    5    5    0  502  0.18026328874E+02 -0.67317170044E+01 -0.25630343175E+02  0.32392422537E+02  0.47000000000E+01 0.  1.
         13    1    6    6    0    0  0.68366554033E+01  0.53843437060E+02  0.50472339175E+02  0.74116884672E+02  0.00000000000E+00 0. -1.
        -14    1    6    6    0    0  0.11207867144E+03  0.29801362763E+02  0.12157786609E+03  0.16802061581E+03  0.00000000000E+00 0.  1.
</event>
<event>
12    1  0.8728348E-002  0.2518420E+03  0.7818608E-02  0.1112169E+00
         21   -1    0    0  501  502  0.00000000000E+00  0.00000000000E+00  0.87179594348E+03  0.87179594348E+03  0.00000000000E+00 0.  1.
         21   -1    0    0  502  503 -0.00000000000E+00 -0.00000000000E+00 -0.90531585741E+02  0.90531585741E+02  0.00000000000E+00 0. -1.
         -6    2    1    2    0  503  0.17906952626E+03 -0.38826593181E+02  0.60421601143E+03  0.65460016005E+03  0.17277436586E+03 0.  0.
        -24    2    3    3    0    0  0.81513465597E+02 -0.51735846840E+02  0.47567640859E+03  0.49264845953E+03  0.84341069910E+02 0.  0.
          6    2    1    2  501    0 -0.17906952626E+03  0.38826593181E+02  0.17704834632E+03  0.30772736918E+03  0.17255902536E+03 0.  0.
         24    2    5    5    0    0 -0.11209258619E+03 -0.44152572263E+02  0.11049735695E+03  0.18193954550E+03  0.79863225636E+02 0.  0.
          5    1    5    5  501    0 -0.66976940069E+02  0.82979165444E+02  0.66550989361E+02  0.12578782367E+03  0.47000000000E+01 0. -1.
        -11    1    6    6    0    0 -0.84266869542E+01 -0.29128227948E+02  0.56427291156E+02  0.64058581811E+02  0.00000000000E+00 0.  1.
         12    1    6    6    0    0 -0.10366589923E+03 -0.15024344316E+02  0.54070065797E+02  0.11788096369E+03  0.00000000000E+00 0. -1.
         -5    1    3    3    0  503  0.97556060659E+02  0.12909253659E+02  0.12853960284E+03  0.16195170052E+03  0.47000000000E+01 0.  1.
         11    1    4    4    0    0  0.12652190121E+02 -0.19734206741E+01  0.40494880129E+01  0.13430214339E+02  0.00000000000E+00 0. -1.
        -12    1    4    4    0    0  0.68861275476E+02 -0.49762426166E+02  0.47162692057E+03  0.47921824519E+03  0.00000000000E+00 0.  1.
</event>
<event>
12    1  0.8728348E-002  0.2232578E+03  0.7818608E-02  0.1131533E+00
         21   -1    0    0  503  502  0.00000000000E+00  0.00000000000E+00  0.49312880178E+02  0.49312880178E+02  0.00000000000E+00 0.  1.
         21   -1    0    0  501  503 -0.00000000000E+00 -0.00000000000E+00 -0.11220558581E+04  0.11220558581E+04  0.00000000000E+00 0. -1.
          6    2    1    2  501    0 -0.11131452212E+03  0.89087237877E+02 -0.35112142557E+03  0.41608928417E+03  0.17180389438E+03 0.  0.
         24    2    3    3    0    0 -0.79220617281E+02  0.34158853654E+02 -0.11893134324E+03  0.17529586555E+03  0.95609845665E+02 0.  0.
         -6    2    1    2    0  502  0.11131452212E+03 -0.89087237877E+02 -0.72162155238E+03  0.75527945413E+03  0.17141158125E+03 0.  0.
        -24    2    5    5    0    0  0.12937459087E+03 -0.11620554853E+03 -0.57414805490E+03  0.60417653783E+03  0.71706245525E+02 0.  0.
          5    1    3    3  501    0 -0.32093904837E+02  0.54928384223E+02 -0.23219008233E+03  0.24079341862E+03  0.47000000000E+01 0. -1.
        -13    1    4    4    0    0 -0.41066471417E+02 -0.13045654770E+02 -0.10431623521E+03  0.11286505709E+03  0.00000000000E+00 0.  1.
         14    1    4    4    0    0 -0.38154145864E+02  0.47204508423E+02 -0.14615108027E+02  0.62430808458E+02  0.00000000000E+00 0. -1.
         -5    1    5    5    0  502 -0.18060068751E+02  0.27118310651E+02 -0.14747349748E+03  0.15110291630E+03  0.47000000000E+01 0.  1.
         13    1    6    6    0    0  0.44921709390E+02 -0.22801630336E+02 -0.27547661591E+03  0.28004506822E+03  0.00000000000E+00 0. -1.
        -14    1    6    6    0    0  0.84452881480E+02 -0.93403918192E+02 -0.29867143899E+03  0.32413146961E+03  0.00000000000E+00 0.  1.
</event>
<event>
12    1  0.8728348E-002  0.1769748E+03  0.7818608E-02  0.1170865E+00
         21   -1    0    0  503  502  0.00000000000E+00  0.00000000000E+00  0.14661530725E+03  0.14661530725E+03  0.00000000000E+00 0.  1.
         21   -1    0    0  501  503 -0.00000000000E+00 -0.00000000000E+00 -0.23244575146E+03  0.23244575146E+03  0.00000000000E+00 0.  1.
          6    2    1    2  501    0 -0.27741061200E+02  0.28297286931E+02  0.11771002506E+02  0.17695682335E+03  0.17206062277E+03 0.  0.
         24    2    3    3    0    0  0.14514630887E+02  0.58626402426E+02 -0.39684824927E+02  0.10364112969E+03  0.74289089793E+02 0.  0.
         -6    2    1    2    0  502  0.27741061200E+02 -0.28297286931E+02 -0.97601446722E+02  0.20210423536E+03  0.17248123557E+03 0.  0.
        -24    2    5    5    0    0 -0.23244722669E+01 -0.80896933655E+01 -0.13102583219E+03  0.15259097769E+03  0.77752115479E+02 0.  0.
          5    1    3    3  501    0 -0.42255692087E+02 -0.30329115495E+02  0.51455827434E+02  0.73315693663E+02  0.47000000000E+01 0. -1.
        -13    1    4    4    0    0  0.27132524833E+02  0.18039266168E+02  0.13749272876E+02  0.35364269148E+02  0.00000000000E+00 0.  1.
         14    1    4    4    0    0 -0.12617893946E+02  0.40587136258E+02 -0.53434097803E+02  0.68276860541E+02  0.00000000000E+00 0. -1.
         -5    1    5    5    0  502  0.30065533467E+02 -0.20207593566E+02  0.33424385471E+02  0.49513257664E+02  0.47000000000E+01 0.  1.
         11    1    6    6    0    0  0.31961410173E+01  0.28225550856E+02 -0.17720074681E+02  0.33479816087E+02  0.00000000000E+00 0. -1.
        -12    1    6    6    0    0 -0.55206132842E+01 -0.36315244221E+02 -0.11330575751E+03  0.11911116161E+03  0.00000000000E+00 0.  1.
</event>
<event>
12    1  0.8728348E-002  0.1761538E+03  0.7818608E-02  0.1171675E+00
         21   -1    0    0  503  502  0.00000000000E+00  0.00000000000E+00  0.20195533469E+03  0.20195533469E+03  0.00000000000E+00 0.  1.
         21   -1    0    0  501  503 -0.00000000000E+00 -0.00000000000E+00 -0.15559870037E+03  0.15559870037E+03  0.00000000000E+00 0.  1.
          6    2    1    2  501    0 -0.12721174314E+01 -0.32570792520E+02  0.15235873813E+01  0.17616038482E+03  0.17311177040E+03 0.  0.
         24    2    3    3    0    0 -0.21292003362E+02 -0.36006951866E+02 -0.62201618459E+02  0.10911118733E+03  0.79286568046E+02 0.  0.
         -6    2    1    2    0  502  0.12721174314E+01  0.32570792520E+02  0.44833046946E+02  0.18139365025E+03  0.17271705024E+03 0.  0.
        -24    2    5    5    0    0  0.42115600472E+02 -0.34325423377E+02  0.16680754055E+02  0.97979410434E+02  0.79810768822E+02 0.  0.
          5    1    3    3  501    0  0.20019885930E+02  0.34361593454E+01  0.63725205840E+02  0.67049197483E+02  0.47000000000E+01 0. -1.
        -13    1    4    4    0    0 -0.10228416995E+02  0.18422128543E+02 -0.47029415106E+02  0.51534078235E+02  0.00000000000E+00 0.  1.
         14    1    4    4    0    0 -0.11063586367E+02 -0.54429080409E+02 -0.15172203353E+02  0.57577109098E+02  0.00000000000E+00 0. -1.
         -5    1    5    5    0  502 -0.40843483041E+02  0.66896215897E+02  0.28152292891E+02  0.83414239811E+02  0.47000000000E+01 0.  1.
         11    1    6    6    0    0 -0.24200835794E+01  0.15273519057E+02 -0.17261999088E+02  0.23175715769E+02  0.00000000000E+00 0. -1.
        -12    1    6    6    0    0  0.44535684052E+02 -0.49598942434E+02  0.33942753142E+02  0.74803694664E+02  0.00000000000E+00 0.  1.
</event>
<event>
12    1  0.8728348E-002  0.3442744E+03  0.7818608E-02  0.1065065E+00
         21   -1    0    0  501  502  0.00000000000E+00  0.00000000000E+00  0.71476316483E+03  0.71476316483E+03  0.00000000000E+00 0.  1.
         21   -1    0    0  502  503 -0.00000000000E+00 -0.00000000000E+00 -0.21749140901E+03  0.21749140901E+03  0.00000000000E+00 0. -1.
         -6    2    1    2    0  503 -0.51515383989E+02  0.29378798366E+03  0.20497461440E+02  0.34417416597E+03  0.17050072277E+03 0.  0.
        -24    2    3    3    0    0 -0.12627743302E+02  0.36322731689E+02  0.38497699980E+02  0.83124930846E+02  0.62840118444E+02 0.  0.
          6    2    1    2  501    0  0.51515383989E+02 -0.29378798366E+03  0.47677429438E+03  0.58808040788E+03  0.17192912555E+03 0.  0.
         24    2    5    5    0    0  0.56690027416E+02 -0.30658885335E+03  0.47426803682E+03  0.57328140364E+03  0.80690227460E+02 0.  0.
          5    1    5    5  501    0 -0.51746434275E+01  0.12800869686E+02  0.25062575604E+01  0.14799004233E+02  0.47000000000E+01 0. -1.
        -13    1    6    6    0    0  0.44944606612E+02 -0.16647978970E+03  0.19289624260E+03  0.25873634931E+03  0.00000000000E+00 0.  1.
         14    1    6    6    0    0  0.11745420805E+02 -0.14010906365E+03  0.28137179422E+03  0.31454505434E+03  0.00000000000E+00 0. -1.
         -5    1    3    3    0  503 -0.38887640687E+02  0.25746525197E+03 -0.18000238540E+02  0.26104923512E+03  0.47000000000E+01 0.  1.
         13    1    4    4    0    0  0.50237722382E+01  0.21323770799E+02 -0.13824420112E+02  0.25904750144E+02  0.00000000000E+00 0. -1.
        -14    1    4    4    0    0 -0.17651515541E+02  0.14998960889E+02  0.52322120091E+02  0.57220180701E+02  0.00000000000E+00 0.  1.
</event>
<event>
12    1  0.8728348E-002  0.1790977E+03  0.7818608E-02  0.1168952E+00
         21   -1    0    0  501  502  0.00000000000E+00  0.00000000000E+00  0.18388892850E+03  0.18388892850E+03  0.00000000000E+00 0.  1.
         21   -1    0    0  502  503 -0.00000000000E+00 -0.00000000000E+00 -0.17387142526E+03  0.17387142526E+03  0.00000000000E+00 0.  1.
         -6    2    1    2    0  503  0.38007220794E+02 -0.29690715993E+02 -0.48548777685E+01  0.17804624112E+03  0.17132077134E+03 0.  0.
        -24    2    3    3    0    0 -0.36244303060E+02 -0.35091948021E+02  0.21898130472E+02  0.98798051541E+02  0.82075773222E+02 0.  0.
          6    2    1    2  501    0 -0.38007220794E+02  0.29690715993E+02  0.14872381015E+02  0.17971411264E+03  0.17248155587E+03 0.  0.
         24    2    5    5    0    0 -0.55922623106E+02  0.15921859765E+02  0.69292357600E+02  0.12060263411E+03  0.79766654307E+02 0.  0.
          5    1    5    5  501    0  0.17915402312E+02  0.13768856228E+02 -0.54419976585E+02  0.59111478525E+02  0.47000000000E+01 0. -1.
        -13    1    6    6    0    0  0.95780633549E+01  0.11051434825E+02  0.50075970396E+02  0.52167770897E+02  0.00000000000E+00 0.  1.
         14    1    6    6    0    0 -0.65500686461E+02  0.48704249407E+01  0.19216387205E+02  0.68434863214E+02  0.00000000000E+00 0. -1.
         -5    1    3    3    0  503  0.74251523854E+02  0.54012320274E+01 -0.26753008240E+02  0.79248189582E+02  0.47000000000E+01 0.  1.
         11    1    4    4    0    0  0.15546021869E+02  0.91504232610E+00  0.31361228075E+02  0.35014892899E+02  0.00000000000E+00 0. -1.
        -12    1    4    4    0    0 -0.51790324929E+02 -0.36006990347E+02 -0.94630976030E+01  0.63783158642E+02  0.00000000000E+00 0.  1.
</event>
<event>
12    1  0.8728348E-002  0.2133746E+03  0.7818608E-02  0.1139005E+00
         21   -1    0    0  501  502  0.00000000000E+00  0.00000000000E+00  0.25351043058E+03  0.25351043058E+03  0.00000000000E+00 0.  1.
         21   -1    0    0  502  503 -0.00000000000E+00 -0.00000000000E+00 -0.31188568747E+03  0.31188568747E+03  0.00000000000E+00 0.  1.
         -6    2    1    2    0  503 -0.11609890333E+02  0.12565124397E+03 -0.21357365077E+03  0.30189806878E+03  0.17206311332E+03 0.  0.
        -24    2    3    3    0    0 -0.20552890070E+02  0.28926371862E+02 -0.24529454166E+02  0.89305791411E+02  0.78196380853E+02 0.  0.
          6    2    1    2  501    0  0.11609890333E+02 -0.12565124397E+03  0.15519839388E+03  0.26349804927E+03  0.17152742009E+03 0.  0.
         24    2    5    5    0    0  0.28075167002E+02 -0.11158323869E+03  0.18121744721E+03  0.22932064088E+03  0.80679359189E+02 0.  0.
          5    1    5    5  501    0 -0.16465276669E+02 -0.14068005275E+02 -0.26019053330E+02  0.34177408392E+02  0.47000000000E+01 0. -1.
        -11    1    6    6    0    0  0.47186103442E+02 -0.10533346859E+03  0.12759697745E+03  0.17205422581E+03  0.00000000000E+00 0.  1.
         12    1    6    6    0    0 -0.19110936441E+02 -0.62497701066E+01  0.53620469758E+02  0.57266415071E+02  0.00000000000E+00 0. -1.
         -5    1    3    3    0  503  0.89429997367E+01  0.96724872107E+02 -0.18904419660E+03  0.21259227737E+03  0.47000000000E+01 0.  1.
         13    1    4    4    0    0 -0.21050593146E+02 -0.23961843813E+02 -0.16166123248E+02  0.35758089596E+02  0.00000000000E+00 0. -1.
        -14    1    4    4    0    0  0.49770307624E+00  0.52888215675E+02 -0.83633309183E+01  0.53547701815E+02  0.00000000000E+00 0.  1.
</event>
<event>
12    1  0.8728348E-002  0.2200247E+03  0.7818608E-02  0.1134202E+00
         21   -1    0    0  503  502  0.00000000000E+00  0.00000000000E+00  0.11326472636E+04  0.11326472636E+04  0.00000000000E+00 0. -1.
         21   -1    0    0  501  503 -0.00000000000E+00 -0.00000000000E+00 -0.21611304246E+03  0.21611304246E+03  0.00000000000E+00 0. -1.
          6    2    1    2  501    0 -0.13178510133E+03 -0.21746699498E+02 -0.14673241463E+03  0.26296713628E+03  0.17257196003E+03 0.  0.
         24    2    3    3    0    0 -0.11328529563E+03 -0.15193295895E+02 -0.17829986446E+03  0.22550003340E+03  0.77427572299E+02 0.  0.
         -6    2    1    2    0  502  0.13178510133E+03  0.21746699498E+02  0.10632666358E+04  0.10857931698E+04  0.17484460789E+03 0.  0.
        -24    2    5    5    0    0  0.13105928349E+03 -0.28444806914E+02  0.93969368210E+03  0.95233126882E+03  0.76973934305E+02 0.  0.
          5    1    3    3  501    0 -0.18499805697E+02 -0.65534036037E+01  0.31567449824E+02  0.37467102877E+02  0.47000000000E+01 0. -1.
        -13    1    4    4    0    0 -0.96937169515E+01  0.20087079617E+02 -0.93059714169E+01  0.24167333736E+02  0.00000000000E+00 0.  1.
         14    1    4    4    0    0 -0.10359157868E+03 -0.35280375512E+02 -0.16899389304E+03  0.20133269967E+03  0.00000000000E+00 0. -1.
         -5    1    5    5    0  502  0.72581784257E+00  0.50191506412E+02  0.12357295370E+03  0.13346190098E+03  0.47000000000E+01 0.  1.
         13    1    6    6    0    0  0.94577927904E+02 -0.26989320226E+02  0.84723891490E+03  0.85292859419E+03  0.00000000000E+00 0. -1.
        -14    1    6    6    0    0  0.36481355585E+02 -0.14554866875E+01  0.92454767195E+02  0.99402674631E+02  0.00000000000E+00 0.  1.
</event>
<event>
12    1  0.8728348E-002  0.1923555E+03  0.7818608E-02  0.1160351E+00
         21   -1    0    0  501  502  0.00000000000E+00  0.00000000000E+00  0.25155637315E+02  0.25155637315E+02  0.00000000000E+00 0.  1.
         21   -1    0    0  502  503 -0.00000000000E+00 -0.00000000000E+00 -0.16181614926E+04  0.16181614926E+04  0.00000000000E+00 0.  1.
         -6    2    1    2    0  503 -0.10062609686E+02 -0.45750847960E+02 -0.42700510784E+03  0.46155641418E+03  0.16883887332E+03 0.  0.
        -24    2    3    3    0    0 -0.23768665001E+02 -0.40993289145E+02 -0.43487771341E+03  0.44439371519E+03  0.78241608432E+02 0.  0.
          6    2    1    2  501    0  0.10062609686E+02  0.45750847960E+02 -0.11660007475E+04  0.11817607157E+04  0.18656433209E+03 0.  0.
         24    2    5    5    0    0  0.62218692426E+02 -0.24062364742E+02 -0.56729788714E+03  0.57673067799E+03  0.79631771919E+02 0.  0.
          5    1    5    5  501    0 -0.52156082740E+02  0.69813212702E+02 -0.59870286031E+03  0.60503003775E+03  0.47000000000E+01 0. -1.
        -11    1    6    6    0    0  0.68582726439E+02 -0.53655256687E+01 -0.53073254926E+03  0.53517232558E+03  0.00000000000E+00 0.  1.
         12    1    6    6    0    0 -0.63640340133E+01 -0.18696839073E+02 -0.36565337886E+02  0.41558352409E+02  0.00000000000E+00 0. -1.
         -5    1    3    3    0  503  0.13706055315E+02 -0.47575588145E+01  0.78726055683E+01  0.17162698989E+02  0.47000000000E+01 0.  1.
         13    1    4    4    0    0  0.16268709700E+01 -0.43940230578E+02 -0.10928759992E+03  0.11780140096E+03  0.00000000000E+00 0. -1.
        -14    1    4    4    0    0 -0.25395535971E+02  0.29469414326E+01 -0.32559011349E+03  0.32659231423E+03  0.00000000000E+00 0.  1.
</event>
<event>
12    1  0.8728348E-002  0.2413116E+03  0.7818608E-02  0.1118947E+00
         21   -1    0    0  503  502  0.00000000000E+00  0.00000000000E+00  0.47937669434E+03  0.47937669434E+03  0.00000000000E+00 0. -1.
         21   -1    0    0  501  503 -0.00000000000E+00 -0.00000000000E+00 -0.25404759221E+03  0.25404759221E+03  0.00000000000E+00 0.  1.
          6    2    1    2  501    0  0.83242704271E+02 -0.14784178676E+03 -0.15230451676E+03  0.28535585212E+03  0.17159473998E+03 0.  0.
         24    2    3    3    0    0  0.10520304893E+03 -0.96885714518E+02 -0.16064733078E+03  0.22904892022E+03  0.78748458938E+02 0.  0.
         -6    2    1    2    0  502 -0.83242704271E+02  0.14784178676E+03  0.37763361890E+03  0.44806843442E+03  0.17138153366E+03 0.  0.
        -24    2    5    5    0    0 -0.10877998404E+03  0.14350529751E+03  0.25825531389E+03  0.32582184959E+03  0.83888111071E+02 0.  0.
          5    1    3    3  501    0 -0.21960344657E+02 -0.50956072238E+02  0.83428140116E+01  0.56306931909E+02  0.47000000000E+01 0. -1.
        -11    1    4    4    0    0  0.77727517131E+02 -0.74169547183E+02 -0.61741067384E+02  0.12391387352E+03  0.00000000000E+00 0.  1.
         12    1    4    4    0    0  0.27475531798E+02 -0.22716167335E+02 -0.98906263391E+02  0.10513504670E+03  0.00000000000E+00 0. -1.
         -5    1    5    5    0  502  0.25537279765E+02  0.43364892480E+01  0.11937830501E+03  0.12224658483E+03  0.47000000000E+01 0.  1.
         13    1    6    6    0    0 -0.63752626155E+01  0.48952964580E+02  0.11883064847E+03  0.12867695881E+03  0.00000000000E+00 0. -1.
        -14    1    6    6    0    0 -0.10240472142E+03  0.94552332928E+02  0.13942466542E+03  0.19714489078E+03  0.00000000000E+00 0.  1.
</event>
<event>
12    1  0.8728348E-002  0.1858797E+03  0.7818608E-02  0.1163327E+00
         21   -1    0    0  501  502  0.00000000000E+00  0.00000000000E+00  0.61549716479E+03  0.61549716479E+03  0.00000000000E+00 0.  1.
         21   -1    0    0  502  503 -0.00000000000E+00 -0.00000000000E+00 -0.83074179773E+02  0.83074179773E+02  0.00000000000E+00 0.  1.
         -6    2    1    2    0  503 -0.51825189926E+02  0.24939128823E+02  0.64451610584E+02  0.19673654528E+03  0.17675816158E+03 0.  0.
        -24    2    3    3    0    0 -0.37004926943E+02 -0.20004803741E+02  0.10243200245E+03  0.13587442705E+03  0.78740002602E+02 0.  0.
          6    2    1    2  501    0  0.51825189926E+02 -0.24939128823E+02  0.46797137443E+03  0.50183479928E+03  0.17185211091E+03 0.  0.
         24    2    5    5    0    0  0.72368898024E+02 -0.43483464368E+01  0.45745478306E+03  0.47055041091E+03  0.83046042339E+02 0.  0.
          5    1    5    5  501    0 -0.20543708097E+02 -0.20590782386E+02  0.10516591376E+02  0.31284388373E+02  0.47000000000E+01 0. -1.
        -11    1    6    6    0    0  0.74183912643E+02 -0.31685706072E+02  0.37778540857E+03  0.38630176261E+03  0.00000000000E+00 0.  1.
         12    1    6    6    0    0 -0.18150146189E+01  0.27337359635E+02  0.79669374484E+02  0.84248648301E+02  0.00000000000E+00 0. -1.
         -5    1    3    3    0  503 -0.14820262984E+02  0.44943932564E+02 -0.37980391865E+02  0.60862118230E+02  0.47000000000E+01 0.  1.
         11    1    4    4    0    0 -0.40564345513E+02 -0.32370367061E+02  0.25408001313E+02  0.57782984704E+02  0.00000000000E+00 0. -1.
        -12    1    4    4    0    0  0.35594185704E+01  0.12365563320E+02  0.77024001136E+02  0.78091442347E+02  0.00000000000E+00 0.  1.
</event>
<event>
12    1  0.8728348E-002  0.2122105E+03  0.7818608E-02  0.1140054E+00
         21   -1    0    0  503  502  0.00000000000E+00  0.00000000000E+00  0.52409901870E+02  0.52409901870E+02  0.00000000000E+00 0. -1.
         21   -1    0    0  501  503 -0.00000000000E+00 -0.00000000000E+00 -0.10189041380E+04  0.10189041380E+04  0.00000000000E+00 0.  1.
          6    2    1    2  501    0 -0.12372900973E+03  0.90639502402E+01 -0.69725640661E+03  0.72849874783E+03  0.17074222086E+03 0.  0.
         24    2    3    3    0    0 -0.15672939726E+03  0.65978830924E+01 -0.56368447706E+03  0.59080830725E+03  0.81894018104E+02 0.  0.
         -6    2    1    2    0  502  0.12372900973E+03 -0.90639502402E+01 -0.26923782952E+03  0.34281529205E+03  0.17216937176E+03 0.  0.
        -24    2    5    5    0    0  0.11978447158E+03 -0.48889213366E+02 -0.13660673708E+03  0.20419816595E+03  0.79353736822E+02 0.  0.
          5    1    3    3  501    0  0.33000387531E+02  0.24660671477E+01 -0.13357192955E+03  0.13769044058E+03  0.47000000000E+01 0. -1.
        -11    1    4    4    0    0 -0.16512146023E+02 -0.27923082974E+02 -0.95413290610E+02  0.10077720751E+03  0.00000000000E+00 0.  1.
         12    1    4    4    0    0 -0.14021725124E+03  0.34520966066E+02 -0.46827118645E+03  0.49003109973E+03  0.00000000000E+00 0. -1.
         -5    1    5    5    0  502  0.39445381499E+01  0.39825263125E+02 -0.13263109244E+03  0.13861712610E+03  0.47000000000E+01 0.  1.
         13    1    6    6    0    0  0.79948595576E+01 -0.37870235865E+02 -0.44125035964E+02  0.58694900482E+02  0.00000000000E+00 0. -1.
        -14    1    6    6    0    0  0.11178961202E+03 -0.11018977501E+02 -0.92481701116E+02  0.14550326547E+03  0.00000000000E+00 0.  1.
</event>
<event>
12    1  0.8728348E-002  0.2260876E+03  0.7818608E-02  0.1129475E+00
         21   -1    0    0  503  502  0.00000000000E+00  0.00000000000E+00  0.26906293135E+03  0.26906293135E+03  0.00000000000E+00 0.  1.
         21   -1    0    0  501  503 -0.00000000000E+00 -0.00000000000E+00 -0.29588221476E+03  0.29588221476E+03  0.00000000000E+00 0.  1.
          6    2    1    2  501    0 -0.11270981258E+03 -0.92639168728E+02  0.15578054680E+03  0.27432803907E+03  0.17234493559E+03 0.  0.
         24    2    3    3    0    0 -0.93414226429E+02 -0.12874357870E+02  0.31696574536E+02  0.12548695983E+03  0.76487498721E+02 0.  0.
         -6    2    1    2    0  502  0.11270981258E+03  0.92639168728E+02 -0.18259983021E+03  0.29061710704E+03  0.17271388906E+03 0.  0.
        -24    2    5    5    0    0  0.14102764801E+03  0.55443769838E+02 -0.17226511105E+03  0.24250999819E+03  0.78568579070E+02 0.  0.
          5    1    3    3  501    0 -0.19295586156E+02 -0.79764810858E+02  0.12408397227E+03  0.14884107924E+03  0.47000000000E+01 0. -1.
        -11    1    4    4    0    0 -0.91086126811E+02 -0.30406691836E+02  0.42228589841E+02  0.10490235081E+03  0.00000000000E+00 0.  1.
         12    1    4    4    0    0 -0.23280996173E+01  0.17532333966E+02 -0.10532015305E+02  0.20584609020E+02  0.00000000000E+00 0. -1.
         -5    1    5    5    0  502 -0.28317835428E+02  0.37195398890E+02 -0.10334719161E+02  0.48107108851E+02  0.47000000000E+01 0.  1.
         11    1    6    6    0    0  0.77365747216E+02  0.47643332904E+02 -0.48213228536E+02  0.10285845332E+03  0.00000000000E+00 0. -1.
        -12    1    6    6    0    0  0.63661900797E+02  0.78004369339E+01 -0.12405188251E+03  0.13965154487E+03  0.00000000000E+00 0.  1.
</event>
<event>
12    1  0.8728348E-002  0.2084026E+03  0.7818608E-02  0.1142909E+00
         21   -1    0    0  501  502  0.00000000000E+00  0.00000000000E+00  0.76370137354E+02  0.76370137354E+02  0.00000000000E+00 0. -1.
         21   -1    0    0  502  503 -0.00000000000E+00 -0.00000000000E+00 -0.15842584188E+04  0.15842584188E+04  0.00000000000E+00 0. -1.
         -6    2    1    2    0  503  0.11267822730E+03  0.33306974107E+02 -0.14188176504E+04  0.14339895606E+04  0.17168808173E+03 0.  0.
        -24    2    3    3    0    0  0.58499659207E+02 -0.36506188339E+02 -0.50205599905E+03  0.51296664543E+03  0.79496171152E+02 0.  0.
          6    2    1    2  501    0 -0.11267822730E+03 -0.33306974107E+02 -0.89070631051E+02  0.22663899555E+03  0.17212181605E+03 0.  0.
         24    2    5    5    0    0 -0.69888638958E+01 -0.11495670478E+02  0.66314876538E+01  0.82323507727E+02  0.80945590601E+02 0.  0.
          5    1    5    5  501    0 -0.10568936340E+03 -0.21811303629E+02 -0.95702118704E+02  0.14431548783E+03  0.47000000000E+01 0. -1.
        -11    1    6    6    0    0  0.91988109303E+01 -0.36733763143E+02 -0.19461477241E+02  0.42576244240E+02  0.00000000000E+00 0.  1.
         12    1    6    6    0    0 -0.16187674826E+02  0.25238092666E+02  0.26092964895E+02  0.39747263487E+02  0.00000000000E+00 0. -1.
         -5    1    3    3    0  503  0.54178568089E+02  0.69813162446E+02 -0.91676165133E+03  0.92102291516E+03  0.47000000000E+01 0.  1.
         11    1    4    4    0    0  0.41815767135E+02 -0.13618039018E+02 -0.46097546903E+03  0.46306845327E+03  0.00000000000E+00 0. -1.
        -12    1    4    4    0    0  0.16683892071E+02 -0.22888149321E+02 -0.41080530018E+02  0.49898192157E+02  0.00000000000E+00 0.  1.
</event>
<event>
12    1  0.8728348E-002  0.3156046E+03  0.7818608E-02  0.1077716E+00
         21   -1    0    0  501  502  0.00000000000E+00  0.00000000000E+00  0.84063439048E+02  0.84063439048E+02  0.00000000000E+00 0. -1.
         21   -1    0    0  502  503 -0.00000000000E+00 -0.00000000000E+00 -0.14788621297E+04  0.14788621297E+04  0.00000000000E+00 0.  1.
         -6    2    1    2    0  503 -0.23208334507E+03  0.12695702644E+03 -0.10464936492E+04  0.10930485865E+04  0.17212056565E+03 0.  0.
        -24    2    3    3    0    0 -0.25130722098E+03  0.12761610213E+03 -0.94123020996E+03  0.98593895381E+03  0.81976360330E+02 0.  0.
          6    2    1    2  501    0  0.23208334507E+03 -0.12695702644E+03 -0.34830504145E+03  0.46987698220E+03  0.17171840577E+03 0.  0.
         24    2    5    5    0    0  0.24462942464E+03 -0.88481753329E+02 -0.27860785238E+03  0.38914570623E+03  0.78354765039E+02 0.  0.
          5    1    5    5  501    0 -0.12546079573E+02 -0.38475273110E+02 -0.69697189078E+02  0.80731275965E+02  0.47000000000E+01 0. -1.
        -11    1    6    6    0    0  0.15656630219E+03 -0.94798723831E+02 -0.19726308595E+03  0.26909576381E+03  0.00000000000E+00 0.  1.
         12    1    6    6    0    0  0.88063122446E+02  0.63169705012E+01 -0.81344766425E+02  0.12004994242E+03  0.00000000000E+00 0. -1.
         -5    1    3    3    0  503  0.19223875913E+02 -0.65907568985E+00 -0.10526343919E+03  0.10710963270E+03  0.47000000000E+01 0.  1.
         11    1    4    4    0    0 -0.20501049039E+03  0.88855388163E+02 -0.61880946860E+03  0.65791317026E+03  0.00000000000E+00 0. -1.
        -12    1    4    4    0    0 -0.46296730587E+02  0.38760713967E+02 -0.32242074136E+03  0.32802578355E+03  0.00000000000E+00 0.  1.
</event>
<event>
12    1  0.8728348E-002  0.1715046E+03  0.7818608E-02  0.1176343E+00
         21   -1    0    0  501  502  0.00000000000E+00  0.00000000000E+00  0.67469582460E+02  0.67469582460E+02  0.00000000000E+00 0.  1.
         21   -1    0    0  502  503 -0.00000000000E+00 -0.00000000000E+00 -0.51927951318E+03  0.51927951318E+03  0.00000000000E+00 0.  1.
         -6    2    1    2    0  503  0.21794580371E+01 -0.95567541260E+01 -0.34368876287E+03  0.38400781542E+03  0.17100864011E+03 0.  0.
        -24    2    3    3    0    0  0.27273262168E+02  0.50137925994E+02 -0.26384076509E+03  0.28109549065E+03  0.78390580349E+02 0.  0.
          6    2    1    2  501    0 -0.21794580371E+01  0.95567541260E+01 -0.10812116784E+03  0.20274128021E+03  0.17122429203E+03 0.  0.
         24    2    5    5    0    0 -0.12058997904E+02  0.17059890467E+02 -0.14382416928E+03  0.16465326800E+03  0.77387645666E+02 0.  0.
          5    1    5    5  501    0  0.98795398672E+01 -0.75031363407E+01  0.35703001435E+02  0.38088012213E+02  0.47000000000E+01 0. -1.
        -13    1    6    6    0    0 -0.63317639191E+01  0.66461238025E+01  0.81136927509E+01  0.12251294053E+02  0.00000000000E+00 0.  1.
         14    1    6    6    0    0 -0.57272339852E+01  0.10413766664E+02 -0.15193786203E+03  0.15240197395E+03  0.00000000000E+00 0. -1.
         -5    1    3    3    0  503 -0.25093804131E+02 -0.59694680120E+02 -0.79847997782E+02  0.10291232477E+03  0.47000000000E+01 0.  1.
         11    1    4    4    0    0  0.50223993132E+01  0.13652880903E+02 -0.76083776179E+00  0.14567241534E+02  0.00000000000E+00 0. -1.
        -12    1    4    4    0    0  0.22250862855E+02  0.36485045091E+02 -0.26307992733E+03  0.26652824912E+03  0.00000000000E+00 0.  1.
</event>
<event>
12    1  0.8728348E-002  0.2387488E+03  0.7818608E-02  0.1120765E+00
         21   -1    0    0  501  502  0.00000000000E+00  0.00000000000E+00  0.45153619521E+03  0.45153619521E+03  0.00000000000E+00 0.  1.
         21   -1    0    0  502  503 -0.00000000000E+00 -0.00000000000E+00 -0.46566910026E+03  0.46566910026E+03  0.00000000000E+00 0. -1.
         -6    2    1    2    0  503  0.50335281651E+02 -0.16056864054E+03 -0.39885433277E+03  0.46485025857E+03  0.16936662957E+03 0.  0.
        -24    2    3    3    0    0  0.64137302539E+02 -0.17772494948E+03 -0.30012791551E+03  0.36358906076E+03  0.80127948849E+02 0.  0.
          6    2    1    2  501    0 -0.50335281651E+02  0.16056864054E+03  0.38472142773E+03  0.45235503690E+03  0.16822179869E+03 0.  0.
         24    2    5    5    0    0 -0.16181184669E+02  0.15342031622E+03  0.37868254557E+03  0.41663166949E+03  0.79886504132E+02 0.  0.
          5    1    5    5  501    0 -0.34154096982E+02  0.71483243262E+01  0.60388821574E+01  0.35723367409E+02  0.47000000000E+01 0. -1.
        -13    1    6    6    0    0 -0.26353055817E+02  0.15860812523E+03  0.36477335021E+03  0.39863594666E+03  0.00000000000E+00 0.  1.
         14    1    6    6    0    0  0.10171871148E+02 -0.51878090172E+01  0.13909195357E+02  0.17995722840E+02  0.00000000000E+00 0. -1.
         -5    1    3    3    0  503 -0.13802020888E+02  0.17156308937E+02 -0.98726417262E+02  0.10126119781E+03  0.47000000000E+01 0.  1.
         13    1    4    4    0    0 -0.23795757480E+01 -0.59437416215E+02 -0.44910146046E+02  0.74534488963E+02  0.00000000000E+00 0. -1.
        -14    1    4    4    0    0  0.66516878287E+02 -0.11828753326E+03 -0.25521776947E+03  0.28905457179E+03  0.00000000000E+00 0.  1.
</event>
<event>
12    1  0.8728348E-002  0.1797989E+03  0.7818608E-02  0.1168429E+00
         21   -1    0    0  501  502  0.00000000000E+00  0.00000000000E+00  0.81606984977E+03  0.81606984977E+03  0.00000000000E+00 0.  1.
         21   -1    0    0  502  503 -0.00000000000E+00 -0.00000000000E+00 -0.39252491862E+02  0.39252491862E+02  0.00000000000E+00 0.  1.
         -6    2    1    2    0  503 -0.69102750877E+01 -0.43616135260E+02  0.37520541728E+03  0.41529985280E+03  0.17246664438E+03 0.  0.
        -24    2    3    3    0    0  0.25076209671E+01  0.38643941338E+02  0.15363772457E+03  0.17872058613E+03  0.82685277580E+02 0.  0.
          6    2    1    2  501    0  0.69102750877E+01  0.43616135260E+02  0.40161194063E+03  0.44002248883E+03  0.17429148191E+03 0.  0.
         24    2    5    5    0    0  0.10291214229E+02  0.49857168830E+02  0.41410368841E+03  0.42490577583E+03  0.80445057051E+02 0.  0.
          5    1    5    5  501    0 -0.33809391411E+01 -0.62410335700E+01 -0.12491747780E+02  0.15116713006E+02  0.47000000000E+01 0. -1.
        -11    1    6    6    0    0 -0.96182182693E+00  0.69244058891E+02  0.25520921801E+03  0.26443791285E+03  0.00000000000E+00 0.  1.
         12    1    6    6    0    0  0.11253036056E+02 -0.19386890061E+02  0.15889447040E+03  0.16046786298E+03  0.00000000000E+00 0. -1.
         -5    1    3    3    0  503 -0.94178960548E+01 -0.82260076598E+02  0.22156769271E+03  0.23657926667E+03  0.47000000000E+01 0.  1.
         11    1    4    4    0    0  0.10755869974E+02 -0.57402642596E+01  0.12426577624E+03  0.12486241435E+03  0.00000000000E+00 0. -1.
        -12    1    4    4    0    0 -0.82482490066E+01  0.44384205598E+02  0.29371948332E+02  0.53858171776E+02  0.00000000000E+00 0.  1.
</event>
<event>
12    1  0.8728348E-002  0.1782912E+03  0.7818608E-02  0.1169798E+00
         21   -1    0    0  501  502  0.00000000000E+00  0.00000000000E+00  0.14936492080E+03  0.14936492080E+03  0.00000000000E+00 0.  1.
         21   -1    0    0  502  503 -0.00000000000E+00 -0.00000000000E+00 -0.24951400109E+03  0.24951400109E+03  0.00000000000E+00 0.  1.
         -6    2    1    2    0  503 -0.40533960481E+02 -0.25324113609E+02 -0.12837096964E+03  0.21969720147E+03  0.17176565956E+03 0.  0.
        -24    2    3    3    0    0 -0.51436854822E+02  0.41968326724E+02 -0.10282268121E+03  0.14674550051E+03  0.80960778563E+02 0.  0.
          6    2    1    2  501    0  0.40533960481E+02  0.25324113609E+02  0.28221889346E+02  0.17918172042E+03  0.17036813438E+03 0.  0.
         24    2    5    5    0    0  0.17333433077E+02  0.40057311866E+02 -0.46096318703E+02  0.99805290356E+02  0.77014214590E+02 0.  0.
          5    1    5    5  501    0  0.23200527404E+02 -0.14733198257E+02  0.74318208049E+02  0.79376430068E+02  0.47000000000E+01 0. -1.
        -11    1    6    6    0    0 -0.12989629938E+02  0.50701993041E+02 -0.42588165102E+02  0.67477213865E+02  0.00000000000E+00 0.  1.
         12    1    6    6    0    0  0.30323063015E+02 -0.10644681175E+02 -0.35081536014E+01  0.32328076491E+02  0.00000000000E+00 0. -1.
         -5    1    3    3    0  503  0.10902894341E+02 -0.67292440333E+02 -0.25548288426E+02  0.72951700957E+02  0.47000000000E+01 0.  1.
         11    1    4    4    0    0 -0.67416153186E+02  0.21470125322E+02 -0.46360251409E+02  0.84588278753E+02  0.00000000000E+00 0. -1.
        -12    1    4    4    0    0  0.15979298363E+02  0.20498201403E+02 -0.56462429806E+02  0.62157221757E+02  0.00000000000E+00 0.  1.
</event>
<event>
12    1  0.8728348E-002  0.2046098E+03  0.7818608E-02  0.1148788E+00
         21   -1    0    0  503  502  0.00000000000E+00  0.00000000000E+00  0.23776869677E+02  0.23776869677E+02  0.00000000000E+00 0.  1.
         21   -1    0    0  501  503 -0.00000000000E+00 -0.00000000000E+00 -0.16751156239E+04  0.16751156239E+04  0.00000000000E+00 0.  1.
          6    2    1    2  501    0 -0.66278043743E+02  0.31204572708E+02 -0.90985999469E+03  0.92970076592E+03  0.17644205784E+03 0.  0.
         24    2    3    3    0    0  0.70846120557E+01  0.69143538644E+02 -0.54596014110E+03  0.55651631040E+03  0.82503984159E+02 0.  0.
         -6    2    1    2    0  502  0.66278043743E+02 -0.31204572708E+02 -0.74147875957E+03  0.76919172769E+03  0.19104622116E+03 0.  0.
        -24    2    5    5    0    0 -0.40121305938E+02 -0.19683792429E+02 -0.43805823029E+03  0.44741593995E+03  0.79302202502E+02 0.  0.
          5    1    3    3  501    0 -0.73362655798E+02 -0.37938965936E+02 -0.36389985359E+03  0.37318445553E+03  0.47000000000E+01 0. -1.
        -13    1    4    4    0    0 -0.29479626915E+02  0.63984333754E+02 -0.38294396885E+03  0.38937016661E+03  0.00000000000E+00 0.  1.
         14    1    4    4    0    0  0.36564238971E+02  0.51592048904E+01 -0.16301617226E+03  0.16714614379E+03  0.00000000000E+00 0. -1.
         -5    1    5    5    0  502  0.10639934968E+03 -0.11520780279E+02 -0.30342052928E+03  0.32177578774E+03  0.47000000000E+01 0.  1.
         13    1    6    6    0    0  0.18459294244E+02  0.65677471169E+01 -0.19647025129E+03  0.19744477832E+03  0.00000000000E+00 0. -1.
        -14    1    6    6    0    0 -0.58580600182E+02 -0.26251539546E+02 -0.24158797900E+03  0.24997116163E+03  0.00000000000E+00 0.  1.
</event>
<event>
12    1  0.8728348E-002  0.1883500E+03  0.7818608E-02  0.1160170E+00
         21   -1    0    0  503  502  0.00000000000E+00  0.00000000000E+00  0.54572826891E+03  0.54572826891E+03  0.00000000000E+00 0. -1.
         21   -1    0    0  501  503 -0.00000000000E+00 -0.00000000000E+00 -0.77935826185E+02  0.77935826185E+02  0.00000000000E+00 0. -1.
          6    2    1    2  501    0 -0.63972652978E+02  0.38360428306E+02  0.10580171379E+03  0.21603179585E+03  0.17295002569E+03 0.  0.
         24    2    3    3    0    0  0.49871485498E+01  0.71891548384E+02  0.39816650298E+02  0.11476033469E+03  0.79945621504E+02 0.  0.
         -6    2    1    2    0  502  0.63972652978E+02 -0.38360428306E+02  0.36199072894E+03  0.40763229925E+03  0.17193830512E+03 0.  0.
        -24    2    5    5    0    0  0.17655633236E+02  0.22485686225E+02  0.82817638229E+02  0.11813753152E+03  0.79248897032E+02 0.  0.
          5    1    3    3  501    0 -0.68959801528E+02 -0.33531120079E+02  0.65985063491E+02  0.10127146115E+03  0.47000000000E+01 0. -1.
        -13    1    4    4    0    0  0.10778602182E+01 -0.12765679904E+02  0.25876316600E+02  0.28874004344E+02  0.00000000000E+00 0.  1.
         14    1    4    4    0    0  0.39092883316E+01  0.84657228288E+02  0.13940333697E+02  0.85886330346E+02  0.00000000000E+00 0. -1.
         -5    1    5    5    0  502  0.46317019742E+02 -0.60846114530E+02  0.27917309071E+03  0.28949476774E+03  0.47000000000E+01 0.  1.
         11    1    6    6    0    0  0.24332399520E+02 -0.25820762989E+02  0.35370646040E+02  0.50098503661E+02  0.00000000000E+00 0. -1.
        -12    1    6    6    0    0 -0.66767662841E+01  0.48306449214E+02  0.47446992189E+02  0.68039027855E+02  0.00000000000E+00 0.  1.
</event>
<event>
12    1  0.8728348E-002  0.1964569E+03  0.7818608E-02  0.1153331E+00
         21   -1    0    0  501  502  0.00000000000E+00  0.00000000000E+00  0.47246416916E+02  0.47246416916E+02  0.00000000000E+00 0.  1.
         21   -1    0    0  502  503 -0.00000000000E+00 -0.00000000000E+00 -0.10193236601E+04  0.10193236601E+04  0.00000000000E+00 0.  1.
         -6    2    1    2    0  503 -0.13479259447E+02  0.88570893470E+02 -0.72738125351E+03  0.75276846874E+03  0.17190225702E+03 0.  0.
        -24    2    3    3    0    0 -0.32805985709E+02 -0.62798317340E+01 -0.34259087330E+03  0.35596132525E+03  0.90687869225E+02 0.  0.
          6    2    1    2  501    0  0.13479259447E+02 -0.88570893470E+02 -0.24469598967E+03  0.31380160827E+03  0.17483943602E+03 0.  0.
         24    2    5    5    0    0  0.16834591562E+02  0.18870502719E+02 -0.14058387060E+03  0.16408075065E+03  0.80741369294E+02 0.  0.
          5    1    5    5  501    0 -0.33553321150E+01 -0.10744139619E+03 -0.10411211907E+03  0.14972085762E+03  0.47000000000E+01 0. -1.
        -11    1    6    6    0    0 -0.15038423943E+02 -0.19695449649E+02 -0.15169191029E+02  0.29054591514E+02  0.00000000000E+00 0.  1.
         12    1    6    6    0    0  0.31873015506E+02  0.38565952368E+02 -0.12541467957E+03  0.13502615914E+03  0.00000000000E+00 0. -1.
         -5    1    3    3    0  503  0.19326726261E+02  0.94850725204E+02 -0.38479038021E+03  0.39680714348E+03  0.47000000000E+01 0.  1.
         13    1    4    4    0    0 -0.45635538084E+02 -0.14505866731E+02 -0.82244165209E+02  0.95168929891E+02  0.00000000000E+00 0. -1.
        -14    1    4    4    0    0  0.12829552375E+02  0.82260349970E+01 -0.26034670809E+03  0.26079239536E+03  0.00000000000E+00 0.  1.
</event>
<event>
12    1  0.8728348E-002  0.2086839E+03  0.7818608E-02  0.1142997E+00
         21   -1    0    0  501  502  0.00000000000E+00  0.00000000000E+00  0.64756210060E+03  0.64756210060E+03  0.00000000000E+00 0. -1.
         21   -1    0    0  502  503 -0.00000000000E+00 -0.00000000000E+00 -0.11446360619E+03  0.11446360619E+03  0.00000000000E+00 0. -1.
         -6    2    1    2    0  503  0.51998849186E+02  0.10711991600E+03  0.19538545050E+02  0.20768573599E+03  0.16903565740E+03 0.  0.
        -24    2    3    3    0    0  0.52079152532E+02 -0.32878282364E+01 -0.24366586384E+01  0.95014195605E+02  0.79364426025E+02 0.  0.
          6    2    1    2  501    0 -0.51998849186E+02 -0.10711991600E+03  0.51355994936E+03  0.55433997080E+03  0.17137801760E+03 0.  0.
         24    2    5    5    0    0 -0.46763383253E+02 -0.10457868434E+03  0.22180072573E+03  0.26248486542E+03  0.81112436830E+02 0.  0.
          5    1    5    5  501    0 -0.52354659328E+01 -0.25412316655E+01  0.29175922363E+03  0.29185510538E+03  0.47000000000E+01 0. -1.
        -11    1    6    6    0    0 -0.31634055666E+01 -0.53827676279E+02  0.16857525757E+03  0.17698882262E+03  0.00000000000E+00 0.  1.
         12    1    6    6    0    0 -0.43599977686E+02 -0.50751008058E+02  0.53225468162E+02  0.85496042799E+02  0.00000000000E+00 0. -1.
         -5    1    3    3    0  503 -0.80303345977E-01  0.11040774424E+03  0.21975203688E+02  0.11267154039E+03  0.47000000000E+01 0.  1.
         13    1    4    4    0    0  0.47104884707E+02  0.33272743504E+02  0.28425936247E+01  0.57741024948E+02  0.00000000000E+00 0. -1.
        -14    1    4    4    0    0  0.49742678245E+01 -0.36560571740E+02 -0.52792522631E+01  0.37273170657E+02  0.00000000000E+00 0.  1.
</event>
<event>
12    1  0.8728348E-002  0.1730788E+03  0.7818608E-02  0.1175026E+00
         21   -1    0    0  503  502  0.00000000000E+00  0.00000000000E+00  0.22486779095E+02  0.22486779095E+02  0.00000000000E+00 0.  1.
         21   -1    0    0  501  503 -0.00000000000E+00 -0.00000000000E+00 -0.13334551775E+04  0.13334551775E+04  0.00000000000E+00 0.  1.
          6    2    1    2  501    0 -0.11678096907E+02 -0.57295835630E+01 -0.58898819509E+03  0.61350563150E+03  0.17120998759E+03 0.  0.
         24    2    3    3    0    0  0.65277323831E+01 -0.61557795825E+02 -0.47332649036E+03  0.48370593410E+03  0.78112039334E+02 0.  0.
         -6    2    1    2    0  502  0.11678096907E+02  0.57295835630E+01 -0.72198020333E+03  0.74243632511E+03  0.17258932982E+03 0.  0.
        -24    2    5    5    0    0 -0.46831311205E+01  0.17278719084E+01 -0.15241817450E+03  0.17260591335E+03  0.80849144386E+02 0.  0.
          5    1    3    3  501    0 -0.18205829290E+02  0.55828212262E+02 -0.11566170474E+03  0.12979969741E+03  0.47000000000E+01 0. -1.
        -11    1    4    4    0    0  0.12266169348E+02  0.81662272672E+01 -0.19101694169E+02  0.24125109292E+02  0.00000000000E+00 0.  1.
         12    1    4    4    0    0 -0.57384369645E+01 -0.69724023092E+02 -0.45422479619E+03  0.45958082480E+03  0.00000000000E+00 0. -1.
         -5    1    5    5    0  502  0.16361228028E+02  0.40017116546E+01 -0.56956202884E+03  0.56983041176E+03  0.47000000000E+01 0.  1.
         11    1    6    6    0    0  0.34329568364E+02 -0.59946143573E+01 -0.10546546284E+03  0.11107393266E+03  0.00000000000E+00 0. -1.
        -12    1    6    6    0    0 -0.39012699485E+02  0.77224862658E+01 -0.46952711657E+02  0.61531980686E+02  0.00000000000E+00 0.  1.
</event>
<event>
12    1  0.8728348E-002  0.1732991E+03  0.7818608E-02  0.1174872E+00
         21   -1    0    0  501  502  0.00000000000E+00  0.00000000000E+00  0.49706184176E+03  0.49706184176E+03  0.00000000000E+00 0.  1.
         21   -1    0    0  502  503 -0.00000000000E+00 -0.00000000000E+00 -0.11305124207E+03  0.11305124207E+03  0.00000000000E+00 0.  1.
         -6    2    1    2    0  503 -0.18902108404E+02 -0.12218371228E+01 -0.17753589994E+02  0.17256647808E+03  0.17060251115E+03 0.  0.
        -24    2    3    3    0    0 -0.53762094038E+02  0.49198309400E+02 -0.13763056395E+01  0.10894482126E+03  0.80970633312E+02 0.  0.
          6    2    1    2  501    0  0.18902108404E+02  0.12218371228E+01  0.40176418969E+03  0.43754660575E+03  0.17226080663E+03 0.  0.
         24    2    5    5    0    0 -0.46685363376E+02  0.34733391022E+02  0.20693077071E+03  0.22920339888E+03  0.79548240619E+02 0.  0.
          5    1    5    5  501    0  0.65587471779E+02 -0.33511553899E+02  0.19483341898E+03  0.20834320687E+03  0.47000000000E+01 0. -1.
        -13    1    6    6    0    0 -0.51111017681E+02 -0.74396464830E+01  0.14682664599E+03  0.15564622848E+03  0.00000000000E+00 0.  1.
         14    1    6    6    0    0  0.44256543052E+01  0.42173037505E+02  0.60104124725E+02  0.73557170401E+02  0.00000000000E+00 0. -1.
         -5    1    3    3    0  503  0.34859985635E+02 -0.50420146523E+02 -0.16377284355E+02  0.63621656821E+02  0.47000000000E+01 0.  1.
         11    1    4    4    0    0  0.13900746201E+02 -0.10097872284E+02  0.70738254030E+01  0.18580548308E+02  0.00000000000E+00 0. -1.
        -12    1    4    4    0    0 -0.67662840239E+02  0.59296181684E+02 -0.84501310426E+01  0.90364272952E+02  0.00000000000E+00 0.  1.
</event>
<event>
12    1  0.8728348E-002  0.1960367E+03  0.7818608E-02  0.1153427E+00
         21   -1    0    0  501  502  0.00000000000E+00  0.00000000000E+00  0.22920730657E+04  0.22920730657E+04  0.00000000000E+00 0.  1.
         21   -1    0    0  502  503 -0.00000000000E+00 -0.00000000000E+00 -0.38549227020E+03  0.38549227020E+03  0.00000000000E+00 0.  1.
         -6    2    1    2    0  503 -0.17433467230E+01  0.95436897502E+02 -0.35611751821E+03  0.40650960560E+03  0.17122830376E+03 0.  0.
        -24    2    3    3    0    0  0.23662874239E+02  0.77569155229E+02 -0.10670286711E+03  0.15512446193E+03  0.78110123404E+02 0.  0.
          6    2    1    2  501    0  0.17433467230E+01 -0.95436897502E+02  0.22626983137E+04  0.22710557303E+04  0.16964442387E+03 0.  0.
         24    2    5    5    0    0  0.45198776251E+02 -0.59693789986E+01  0.92235613326E+03  0.92701999345E+03  0.80911487586E+02 0.  0.
          5    1    5    5  501    0 -0.43455429528E+02 -0.89467518503E+02  0.13403421805E+04  0.13440357369E+04  0.47000000000E+01 0. -1.
        -13    1    6    6    0    0  0.12903456118E+02 -0.42106582660E+02  0.48043297182E+03  0.48244720322E+03  0.00000000000E+00 0.  1.
         14    1    6    6    0    0  0.32295320132E+02  0.36137203661E+02  0.44192316145E+03  0.44457279023E+03  0.00000000000E+00 0. -1.
         -5    1    3    3    0  503 -0.25406220962E+02  0.17867742273E+02 -0.24941465110E+03  0.25138514368E+03  0.47000000000E+01 0.  1.
         11    1    4    4    0    0  0.14126117578E+02 -0.13735845626E+02 -0.11243406702E+02  0.22685564731E+02  0.00000000000E+00 0. -1.
        -12    1    4    4    0    0  0.95367566605E+01  0.91305000855E+02 -0.95459460409E+02  0.13243889720E+03  0.00000000000E+00 0.  1.
</event>
<event>
12    1  0.8728348E-002  0.1759420E+03  0.7818608E-02  0.1172561E+00
         21   -1    0    0  501  502  0.00000000000E+00  0.00000000000E+00  0.28706144370E+03  0.28706144370E+03  0.00000000000E+00 0.  1.
         21   -1    0    0  502  503 -0.00000000000E+00 -0.00000000000E+00 -0.18249300671E+03  0.18249300671E+03  0.00000000000E+00 0.  1.
         -6    2    1    2    0  503  0.17445201763E+02  0.27810033234E+00 -0.99481313174E+02  0.20211905719E+03  0.17507475319E+03 0.  0.
        -24    2    3    3    0    0 -0.83042754727E+01  0.58734374437E+02 -0.25043596998E+02  0.10391908189E+03  0.81567800626E+02 0.  0.
          6    2    1    2  501    0 -0.17445201763E+02 -0.27810033234E+00  0.20404975016E+03  0.26743539321E+03  0.17199121081E+03 0.  0.
         24    2    5    5    0    0  0.23430434243E+02  0.91727760958E+01  0.32540744877E+02  0.90807067120E+02  0.80956150425E+02 0.  0.
          5    1    5    5  501    0 -0.40875636006E+02 -0.94508764281E+01  0.17150900528E+03  0.17662832609E+03  0.47000000000E+01 0. -1.
        -13    1    6    6    0    0  0.30621367345E+02 -0.27526456134E+02  0.33975192416E+02  0.53382465520E+02  0.00000000000E+00 0.  1.
         14    1    6    6    0    0 -0.71909331023E+01  0.36699232229E+02 -0.14344475389E+01  0.37424601599E+02  0.00000000000E+00 0. -1.
         -5    1    3    3    0  503  0.25749477236E+02 -0.58456274104E+02 -0.74437716176E+02  0.98199975303E+02  0.47000000000E+01 0.  1.
         11    1    4    4    0    0  0.19191494995E+01  0.47591733040E+02 -0.53539163605E+02  0.71659599693E+02  0.00000000000E+00 0. -1.
        -12    1    4    4    0    0 -0.10223424972E+02  0.11142641397E+02  0.28495566607E+02  0.32259482199E+02  0.00000000000E+00 0.  1.
</event>
<event>
12    1  0.8728348E-002  0.1841354E+03  0.7818608E-02  0.1164174E+00
         21   -1    0    0  501  502  0.00000000000E+00  0.00000000000E+00  0.23521841469E+03  0.23521841469E+03  0.00000000000E+00 0. -1.
         21   -1    0    0  502  503 -0.00000000000E+00 -0.00000000000E+00 -0.16238402747E+03  0.16238402747E+03  0.00000000000E+00 0. -1.
         -6    2    1    2    0  503 -0.56981750297E+02  0.31068386471E+02 -0.31966165442E+02  0.18688953138E+03  0.17231859070E+03 0.  0.
        -24    2    3    3    0    0 -0.38257349395E+02  0.23561937718E+02  0.47830913673E+02  0.10444795329E+03  0.81257547051E+02 0.  0.
          6    2    1    2  501    0  0.56981750297E+02 -0.31068386471E+02  0.10480055266E+03  0.21071291078E+03  0.17089356461E+03 0.  0.
         24    2    5    5    0    0  0.40675078407E+02  0.49525723689E+02  0.54753086103E+02  0.11433782557E+03  0.77252693202E+02 0.  0.
          5    1    5    5  501    0  0.16306671891E+02 -0.80594110160E+02  0.50047466560E+02  0.96375085212E+02  0.47000000000E+01 0. -1.
        -11    1    6    6    0    0  0.23272965170E+02  0.41876720814E+02  0.73437705422E+02  0.87683449018E+02  0.00000000000E+00 0.  1.
         12    1    6    6    0    0  0.17402113237E+02  0.76490028748E+01 -0.18684619319E+02  0.26654376548E+02  0.00000000000E+00 0. -1.
         -5    1    3    3    0  503 -0.18724400902E+02  0.75064487524E+01 -0.79797079115E+02  0.82441578086E+02  0.47000000000E+01 0.  1.
         11    1    4    4    0    0 -0.36595296231E+02 -0.23069560687E+02  0.36077213346E+02  0.56329261129E+02  0.00000000000E+00 0. -1.
        -12    1    4    4    0    0 -0.16620531642E+01  0.46631498406E+02  0.11753700328E+02  0.48118692165E+02  0.00000000000E+00 0.  1.
</event>
<event>
12    1  0.8728348E-002  0.1993876E+03  0.7818608E-02  0.1150499E+00
         21   -1    0    0  501  502  0.00000000000E+00  0.00000000000E+00  0.16541964431E+03  0.16541964431E+03  0.00000000000E+00 0. -1.
         21   -1    0    0  502  503 -0.00000000000E+00 -0.00000000000E+00 -0.46203000053E+03  0.46203000053E+03  0.00000000000E+00 0. -1.
         -6    2    1    2    0  503  0.23564355851E+02 -0.97705095901E+02 -0.36607506091E+03  0.41630807158E+03  0.17087976947E+03 0.  0.
        -24    2    3    3    0    0 -0.38874185736E+01 -0.25462625457E+02 -0.30711730862E+03  0.31899064760E+03  0.82283258848E+02 0.  0.
          6    2    1    2  501    0 -0.23564355851E+02  0.97705095901E+02  0.69464704683E+02  0.21114157326E+03  0.17220294460E+03 0.  0.
         24    2    5    5    0    0 -0.62483586676E+02  0.56407233965E+02 -0.84667807663E+01  0.11462408079E+03  0.77337047216E+02 0.  0.
          5    1    5    5  501    0  0.38919230825E+02  0.41297861936E+02  0.77931485449E+02  0.96517492470E+02  0.47000000000E+01 0. -1.
        -11    1    6    6    0    0 -0.59091416464E+02  0.53099255744E+01  0.10039551974E+02  0.60172945858E+02  0.00000000000E+00 0.  1.
         12    1    6    6    0    0 -0.33921702118E+01  0.51097308391E+02 -0.18506332740E+02  0.54451134929E+02  0.00000000000E+00 0. -1.
         -5    1    3    3    0  503  0.27451774425E+02 -0.72242470444E+02 -0.58957752290E+02  0.97317423980E+02  0.47000000000E+01 0.  1.
         11    1    4    4    0    0 -0.34043294459E+02 -0.26933190726E+02 -0.25574839160E+03  0.25940621131E+03  0.00000000000E+00 0. -1.
        -12    1    4    4    0    0  0.30155875886E+02  0.14705652690E+01 -0.51368917018E+02  0.59584436292E+02  0.00000000000E+00 0.  1.
</event>
<event>
12    1  0.8728348E-002  0.1880118E+03  0.7818608E-02  0.1160288E+00
         21   -1    0    0  503  502  0.00000000000E+00  0.00000000000E+00  0.17921048942E+03  0.17921048942E+03  0.00000000000E+00 0.  1.
         21   -1    0    0  501  503 -0.00000000000E+00 -0.00000000000E+00 -0.31994866091E+03  0.31994866091E+03  0.00000000000E+00 0. -1.
          6    2    1    2  501    0  0.11296773244E+02 -0.75612297121E+02 -0.22497904916E+03  0.29313738969E+03  0.17166572201E+03 0.  0.
         24    2    3    3    0    0  0.11732765728E+02 -0.81541750900E+02 -0.62521112170E+02  0.13050276914E+03  0.79595027199E+02 0.  0.
         -6    2    1    2    0  502 -0.11296773244E+02  0.75612297121E+02  0.84240877670E+02  0.20602176065E+03  0.17176613120E+03 0.  0.
        -24    2    5    5    0    0  0.24940116659E+02  0.40051581206E+01  0.90453379683E+01  0.95943816731E+02  0.92115943893E+02 0.  0.
          5    1    3    3  501    0 -0.43599248414E+00  0.59294537794E+01 -0.16245793699E+03  0.16263462055E+03  0.47000000000E+01 0. -1.
        -13    1    4    4    0    0 -0.62180316436E+01  0.13023982216E+02 -0.21447558807E+02  0.25851224518E+02  0.00000000000E+00 0.  1.
         14    1    4    4    0    0  0.17950797372E+02 -0.94565733116E+02 -0.41073553363E+02  0.10465154462E+03  0.00000000000E+00 0. -1.
         -5    1    5    5    0  502 -0.36236889903E+02  0.71607139000E+02  0.75195539701E+02  0.11007794392E+03  0.47000000000E+01 0.  1.
         13    1    6    6    0    0  0.18522307104E+02  0.47021736612E+02 -0.35535239664E+01  0.50663074393E+02  0.00000000000E+00 0. -1.
        -14    1    6    6    0    0  0.64178095552E+01 -0.43016578491E+02  0.12598861935E+02  0.45280742337E+02  0.00000000000E+00 0.  1.
</event>
<event>
12    1  0.8728348E-002  0.2397620E+03  0.7818608E-02  0.1120060E+00
         21   -1    0    0  503  502  0.00000000000E+00  0.00000000000E+00  0.19761966073E+04  0.19761966073E+04  0.00000000000E+00 0.  1.
         21   -1    0    0  501  503 -0.00000000000E+00 -0.00000000000E+00 -0.62327891572E+02  0.62327891572E+02  0.00000000000E+00 0. -1.
          6    2    1    2  501    0 -0.11764960888E+03  0.11815457978E+03  0.21232409094E+03  0.32026135049E+03  0.17229009789E+03 0.  0.
         24    2    3    3    0    0 -0.56413362049E+02  0.13754579828E+03  0.18435146747E+03  0.25004415213E+03  0.80220324191E+02 0.  0.
         -6    2    1    2    0  502  0.11764960888E+03 -0.11815457978E+03  0.17015446248E+04  0.17182631484E+04  0.17138320147E+03 0.  0.
        -24    2    5    5    0    0  0.10726588369E+03 -0.14696365818E+03  0.12629033331E+04  0.12785290724E+04  0.81286368807E+02 0.  0.
          5    1    3    3  501    0 -0.61236246835E+02 -0.19391218503E+02  0.27972623468E+02  0.70217198358E+02  0.47000000000E+01 0. -1.
        -13    1    4    4    0    0 -0.12916494699E+02 -0.73124880789E+01  0.32456283958E+02  0.35689195642E+02  0.00000000000E+00 0.  1.
         14    1    4    4    0    0 -0.43496867349E+02  0.14485828636E+03  0.15189518351E+03  0.21435495649E+03  0.00000000000E+00 0. -1.
         -5    1    5    5    0  502  0.10383725191E+02  0.28809078405E+02  0.43864129170E+03  0.43973407593E+03  0.47000000000E+01 0.  1.
         13    1    6    6    0    0  0.85875780562E+01 -0.54428750993E+02  0.56167156441E+03  0.56436794886E+03  0.00000000000E+00 0. -1.
        -14    1    6    6    0    0  0.98678305637E+02 -0.92534907190E+02  0.70123176865E+03  0.71416112357E+03  0.00000000000E+00 0.  1.
</event>
<event>
12    1  0.8728348E-002  0.1998389E+03  0.7818608E-02  0.1151681E+00
         21   -1    0    0  503  502  0.00000000000E+00  0.00000000000E+00  0.36320380059E+02  0.36320380059E+02  0.00000000000E+00 0. -1.
         21   -1    0    0  501  503 -0.00000000000E+00 -0.00000000000E+00 -0.10605929836E+04  0.10605929836E+04  0.00000000000E+00 0. -1.
          6    2    1    2  501    0  0.59802152036E+02  0.71828690746E+02 -0.56621055676E+03  0.60044149565E+03  0.17663503872E+03 0.  0.
         24    2    3    3    0    0  0.26436635817E+02  0.62556722107E+02 -0.55354980265E+03  0.56327145704E+03  0.79026015429E+02 0.  0.
         -6    2    1    2    0  502 -0.59802152036E+02 -0.71828690746E+02 -0.45806204679E+03  0.49647186802E+03  0.16711618361E+03 0.  0.
        -24    2    5    5    0    0 -0.66499678695E+02  0.11821201933E+02 -0.26651823827E+03  0.28729901608E+03  0.83347496822E+02 0.  0.
          5    1    3    3  501    0  0.33365516219E+02  0.92719686391E+01 -0.12660754112E+02  0.37170038602E+02  0.47000000000E+01 0. -1.
        -11    1    4    4    0    0 -0.56203031663E+01  0.69895503278E+02 -0.41420940830E+03  0.42010284825E+03  0.00000000000E+00 0.  1.
         12    1    4    4    0    0  0.32056938983E+02 -0.73387811709E+01 -0.13934039435E+03  0.14316860879E+03  0.00000000000E+00 0. -1.
         -5    1    5    5    0  502  0.66975266591E+01 -0.83649892679E+02 -0.19154380852E+03  0.20917285194E+03  0.47000000000E+01 0.  1.
         11    1    6    6    0    0 -0.14556159003E+02 -0.23907742009E+02 -0.24481477721E+02  0.37186081324E+02  0.00000000000E+00 0. -1.
        -12    1    6    6    0    0 -0.51943519692E+02  0.35728943942E+02 -0.24203676055E+03  0.25011293475E+03  0.00000000000E+00 0.  1.
</event>
<event>
12    1  0.8728348E-002  0.2018013E+03  0.7818608E-02  0.1148613E+00
         21   -1    0    0  501  502  0.00000000000E+00  0.00000000000E+00  0.85432784269E+03  0.85432784269E+03  0.00000000000E+00 0. -1.
         21   -1    0    0  502  503 -0.00000000000E+00 -0.00000000000E+00 -0.73191435002E+02  0.73191435002E+02  0.00000000000E+00 0. -1.
         -6    2    1    2    0  503  0.68141883606E+02 -0.77914845001E+02  0.11554501542E+03  0.23253904064E+03  0.17323312461E+03 0.  0.
        -24    2    3    3    0    0 -0.84787788788E+00 -0.10106000000E+03  0.83066352791E+02  0.15271273597E+03  0.78786536066E+02 0.  0.
          6    2    1    2  501    0 -0.68141883606E+02  0.77914845001E+02  0.66559139227E+03  0.69498023705E+03  0.17108941831E+03 0.  0.
         24    2    5    5    0    0 -0.66391739511E+02  0.11892317593E+03  0.50180586729E+03  0.52606447579E+03  0.79900684547E+02 0.  0.
          5    1    5    5  501    0 -0.17501440946E+01 -0.41008330933E+02  0.16378552498E+03  0.16891576126E+03  0.47000000000E+01 0. -1.
        -13    1    6    6    0    0  0.14289458809E+02  0.42672519677E+02  0.11037778840E+03  0.11919894605E+03  0.00000000000E+00 0.  1.
         14    1    6    6    0    0 -0.80681198320E+02  0.76250656257E+02  0.39142807889E+03  0.40686552973E+03  0.00000000000E+00 0. -1.
         -5    1    3    3    0  503  0.68989761494E+02  0.23145155000E+02  0.32478662633E+02  0.79826304670E+02  0.47000000000E+01 0.  1.
         13    1    4    4    0    0  0.27170328392E+02 -0.15407514285E+02  0.16746976490E+01  0.31279751495E+02  0.00000000000E+00 0. -1.
        -14    1    4    4    0    0 -0.28018206280E+02 -0.85652485716E+02  0.81391655142E+02  0.12143298448E+03  0.00000000000E+00 0.  1.
</event>
<event>
12    1  0.8728348E-002  0.1731744E+03  0.7818608E-02  0.1174795E+00
         21   -1    0    0  501  502  0.00000000000E+00  0.00000000000E+00  0.77040016792E+03  0.77040016792E+03  0.00000000000E+00 0.  1.
         21   -1    0    0  502  503 -0.00000000000E+00 -0.00000000000E+00 -0.40391372904E+02  0.40391372904E+02  0.00000000000E+00 0.  1.
         -6    2    1    2    0  503 -0.72168556850E+01 -0.11855528393E+02  0.28206195288E+03  0.33053563523E+03  0.17176211554E+03 0.  0.
        -24    2    3    3    0    0 -0.39462963012E+02  0.13003014919E+02  0.98637197382E+02  0.14258753191E+03  0.94209891738E+02 0.  0.
          6    2    1    2  501    0  0.72168556850E+01  0.11855528393E+02  0.44794684213E+03  0.48025590559E+03  0.17261727873E+03 0.  0.
         24    2    5    5    0    0  0.30924954206E+02  0.68947238013E+02  0.26109226561E+03  0.28338472941E+03  0.80172684120E+02 0.  0.
          5    1    5    5  501    0 -0.23708098521E+02 -0.57091709620E+02  0.18685457652E+03  0.19687117618E+03  0.47000000000E+01 0. -1.
        -11    1    6    6    0    0  0.39417624724E+02  0.11232702465E+02  0.51465344430E+02  0.65792130387E+02  0.00000000000E+00 0.  1.
         12    1    6    6    0    0 -0.84926705183E+01  0.57714535548E+02  0.20962692118E+03  0.21759259902E+03  0.00000000000E+00 0. -1.
         -5    1    3    3    0  503  0.32246107327E+02 -0.24858543312E+02  0.18342475550E+03  0.18794810333E+03  0.47000000000E+01 0.  1.
         13    1    4    4    0    0 -0.39144271895E+02 -0.30732986884E+02  0.22140537515E+02  0.54470119391E+02  0.00000000000E+00 0. -1.
        -14    1    4    4    0    0 -0.31869111741E+00  0.43736001804E+02  0.76496659867E+02  0.88117412517E+02  0.00000000000E+00 0.  1.
</event>
<event>
12    1  0.8728348E-002  0.1725607E+03  0.7818608E-02  0.1175405E+00
         21   -1    0    0  503  502  0.00000000000E+00  0.00000000000E+00  0.22956455312E+03  0.22956455312E+03  0.00000000000E+00 0. -1.
         21   -1    0    0  501  503 -0.00000000000E+00 -0.00000000000E+00 -0.57082211797E+03  0.57082211797E+03  0.00000000000E+00 0. -1.
          6    2    1    2  501    0 -0.48670265913E+01 -0.11634235311E+02 -0.52257376448E+03  0.55008136058E+03  0.17131001299E+03 0.  0.
         24    2    3    3    0    0 -0.38089999903E+02 -0.19819006210E+02 -0.14732526140E+03  0.17324680074E+03  0.80411940763E+02 0.  0.
         -6    2    1    2    0  502  0.48670265913E+01  0.11634235311E+02  0.18131619964E+03  0.25030531051E+03  0.17209921801E+03 0.  0.
        -24    2    5    5    0    0 -0.50160219479E+02  0.36944578352E+02  0.15386755887E+03  0.18364100856E+03  0.78535627992E+02 0.  0.
          5    1    3    3  501    0  0.33222973312E+02  0.81847708992E+01 -0.37524850308E+03  0.37683455985E+03  0.47000000000E+01 0. -1.
        -11    1    4    4    0    0  0.29356192323E+01 -0.43620441577E+02 -0.69481594347E+02  0.82091733668E+02  0.00000000000E+00 0.  1.
         12    1    4    4    0    0 -0.41025619136E+02  0.23801435367E+02 -0.77843667058E+02  0.91155067067E+02  0.00000000000E+00 0. -1.
         -5    1    5    5    0  502  0.55027246071E+02 -0.25310343041E+02  0.27448640767E+02  0.66664301953E+02  0.47000000000E+01 0.  1.
         13    1    6    6    0    0 -0.31813920673E+02  0.50524974502E+02  0.51777795106E+02  0.79030618516E+02  0.00000000000E+00 0. -1.
        -14    1    6    6    0    0 -0.18346298807E+02 -0.13580396150E+02  0.10208976376E+03  0.10461039004E+03  0.00000000000E+00 0.  1.
</event>
<event>
12    1  0.8728348E-002  0.2831704E+03  0.7818608E-02  0.1094011E+00
         21   -1    0    0  503  502  0.00000000000E+00  0.00000000000E+00  0.13630112264E+04  0.13630112264E+04  0.00000000000E+00 0. -1.
         21   -1    0    0  501  503 -0.00000000000E+00 -0.00000000000E+00 -0.58780636846E+02  0.58780636846E+02  0.00000000000E+00 0. -1.
          6    2    1    2  501    0 -0.14890332793E+03  0.16696240547E+03  0.64140979439E+03  0.70113623002E+03  0.17359966246E+03 0.  0.
         24    2    3    3    0    0 -0.33276419925E+02  0.16260524561E+02  0.25694762117E+03  0.27228440083E+03  0.82127888867E+02 0.  0.
         -6    2    1    2    0  502  0.14890332793E+03 -0.16696240547E+03  0.66282079519E+03  0.72065563325E+03  0.17310253980E+03 0.  0.
        -24    2    5    5    0    0  0.11526051632E+03 -0.13156108033E+03  0.63648697694E+03  0.66497212960E+03  0.80491967617E+02 0.  0.
          5    1    3    3  501    0 -0.11562690800E+03  0.15070188091E+03  0.38446217322E+03  0.42885182919E+03  0.47000000000E+01 0. -1.
        -13    1    4    4    0    0 -0.30169411368E+02 -0.14975189015E+02  0.36707409131E+02  0.49818506134E+02  0.00000000000E+00 0.  1.
         14    1    4    4    0    0 -0.31070085568E+01  0.31235713576E+02  0.22024021204E+03  0.22246589470E+03  0.00000000000E+00 0. -1.
         -5    1    5    5    0  502  0.33642811609E+02 -0.35401325145E+02  0.26333818255E+02  0.55683503651E+02  0.47000000000E+01 0.  1.
         13    1    6    6    0    0  0.74934606092E+02 -0.11640472363E+03  0.56316346104E+03  0.57992959808E+03  0.00000000000E+00 0. -1.
        -14    1    6    6    0    0  0.40325910227E+02 -0.15156356697E+02  0.73323515895E+02  0.85042531520E+02  0.00000000000E+00 0.  1.
</event>
<event>
12    1  0.8728348E-002  0.2135106E+03  0.7818608E-02  0.1139297E+00
         21   -1    0    0  503  502  0.00000000000E+00  0.00000000000E+00  0.56815572226E+03  0.56815572226E+03  0.00000000000E+00 0. -1.
         21   -1    0    0  501  503 -0.00000000000E+00 -0.00000000000E+00 -0.36348445529E+03  0.36348445529E+03  0.00000000000E+00 0.  1.
          6    2    1    2  501    0  0.12338096075E+03  0.25423101575E+02 -0.30940941411E+03  0.37592680643E+03  0.17238788439E+03 0.  0.
         24    2    3    3    0    0  0.13318399887E+03  0.57376152604E+02 -0.29583621859E+03  0.33954798480E+03  0.82120431751E+02 0.  0.
         -6    2    1    2    0  502 -0.12338096075E+03 -0.25423101575E+02  0.51408068108E+03  0.55571337112E+03  0.16931984116E+03 0.  0.
        -24    2    5    5    0    0 -0.63352180778E+02 -0.12805653420E+01  0.46041626887E+03  0.47152147353E+03  0.79587817570E+02 0.  0.
          5    1    3    3  501    0 -0.98030381226E+01 -0.31953051029E+02 -0.13573195524E+02  0.36378821630E+02  0.47000000000E+01 0. -1.
        -13    1    4    4    0    0  0.12358337803E+03  0.63271331411E+02 -0.20244274994E+03  0.24547745254E+03  0.00000000000E+00 0.  1.
         14    1    4    4    0    0  0.96006208481E+01 -0.58951788065E+01 -0.93393468645E+02  0.94070532258E+02  0.00000000000E+00 0. -1.
         -5    1    5    5    0  502 -0.60028779975E+02 -0.24142536233E+02  0.53664412205E+02  0.84191897581E+02  0.47000000000E+01 0.  1.
         11    1    6    6    0    0  0.18927030292E+02  0.11828034814E+01  0.70120481917E+02  0.72639613738E+02  0.00000000000E+00 0. -1.
        -12    1    6    6    0    0 -0.82279211069E+02 -0.24633688234E+01  0.39029578695E+03  0.39888185980E+03  0.00000000000E+00 0.  1.
</event>
<event>
12    1  0.8728348E-002  0.2487199E+03  0.7818608E-02  0.1114301E+00
         21   -1    0    0  503  502  0.00000000000E+00  0.00000000000E+00  0.20843907226E+03  0.20843907226E+03  0.00000000000E+00 0.  1.
         21   -1    0    0  501  503 -0.00000000000E+00 -0.00000000000E+00 -0.34475588765E+03  0.34475588765E+03  0.00000000000E+00 0. -1.
          6    2    1    2  501    0 -0.10827977197E+03 -0.14072073376E+03 -0.17267313537E+03  0.30183190155E+03  0.17250985822E+03 0.  0.
         24    2    3    3    0    0 -0.10836794769E+03 -0.61967195129E+02 -0.16650827081E+03  0.22269769165E+03  0.79282483928E+02 0.  0.
         -6    2    1    2    0  502  0.10827977197E+03  0.14072073376E+03  0.36356319988E+02  0.25136305836E+03  0.17416880081E+03 0.  0.
        -24    2    5    5    0    0  0.82024612217E+02  0.75464224335E+02 -0.44438255777E+02  0.14413620114E+03  0.79859875652E+02 0.  0.
          5    1    3    3  501    0  0.88175719662E-01 -0.78753538629E+02 -0.61648645628E+01  0.79134209901E+02  0.47000000000E+01 0. -1.
        -13    1    4    4    0    0 -0.73697852084E+02 -0.66974309006E+02 -0.74860320402E+02  0.12458330161E+03  0.00000000000E+00 0.  1.
         14    1    4    4    0    0 -0.34670095606E+02  0.50071138768E+01 -0.91647950409E+02  0.98114390040E+02  0.00000000000E+00 0. -1.
         -5    1    5    5    0  502  0.26255159753E+02  0.65256509424E+02  0.80794575764E+02  0.10722685722E+03  0.47000000000E+01 0.  1.
         11    1    6    6    0    0  0.26851038563E+02  0.52085672041E+02 -0.58268654485E+02  0.82638560003E+02  0.00000000000E+00 0. -1.
        -12    1    6    6    0    0  0.55173573654E+02  0.23378552294E+02  0.13830398709E+02  0.61497641138E+02  0.00000000000E+00 0.  1.
</event>
<event>
12    1  0.8728348E-002  0.1836572E+03  0.7818608E-02  0.1164360E+00
         21   -1    0    0  503  502  0.00000000000E+00  0.00000000000E+00  0.19396900054E+03  0.19396900054E+03  0.00000000000E+00 0.  1.
         21   -1    0    0  501  503 -0.00000000000E+00 -0.00000000000E+00 -0.49983066528E+03  0.49983066528E+03  0.00000000000E+00 0.  1.
          6    2    1    2  501    0 -0.61648941175E+02  0.23566229683E+02 -0.43317699769E+03  0.47050215136E+03  0.17138845929E+03 0.  0.
         24    2    3    3    0    0  0.89096932318E+00 -0.42823782568E+02 -0.17726457193E+03  0.19878146060E+03  0.79099117793E+02 0.  0.
         -6    2    1    2    0  502  0.61648941175E+02 -0.23566229683E+02  0.12731533295E+03  0.22329751446E+03  0.17116257428E+03 0.  0.
        -24    2    5    5    0    0  0.97361428202E+02 -0.53412345107E+02  0.96208692459E+02  0.16712024666E+03  0.79630007081E+02 0.  0.
          5    1    3    3  501    0 -0.62539910498E+02  0.66390012251E+02 -0.25591242576E+03  0.27172069076E+03  0.47000000000E+01 0. -1.
        -11    1    4    4    0    0 -0.34945097251E+02 -0.40544424757E+02 -0.11633212885E+03  0.12805535679E+03  0.00000000000E+00 0.  1.
         12    1    4    4    0    0  0.35836066574E+02 -0.22793578119E+01 -0.60932443084E+02  0.70726103807E+02  0.00000000000E+00 0. -1.
         -5    1    5    5    0  502 -0.35712487027E+02  0.29846115424E+02  0.31106640488E+02  0.56177267805E+02  0.47000000000E+01 0.  1.
         11    1    6    6    0    0  0.20479020125E+02 -0.49074032353E+02  0.15096685590E+02  0.55277127571E+02  0.00000000000E+00 0. -1.
        -12    1    6    6    0    0  0.76882408077E+02 -0.43383127538E+01  0.81112006869E+02  0.11184311909E+03  0.00000000000E+00 0.  1.
</event>
<event>
12    1  0.8728348E-002  0.1861630E+03  0.7818608E-02  0.1162723E+00
         21   -1    0    0  501  502  0.00000000000E+00  0.00000000000E+00  0.42706956510E+02  0.42706956510E+02  0.00000000000E+00 0.  1.
         21   -1    0    0  502  503 -0.00000000000E+00 -0.00000000000E+00 -0.84606739358E+03  0.84606739358E+03  0.00000000000E+00 0.  1.
         -6    2    1    2    0  503 -0.63642295911E+02 -0.96281734837E+01 -0.29187373870E+03  0.34446259062E+03  0.17123420639E+03 0.  0.
        -24    2    3    3    0    0 -0.62678604746E+02  0.13029270305E+02 -0.30314791756E+03  0.31870437700E+03  0.74668940109E+02 0.  0.
          6    2    1    2  501    0  0.63642295911E+02  0.96281734837E+01 -0.51148669837E+03  0.54431175948E+03  0.17468143959E+03 0.  0.
         24    2    5    5    0    0  0.33036781594E+02  0.34485608432E+02 -0.12432405927E+03  0.15511824887E+03  0.79526808643E+02 0.  0.
          5    1    5    5  501    0  0.30605514317E+02 -0.24857434949E+02 -0.38716263911E+03  0.38919351061E+03  0.47000000000E+01 0. -1.
        -13    1    6    6    0    0 -0.18641499040E+02  0.20395407440E+02 -0.82962513626E+02  0.87442877345E+02  0.00000000000E+00 0.  1.
         14    1    6    6    0    0  0.51678280635E+02  0.14090200992E+02 -0.41361545641E+02  0.67675371526E+02  0.00000000000E+00 0. -1.
         -5    1    3    3    0  503 -0.96369116528E+00 -0.22657443789E+02  0.11274178865E+02  0.25758213618E+02  0.47000000000E+01 0.  1.
         13    1    4    4    0    0 -0.36039867649E+02  0.44368586025E+02 -0.17064347665E+03  0.17996288398E+03  0.00000000000E+00 0. -1.
        -14    1    4    4    0    0 -0.26638737097E+02 -0.31339315720E+02 -0.13250444091E+03  0.13874149302E+03  0.00000000000E+00 0.  1.
</event>
<event>
12    1  0.8728348E-002  0.2059736E+03  0.7818608E-02  0.1144835E+00
         21   -1    0    0  503  502  0.00000000000E+00  0.00000000000E+00  0.49060748412E+02  0.49060748412E+02  0.00000000000E+00 0.  1.
         21   -1    0    0  501  503 -0.00000000000E+00 -0.00000000000E+00 -0.98275501014E+03  0.98275501014E+03  0.00000000000E+00 0.  1.
          6    2    1    2  501    0 -0.52864028624E+02  0.99065873184E+02 -0.64605096186E+03  0.67803082591E+03  0.17243927282E+03 0.  0.
         24    2    3    3    0    0 -0.95247657230E+02  0.36926317516E+02 -0.41205205584E+03  0.43219495714E+03  0.81055012967E+02 0.  0.
         -6    2    1    2    0  502  0.52864028624E+02 -0.99065873184E+02 -0.28764329987E+03  0.35378493265E+03  0.17267442733E+03 0.  0.
        -24    2    5    5    0    0 -0.33515206639E+02 -0.60947783956E+02 -0.18964076044E+03  0.21761978018E+03  0.80974374094E+02 0.  0.
          5    1    3    3  501    0  0.42383628606E+02  0.62139555668E+02 -0.23399890602E+03  0.24583586876E+03  0.47000000000E+01 0. -1.
        -13    1    4    4    0    0 -0.73237139943E+02  0.58081513132E+02 -0.24200688665E+03  0.25943105832E+03  0.00000000000E+00 0.  1.
         14    1    4    4    0    0 -0.22010517287E+02 -0.21155195616E+02 -0.17004516919E+03  0.17276389882E+03  0.00000000000E+00 0. -1.
         -5    1    5    5    0  502  0.86379235263E+02 -0.38118089227E+02 -0.98002539430E+02  0.13616515246E+03  0.47000000000E+01 0.  1.
         11    1    6    6    0    0 -0.37954848463E+02 -0.15375105866E+02 -0.27973021710E+02  0.49592886041E+02  0.00000000000E+00 0. -1.
        -12    1    6    6    0    0  0.44396418242E+01 -0.45572678091E+02 -0.16166773873E+03  0.16802689414E+03  0.00000000000E+00 0.  1.
</event>
<event>
12    1  0.8728348E-002  0.1760062E+03  0.7818608E-02  0.1172078E+00
         21   -1    0    0  501  502  0.00000000000E+00  0.00000000000E+00  0.32665298795E+03  0.32665298795E+03  0.00000000000E+00 0. -1.
         21   -1    0    0  502  503 -0.00000000000E+00 -0.00000000000E+00 -0.24528680139E+03  0.24528680139E+03  0.00000000000E+00 0. -1.
         -6    2    1    2    0  503  0.30243977035E+02  0.30794983860E+01 -0.18390760848E+03  0.25358721095E+03  0.17193104328E+03 0.  0.
        -24    2    3    3    0    0  0.68594579042E+02 -0.26687805065E+02 -0.17054300121E+03  0.20301484936E+03  0.81930815848E+02 0.  0.
          6    2    1    2  501    0 -0.30243977035E+02 -0.30794983860E+01  0.26527379504E+03  0.31835257840E+03  0.17336088480E+03 0.  0.
         24    2    5    5    0    0 -0.72582363496E+02 -0.39530049076E+02  0.21388839483E+03  0.24230173377E+03  0.78301088587E+02 0.  0.
          5    1    5    5  501    0  0.42338386461E+02  0.36450550690E+02  0.51385400206E+02  0.76050844625E+02  0.47000000000E+01 0. -1.
        -11    1    6    6    0    0 -0.13830408741E+02 -0.88849417394E+01 -0.19191349984E+01  0.16550089872E+02  0.00000000000E+00 0.  1.
         12    1    6    6    0    0 -0.58751954756E+02 -0.30645107336E+02  0.21580752983E+03  0.22575164390E+03  0.00000000000E+00 0. -1.
         -5    1    3    3    0  503 -0.38350602007E+02  0.29767303451E+02 -0.13364607269E+02  0.50572361587E+02  0.47000000000E+01 0.  1.
         11    1    4    4    0    0  0.15928968222E+00  0.78185352538E+01 -0.95268547828E+02  0.95588969405E+02  0.00000000000E+00 0. -1.
        -12    1    4    4    0    0  0.68435289360E+02 -0.34506340318E+02 -0.75274453383E+02  0.10742587995E+03  0.00000000000E+00 0.  1.
</event>
<event>
12    1  0.8728348E-002  0.1858060E+03  0.7818608E-02  0.1163440E+00
         21   -1    0    0  503  502  0.00000000000E+00  0.00000000000E+00  0.20663216045E+03  0.20663216045E+03  0.00000000000E+00 0. -1.
         21   -1    0    0  501  503 -0.00000000000E+00 -0.00000000000E+00 -0.19487254987E+03  0.19487254987E+03  0.00000000000E+00 0. -1.
          6    2    1    2  501    0  0.68212270130E+02  0.67089317102E+01 -0.75553628537E+02  0.20057974181E+03  0.17270193536E+03 0.  0.
         24    2    3    3    0    0  0.87575519181E+02  0.56301556949E+02 -0.62834793094E+02  0.14564138848E+03  0.80149023322E+02 0.  0.
         -6    2    1    2    0  502 -0.68212270130E+02 -0.67089317102E+01  0.87313239122E+02  0.20092496851E+03  0.16747930525E+03 0.  0.
        -24    2    5    5    0    0 -0.56637591328E+02  0.24543887007E+02 -0.43476576144E+01  0.10328009227E+03  0.82690121483E+02 0.  0.
          5    1    3    3  501    0 -0.19363249051E+02 -0.49592625238E+02 -0.12718835443E+02  0.54938353332E+02  0.47000000000E+01 0. -1.
        -11    1    4    4    0    0  0.49135109911E+02  0.41260996034E+01  0.76426895544E+01  0.49896837851E+02  0.00000000000E+00 0.  1.
         12    1    4    4    0    0  0.38440409270E+02  0.52175457345E+02 -0.70477482648E+02  0.95744550625E+02  0.00000000000E+00 0. -1.
         -5    1    5    5    0  502 -0.11574678802E+02 -0.31252818717E+02  0.91660896737E+02  0.97644876249E+02  0.47000000000E+01 0.  1.
         13    1    6    6    0    0  0.63256013880E+01  0.13877319680E+02  0.27857270293E+02  0.31758790005E+02  0.00000000000E+00 0. -1.
        -14    1    6    6    0    0 -0.62963192716E+02  0.10666567327E+02 -0.32204927907E+02  0.71521302261E+02  0.00000000000E+00 0.  1.
</event>
<event>
12    1  0.8728348E-002  0.1920869E+03  0.7818608E-02  0.1156925E+00
         21   -1    0    0  503  502  0.00000000000E+00  0.00000000000E+00  0.16547963083E+03  0.16547963083E+03  0.00000000000E+00 0. -1.
         21   -1    0    0  501  503 -0.00000000000E+00 -0.00000000000E+00 -0.24173016446E+03  0.24173016446E+03  0.00000000000E+00 0. -1.
          6    2    1    2  501    0 -0.76365907735E+02  0.32312961040E+02 -0.97530804178E+02  0.21542899135E+03  0.17326717299E+03 0.  0.
         24    2    3    3    0    0 -0.44811238453E+02  0.63049951728E+02 -0.12175723027E+03  0.16493671995E+03  0.79974714512E+02 0.  0.
         -6    2    1    2    0  502  0.76365907735E+02 -0.32312961040E+02  0.21280270550E+02  0.19178080394E+03  0.17161336641E+03 0.  0.
        -24    2    5    5    0    0  0.86198273635E+02 -0.55029031542E+02 -0.32232673591E+02  0.13263335709E+03  0.78066160895E+02 0.  0.
          5    1    3    3  501    0 -0.31554669282E+02 -0.30736990688E+02  0.24226426089E+02  0.50492271399E+02  0.47000000000E+01 0. -1.
        -13    1    4    4    0    0  0.57587260068E+01  0.56484437603E+02 -0.43476125680E+02  0.71511034957E+02  0.00000000000E+00 0.  1.
         14    1    4    4    0    0 -0.50569964460E+02  0.65655141251E+01 -0.78281104586E+02  0.93425684993E+02  0.00000000000E+00 0. -1.
         -5    1    5    5    0  502 -0.98323659003E+01  0.22716070502E+02  0.53512944141E+02  0.59147446850E+02  0.47000000000E+01 0.  1.
         11    1    6    6    0    0  0.67063558597E+02 -0.23649854011E+01 -0.36588398512E+02  0.76431832069E+02  0.00000000000E+00 0. -1.
        -12    1    6    6    0    0  0.19134715038E+02 -0.52664046141E+02  0.43557249215E+01  0.56201525024E+02  0.00000000000E+00 0.  1.
</event>
<event>
12    1  0.8728348E-002  0.2124502E+03  0.7818608E-02  0.1140070E+00
         21   -1    0    0  503  502  0.00000000000E+00  0.00000000000E+00  0.30542647523E+03  0.30542647523E+03  0.00000000000E+00 0. -1.
         21   -1    0    0  501  503 -0.00000000000E+00 -0.00000000000E+00 -0.32097038364E+03  0.32097038364E+03  0.00000000000E+00 0. -1.
          6    2    1    2  501    0 -0.83302795077E+02 -0.88511811414E+02 -0.23886302653E+03  0.31967270324E+03  0.17424521608E+03 0.  0.
         24    2    3    3    0    0 -0.82001910331E+02 -0.21650716387E+02 -0.49379217417E+02  0.11867941418E+03  0.66734019962E+02 0.  0.
         -6    2    1    2    0  502  0.83302795077E+02  0.88511811414E+02  0.22331911812E+03  0.30672415563E+03  0.17156509756E+03 0.  0.
        -24    2    5    5    0    0  0.91150292097E+02  0.22096102292E+02  0.87907387303E+02  0.15562466367E+03  0.87719517292E+02 0.  0.
          5    1    3    3  501    0 -0.13008847452E+01 -0.66861095027E+02 -0.18948380911E+03  0.20099328906E+03  0.47000000000E+01 0. -1.
        -13    1    4    4    0    0  0.16425441069E+01  0.52319593126E+01  0.10851231691E+02  0.12158148651E+02  0.00000000000E+00 0.  1.
         14    1    4    4    0    0 -0.83644454438E+02 -0.26882675700E+02 -0.60230449108E+02  0.10652126553E+03  0.00000000000E+00 0. -1.
         -5    1    5    5    0  502 -0.78474970206E+01  0.66415709122E+02  0.13541173082E+03  0.15109949196E+03  0.47000000000E+01 0.  1.
         11    1    6    6    0    0  0.25030194165E+02  0.19251128616E+02  0.83529322284E+02  0.89298736016E+02  0.00000000000E+00 0. -1.
        -12    1    6    6    0    0  0.66120097932E+02  0.28449736760E+01  0.43780650193E+01  0.66325927653E+02  0.00000000000E+00 0.  1.
</event>
<event>
12    1  0.8728348E-002  0.2063023E+03  0.7818608E-02  0.1144793E+00
         21   -1    0    0  503  502  0.00000000000E+00  0.00000000000E+00  0.45185472969E+03  0.45185472969E+03  0.00000000000E+00 0. -1.
         21   -1    0    0  501  503 -0.00000000000E+00 -0.00000000000E+00 -0.10523233957E+03  0.10523233957E+03  0.00000000000E+00 0.  1.
          6    2    1    2  501    0 -0.10644633361E+03  0.38979588307E+02  0.81180060214E+02  0.22169987179E+03  0.17236705233E+03 0.  0.
         24    2    3    3    0    0 -0.28936997200E+02  0.10552590245E+02 -0.23118005093E+02  0.88598527401E+02  0.79790663178E+02 0.  0.
         -6    2    1    2    0  502  0.10644633361E+03 -0.38979588307E+02  0.26544232990E+03  0.33538719747E+03  0.17080606394E+03 0.  0.
        -24    2    5    5    0    0  0.20901281910E+02 -0.30938724177E+02  0.22161746179E+03  0.23881949877E+03  0.80786046975E+02 0.  0.
          5    1    3    3  501    0 -0.77509336414E+02  0.28426998062E+02  0.10429806531E+03  0.13310134438E+03  0.47000000000E+01 0. -1.
        -11    1    4    4    0    0 -0.31155731878E+02 -0.24827072312E+02 -0.33073884324E+02  0.51777842488E+02  0.00000000000E+00 0.  1.
         12    1    4    4    0    0  0.22187346786E+01  0.35379662557E+02  0.99558792310E+01  0.36820684913E+02  0.00000000000E+00 0. -1.
         -5    1    5    5    0  502  0.85545051703E+02 -0.80408641297E+01  0.43824868118E+02  0.96567698701E+02  0.47000000000E+01 0.  1.
         13    1    6    6    0    0 -0.11636509327E+01  0.16667116374E+02  0.74063759043E+01  0.18275701238E+02  0.00000000000E+00 0. -1.
        -14    1    6    6    0    0  0.22064932843E+02 -0.47605840551E+02  0.21421108588E+03  0.22054379753E+03  0.00000000000E+00 0.  1.
</event>
<event>
12    1  0.8728348E-002  0.1799418E+03  0.7818608E-02  0.1168234E+00
         21   -1    0    0  503  502  0.00000000000E+00  0.00000000000E+00  0.20257239951E+03  0.20257239951E+03  0.00000000000E+00 0. -1.
         21   -1    0    0  501  503 -0.00000000000E+00 -0.00000000000E+00 -0.18913806993E+03  0.18913806993E+03  0.00000000000E+00 0. -1.
          6    2    1    2  501    0  0.46968134127E+02 -0.17905840578E+02 -0.72120440381E+02  0.19385668132E+03  0.17277855834E+03 0.  0.
         24    2    3    3    0    0  0.66347552081E+02 -0.28406875303E+02  0.94627379017E+01  0.10921780994E+03  0.81425047541E+02 0.  0.
         -6    2    1    2    0  502 -0.46968134127E+02  0.17905840578E+02  0.85554769954E+02  0.19785378812E+03  0.17117207150E+03 0.  0.
        -24    2    5    5    0    0  0.15321648833E+02 -0.46851218905E+01 -0.97268909037E+01  0.81702793540E+02  0.79523774907E+02 0.  0.
          5    1    3    3  501    0 -0.19379417954E+02  0.10501034725E+02 -0.81583178282E+02  0.84638871384E+02  0.47000000000E+01 0. -1.
        -13    1    4    4    0    0  0.69935829349E+02 -0.19116695743E+02 -0.22361525318E+02  0.75871642248E+02  0.00000000000E+00 0.  1.
         14    1    4    4    0    0 -0.35882772683E+01 -0.92901795602E+01  0.31824263220E+02  0.33346167688E+02  0.00000000000E+00 0. -1.
         -5    1    5    5    0  502 -0.62289782960E+02  0.22590962469E+02  0.95281660858E+02  0.11615099458E+03  0.47000000000E+01 0.  1.
         13    1    6    6    0    0  0.11148781375E+02 -0.39218044444E+02  0.96323546112E+01  0.41894302614E+02  0.00000000000E+00 0. -1.
        -14    1    6    6    0    0  0.41728674581E+01  0.34532922553E+02 -0.19359245515E+02  0.39808490926E+02  0.00000000000E+00 0.  1.
</event>
<event>
12    1  0.8728348E-002  0.1770917E+03  0.7818608E-02  0.1170893E+00
         21   -1    0    0  501  502  0.00000000000E+00  0.00000000000E+00  0.12690779380E+04  0.12690779380E+04  0.00000000000E+00 0.  1.
         21   -1    0    0  502  503 -0.00000000000E+00 -0.00000000000E+00 -0.33640248556E+02  0.33640248556E+02  0.00000000000E+00 0.  1.
         -6    2    1    2    0  503  0.24251928754E+02 -0.23567402640E+02  0.28083835636E+03  0.33201154141E+03  0.17383297359E+03 0.  0.
        -24    2    3    3    0    0  0.53722433361E+01 -0.22678528405E+02  0.29587499817E+03  0.30740619208E+03  0.80083554728E+02 0.  0.
          6    2    1    2  501    0 -0.24251928754E+02  0.23567402640E+02  0.95459933311E+03  0.97070664517E+03  0.17282339454E+03 0.  0.
         24    2    5    5    0    0 -0.74127821167E+02 -0.17975621444E+02  0.63597484039E+03  0.64550350119E+03  0.79954459592E+02 0.  0.
          5    1    5    5  501    0  0.49875892412E+02  0.41543024084E+02  0.31862449272E+03  0.32520314398E+03  0.47000000000E+01 0. -1.
        -11    1    6    6    0    0 -0.38010881118E+01 -0.37247276512E+02  0.20052204221E+03  0.20398749298E+03  0.00000000000E+00 0.  1.
         12    1    6    6    0    0 -0.70326733055E+02  0.19271655068E+02  0.43545279818E+03  0.44151600822E+03  0.00000000000E+00 0. -1.
         -5    1    3    3    0  503  0.18879685418E+02 -0.88887423471E+00 -0.15036641805E+02  0.24605349331E+02  0.47000000000E+01 0.  1.
         13    1    4    4    0    0  0.22404904588E+01 -0.29235235655E+02  0.31888406899E+02  0.43319617910E+02  0.00000000000E+00 0. -1.
        -14    1    4    4    0    0  0.31317528772E+01  0.65567072503E+01  0.26398659127E+03  0.26408657417E+03  0.00000000000E+00 0.  1.
</event>
<event>
12    1  0.8728348E-002  0.2434556E+03  0.7818608E-02  0.1118274E+00
         21   -1    0    0  503  502  0.00000000000E+00  0.00000000000E+00  0.12990665167E+03  0.12990665167E+03  0.00000000000E+00 0.  1.
         21   -1    0    0  501  503 -0.00000000000E+00 -0.00000000000E+00 -0.64708292840E+03  0.64708292840E+03  0.00000000000E+00 0.  1.
          6    2    1    2  501    0  0.68802793532E+02 -0.15032037136E+03 -0.47254522005E+03  0.52947679981E+03  0.17238520268E+03 0.  0.
         24    2    3    3    0    0 -0.15864177142E+02 -0.22814053920E+02 -0.18796940951E+03  0.20631764574E+03  0.80388549327E+02 0.  0.
         -6    2    1    2    0  502 -0.68802793532E+02  0.15032037136E+03 -0.44631056683E+02  0.24751278026E+03  0.17871935186E+03 0.  0.
        -24    2    5    5    0    0  0.68660508273E+01  0.51836304574E+02 -0.72997136931E+02  0.12003097793E+03  0.79653678742E+02 0.  0.
          5    1    3    3  501    0  0.84666970675E+02 -0.12750631744E+03 -0.28457581055E+03  0.32315915407E+03  0.47000000000E+01 0. -1.
        -11    1    4    4    0    0 -0.33775617658E+02 -0.42266130593E+02 -0.91587495861E+02  0.10637428045E+03  0.00000000000E+00 0.  1.
         12    1    4    4    0    0  0.17911440516E+02  0.19452076673E+02 -0.96381913645E+02  0.99943365293E+02  0.00000000000E+00 0. -1.
         -5    1    5    5    0  502 -0.75668844360E+02  0.98484066783E+02  0.28366080248E+02  0.12748180233E+03  0.47000000000E+01 0.  1.
         11    1    6    6    0    0  0.22624055564E+02 -0.74261150043E+01  0.11161402241E+01  0.23837802819E+02  0.00000000000E+00 0. -1.
        -12    1    6    6    0    0 -0.15758004737E+02  0.59262419579E+02 -0.74113277155E+02  0.96193175113E+02  0.00000000000E+00 0.  1.
</event>
<event>
12    1  0.8728348E-002  0.1841380E+03  0.7818608E-02  0.1164905E+00
         21   -1    0    0  503  502  0.00000000000E+00  0.00000000000E+00  0.45276513669E+02  0.45276513669E+02  0.00000000000E+00 0.  1.
         21   -1    0    0  501  503 -0.00000000000E+00 -0.00000000000E+00 -0.13210663817E+04  0.13210663817E+04  0.00000000000E+00 0.  1.
          6    2    1    2  501    0  0.50937485595E+02 -0.22276197856E+01 -0.10986976370E+04  0.11140212267E+04  0.17693842511E+03 0.  0.
         24    2    3    3    0    0  0.15820790632E+02  0.39860641168E+02 -0.29951620479E+03  0.31294841132E+03  0.79922356584E+02 0.  0.
         -6    2    1    2    0  502 -0.50937485595E+02  0.22276197856E+01 -0.17709223109E+03  0.25232166872E+03  0.17235131698E+03 0.  0.
        -24    2    5    5    0    0 -0.26518619058E+02  0.33505659494E+02 -0.19043570296E+03  0.21019406432E+03  0.78037948080E+02 0.  0.
          5    1    3    3  501    0  0.35116694963E+02 -0.42088260954E+02 -0.79918143218E+03  0.80107281537E+03  0.47000000000E+01 0. -1.
        -13    1    4    4    0    0  0.13926387458E+02  0.28158964358E+02 -0.29945090955E+03  0.30109420248E+03  0.00000000000E+00 0.  1.
         14    1    4    4    0    0  0.18944031743E+01  0.11701676810E+02 -0.65295244893E-01  0.11854208832E+02  0.00000000000E+00 0. -1.
         -5    1    5    5    0  502 -0.24418866537E+02 -0.31278039709E+02  0.13343471865E+02  0.42127604399E+02  0.47000000000E+01 0.  1.
         11    1    6    6    0    0  0.57499273643E+01  0.80201934556E+01  0.45879553303E+01  0.10882761684E+02  0.00000000000E+00 0. -1.
        -12    1    6    6    0    0 -0.32268546422E+02  0.25485466039E+02 -0.19502365829E+03  0.19931130264E+03  0.00000000000E+00 0.  1.
</event>
<event>
12    1  0.8728348E-002  0.1773650E+03  0.7818608E-02  0.1170548E+00
         21   -1    0    0  501  502  0.00000000000E+00  0.00000000000E+00  0.70191332845E+02  0.70191332845E+02  0.00000000000E+00 0.  1.
         21   -1    0    0  502  503 -0.00000000000E+00 -0.00000000000E+00 -0.47073233050E+03  0.47073233050E+03  0.00000000000E+00 0.  1.
         -6    2    1    2    0  503 -0.23553420780E+02 -0.33998184287E+02 -0.26133773746E+03  0.31545553739E+03  0.17176770035E+03 0.  0.
        -24    2    3    3    0    0 -0.47699007719E+02  0.19532408903E+02 -0.22935958525E+03  0.24842400754E+03  0.80324080080E+02 0.  0.
          6    2    1    2  501    0  0.23553420780E+02  0.33998184287E+02 -0.13920326019E+03  0.22546812595E+03  0.17247518084E+03 0.  0.
         24    2    5    5    0    0 -0.20823939825E+02  0.59965033083E+02 -0.33466996219E+02  0.10779963021E+03  0.80444258809E+02 0.  0.
          5    1    5    5  501    0  0.44377360605E+02 -0.25966848796E+02 -0.10573626397E+03  0.11766849574E+03  0.47000000000E+01 0. -1.
        -13    1    6    6    0    0 -0.90272402224E+01  0.11651660511E+01  0.23427899478E+02  0.25133944217E+02  0.00000000000E+00 0.  1.
         14    1    6    6    0    0 -0.11796699602E+02  0.58799867032E+02 -0.56894895697E+02  0.82665685994E+02  0.00000000000E+00 0. -1.
         -5    1    3    3    0  503  0.24145586939E+02 -0.53530593190E+02 -0.31978152215E+02  0.67031529857E+02  0.47000000000E+01 0.  1.
         11    1    4    4    0    0 -0.32675533256E+02 -0.38981540639E+01 -0.22886597575E+02  0.40083443305E+02  0.00000000000E+00 0. -1.
        -12    1    4    4    0    0 -0.15023474463E+02  0.23430562967E+02 -0.20647298767E+03  0.20834056423E+03  0.00000000000E+00 0.  1.
</event>
<event>
12    1  0.8728348E-002  0.2050058E+03  0.7818608E-02  0.1145748E+00
         21   -1    0    0  503  502  0.00000000000E+00  0.00000000000E+00  0.66789312977E+03  0.66789312977E+03  0.00000000000E+00 0.  1.
         21   -1    0    0  501  503 -0.00000000000E+00 -0.00000000000E+00 -0.70935672364E+02  0.70935672364E+02  0.00000000000E+00 0.  1.
          6    2    1    2  501    0  0.42990021627E+02  0.10245764044E+03  0.17192250959E+03  0.26693677270E+03  0.17132478301E+03 0.  0.
         24    2    3    3    0    0 -0.23931762969E+02  0.10504675948E+03  0.13227203544E+03  0.18896575956E+03  0.81268788418E+02 0.  0.
         -6    2    1    2    0  502 -0.42990021627E+02 -0.10245764044E+03  0.42503494782E+03  0.47189202944E+03  0.17228369200E+03 0.  0.
        -24    2    5    5    0    0  0.27795595386E+02 -0.17977840749E+02  0.12131144457E+03  0.14875506690E+03  0.79472042014E+02 0.  0.
          5    1    3    3  501    0  0.66921784596E+02 -0.25891190314E+01  0.39650474143E+02  0.77971013144E+02  0.47000000000E+01 0. -1.
        -13    1    4    4    0    0  0.28776614651E+02  0.37887274118E+02  0.32320211427E+02  0.57516390339E+02  0.00000000000E+00 0.  1.
         14    1    4    4    0    0 -0.52708377620E+02  0.67159485357E+02  0.99951824015E+02  0.13144936922E+03  0.00000000000E+00 0. -1.
         -5    1    5    5    0  502 -0.70785617013E+02 -0.84479799694E+02  0.30372350325E+03  0.32313696254E+03  0.47000000000E+01 0.  1.
         13    1    6    6    0    0  0.45718338295E+01  0.31164291598E+02  0.39253301737E+02  0.50328286605E+02  0.00000000000E+00 0. -1.
        -14    1    6    6    0    0  0.23223761556E+02 -0.49142132348E+02  0.82058142838E+02  0.98426780291E+02  0.00000000000E+00 0.  1.
</event>
<event>
12    1  0.8728348E-002  0.2057971E+03  0.7818608E-02  0.1145107E+00
         21   -1    0    0  501  502  0.00000000000E+00  0.00000000000E+00  0.35491217434E+03  0.35491217434E+03  0.00000000000E+00 0. -1.
         21   -1    0    0  502  503 -0.00000000000E+00 -0.00000000000E+00 -0.14210072484E+03  0.14210072484E+03  0.00000000000E+00 0. -1.
         -6    2    1    2    0  503  0.95281559538E+02 -0.59392592332E+02  0.57074473689E+01  0.20504624291E+03  0.17147982728E+03 0.  0.
        -24    2    3    3    0    0  0.12691159829E+03 -0.63144503781E+02 -0.24461460653E+02  0.16092380868E+03  0.72141021666E+02 0.  0.
          6    2    1    2  501    0 -0.95281559538E+02  0.59392592332E+02  0.20710400213E+03  0.29196665628E+03  0.17247146161E+03 0.  0.
         24    2    5    5    0    0 -0.26971322376E+02 -0.88550310134E+01  0.87303002788E+02  0.13802382261E+03  0.10306744155E+03 0.  0.
          5    1    5    5  501    0 -0.68310237162E+02  0.68247623346E+02  0.11980099934E+03  0.15394283367E+03  0.47000000000E+01 0. -1.
        -11    1    6    6    0    0 -0.49847571638E+02 -0.34707738946E+02  0.22827284178E+02  0.64888307451E+02  0.00000000000E+00 0.  1.
         12    1    6    6    0    0  0.22876249262E+02  0.25852707933E+02  0.64475718610E+02  0.73135515163E+02  0.00000000000E+00 0. -1.
         -5    1    3    3    0  503 -0.31630038747E+02  0.37519114483E+01  0.30168908022E+02  0.44122434225E+02  0.47000000000E+01 0.  1.
         13    1    4    4    0    0  0.40992221233E+02 -0.17074159148E+02 -0.42854618775E+02  0.61712295878E+02  0.00000000000E+00 0. -1.
        -14    1    4    4    0    0  0.85919377052E+02 -0.46070344632E+02  0.18393158121E+02  0.99211512806E+02  0.00000000000E+00 0.  1.
</event>
<event>
12    1  0.8728348E-002  0.2074038E+03  0.7818608E-02  0.1143826E+00
         21   -1    0    0  501  502  0.00000000000E+00  0.00000000000E+00  0.16553270815E+04  0.16553270815E+04  0.00000000000E+00 0.  1.
         21   -1    0    0  502  503 -0.00000000000E+00 -0.00000000000E+00 -0.26974646474E+02  0.26974646474E+02  0.00000000000E+00 0.  1.
         -6    2    1    2    0  503  0.11070140004E+03 -0.31494933013E+02  0.98262688761E+03  0.10040850721E+04  0.17141908006E+03 0.  0.
        -24    2    3    3    0    0  0.78658890156E+01 -0.57265280920E+02  0.54233724630E+03  0.55118738896E+03  0.79603168387E+02 0.  0.
          6    2    1    2  501    0 -0.11070140004E+03  0.31494933013E+02  0.64572554746E+03  0.67821665590E+03  0.17253874616E+03 0.  0.
         24    2    5    5    0    0 -0.11745672819E+03  0.52586774203E+02  0.34961829558E+03  0.38124511713E+03  0.80953288489E+02 0.  0.
          5    1    5    5  501    0  0.67553281486E+01 -0.21091841190E+02  0.29610725188E+03  0.29697153877E+03  0.47000000000E+01 0. -1.
        -11    1    6    6    0    0 -0.44648801262E+02  0.12861540917E+02  0.41971475888E+02  0.62614211463E+02  0.00000000000E+00 0.  1.
         12    1    6    6    0    0 -0.72807926925E+02  0.39725233285E+02  0.30764681969E+03  0.31863090567E+03  0.00000000000E+00 0. -1.
         -5    1    3    3    0  503  0.10283551102E+03  0.25770347908E+02  0.44028964131E+03  0.45289768315E+03  0.47000000000E+01 0.  1.
         13    1    4    4    0    0 -0.12524195371E+02 -0.44378627577E+02  0.50253851754E+03  0.50464966033E+03  0.00000000000E+00 0. -1.
        -14    1    4    4    0    0  0.20390084386E+02 -0.12886653343E+02  0.39798728756E+02  0.46537728632E+02  0.00000000000E+00 0.  1.
</event>
<event>
12    1  0.8728348E-002  0.1857272E+03  0.7818608E-02  0.1162732E+00
         21   -1    0    0  503  502  0.00000000000E+00  0.00000000000E+00  0.10003285033E+03  0.10003285033E+03  0.00000000000E+00 0.  1.
         21   -1    0    0  501  503 -0.00000000000E+00 -0.00000000000E+00 -0.63051220229E+03  0.63051220229E+03  0.00000000000E+00 0. -1.
          6    2    1    2  501    0 -0.66523304457E+02 -0.25912004851E+02 -0.51173786898E+03  0.54387466890E+03  0.16978582656E+03 0.  0.
         24    2    3    3    0    0  0.11872399066E+02 -0.20168618534E+02 -0.11028385716E+03  0.13477042006E+03  0.73843144168E+02 0.  0.
         -6    2    1    2    0  502  0.66523304457E+02  0.25912004851E+02 -0.18741482982E+02  0.18667038372E+03  0.17145788679E+03 0.  0.
        -24    2    5    5    0    0  0.61206740437E+02  0.81582811156E+02 -0.76138273513E+01  0.12945658078E+03  0.79366339139E+02 0.  0.
          5    1    3    3  501    0 -0.78395703522E+02 -0.57433863170E+01 -0.40145401182E+03  0.40910424884E+03  0.47000000000E+01 0. -1.
        -13    1    4    4    0    0 -0.25501974165E+02 -0.44821530467E-01 -0.76131707464E+02  0.80289411361E+02  0.00000000000E+00 0.  1.
         14    1    4    4    0    0  0.37374373231E+02 -0.20123797004E+02 -0.34152149694E+02  0.54481008700E+02  0.00000000000E+00 0. -1.
         -5    1    5    5    0  502  0.53165640194E+01 -0.55670806305E+02 -0.11127655631E+02  0.57213802945E+02  0.47000000000E+01 0.  1.
         11    1    6    6    0    0  0.38120408702E+02  0.34142833307E+02 -0.42234542357E+02  0.66352507066E+02  0.00000000000E+00 0. -1.
        -12    1    6    6    0    0  0.23086331735E+02  0.47439977849E+02  0.34620715006E+02  0.63104073710E+02  0.00000000000E+00 0.  1.
</event>
<event>
12    1  0.8728348E-002  0.2564204E+03  0.7818608E-02  0.1109451E+00
         21   -1    0    0  503  502  0.00000000000E+00  0.00000000000E+00  0.44293839069E+03  0.44293839069E+03  0.00000000000E+00 0. -1.
         21   -1    0    0  501  503 -0.00000000000E+00 -0.00000000000E+00 -0.22391281907E+03  0.22391281907E+03  0.00000000000E+00 0. -1.
          6    2    1    2  501    0  0.16179654954E+03 -0.98471824280E+02 -0.84854531539E+02  0.26924017647E+03  0.17150847642E+03 0.  0.
         24    2    3    3    0    0  0.28092805818E+02 -0.85635608944E+02 -0.55884526258E+02  0.13175268353E+03  0.78185843246E+02 0.  0.
         -6    2    1    2    0  502 -0.16179654954E+03  0.98471824280E+02  0.30388010316E+03  0.39761103328E+03  0.17284846853E+03 0.  0.
        -24    2    5    5    0    0 -0.18734158943E+03  0.60320355594E+02  0.24923367773E+03  0.32608198018E+03  0.74004157010E+02 0.  0.
          5    1    3    3  501    0  0.13370374372E+03 -0.12836215336E+02 -0.28970005281E+02  0.13748749294E+03  0.47000000000E+01 0. -1.
        -11    1    4    4    0    0 -0.23863544905E+02 -0.44853109974E+02 -0.11255473429E+02  0.52038023904E+02  0.00000000000E+00 0.  1.
         12    1    4    4    0    0  0.51956350723E+02 -0.40782498970E+02 -0.44629052829E+02  0.79714659625E+02  0.00000000000E+00 0. -1.
         -5    1    5    5    0  502  0.25545039889E+02  0.38151468686E+02  0.54646425430E+02  0.71529053105E+02  0.47000000000E+01 0.  1.
         13    1    6    6    0    0 -0.10167443200E+03  0.45253669717E+02  0.19211612639E+03  0.22202295099E+03  0.00000000000E+00 0. -1.
        -14    1    6    6    0    0 -0.85667157432E+02  0.15066685877E+02  0.57117551334E+02  0.10405902919E+03  0.00000000000E+00 0.  1.
</event>
<event>
12    1  0.8728348E-002  0.1759820E+03  0.7818608E-02  0.1171838E+00
         21   -1    0    0  503  502  0.00000000000E+00  0.00000000000E+00  0.14279199133E+03  0.14279199133E+03  0.00000000000E+00 0.  1.
         21   -1    0    0  501  503 -0.00000000000E+00 -0.00000000000E+00 -0.45349517221E+03  0.45349517221E+03  0.00000000000E+00 0.  1.
          6    2    1    2  501    0 -0.27257221555E+02 -0.23264039965E+02 -0.37098080108E+03  0.41060496307E+03  0.17229483231E+03 0.  0.
         24    2    3    3    0    0 -0.34721024676E+02 -0.70115944051E+02 -0.32859498142E+03  0.34681266744E+03  0.78629315866E+02 0.  0.
         -6    2    1    2    0  502  0.27257221555E+02  0.23264039965E+02  0.60277620209E+02  0.18568220047E+03  0.17193113852E+03 0.  0.
        -24    2    5    5    0    0 -0.19687765689E+02 -0.27783055314E+01 -0.25148891600E+02  0.84678168343E+02  0.78374730276E+02 0.  0.
          5    1    3    3  501    0  0.74638031210E+01  0.46851904086E+02 -0.42385819658E+02  0.63792295629E+02  0.47000000000E+01 0. -1.
        -13    1    4    4    0    0 -0.10945719877E+02 -0.43129980029E+02 -0.29247487995E+03  0.29584042889E+03  0.00000000000E+00 0.  1.
         14    1    4    4    0    0 -0.23775304800E+02 -0.26985964022E+02 -0.36120101471E+02  0.50972238550E+02  0.00000000000E+00 0. -1.
         -5    1    5    5    0  502  0.46944987244E+02  0.26042345496E+02  0.85426511809E+02  0.10100403213E+03  0.47000000000E+01 0.  1.
         13    1    6    6    0    0  0.29201053678E+02  0.37828793612E+00  0.85078374097E+00  0.29215894145E+02  0.00000000000E+00 0. -1.
        -14    1    6    6    0    0 -0.48888819367E+02 -0.31565934676E+01 -0.25999675341E+02  0.55462274198E+02  0.00000000000E+00 0.  1.
</event>
<event>
12    1  0.8728348E-002  0.2383036E+03  0.7818608E-02  0.1120975E+00
         21   -1    0    0  501  502  0.00000000000E+00  0.00000000000E+00  0.19579388247E+03  0.19579388247E+03  0.00000000000E+00 0. -1.
         21   -1    0    0  502  503 -0.00000000000E+00 -0.00000000000E+00 -0.51069232041E+03  0.51069232041E+03  0.00000000000E+00 0. -1.
         -6    2    1    2    0  503  0.54327600142E+02 -0.15525587628E+03 -0.38986904498E+03  0.45693157537E+03  0.17243177516E+03 0.  0.
        -24    2    3    3    0    0  0.23062724069E+02 -0.38809198248E+02 -0.27670944471E+03  0.29150936878E+03  0.79822003155E+02 0.  0.
          6    2    1    2  501    0 -0.54327600142E+02  0.15525587628E+03  0.74970607045E+02  0.24955462751E+03  0.17204954209E+03 0.  0.
         24    2    5    5    0    0 -0.43389428801E+02  0.18452310634E+03  0.59461729489E+02  0.21435761583E+03  0.80511309039E+02 0.  0.
          5    1    5    5  501    0 -0.10938171341E+02 -0.29267230065E+02  0.15508877556E+02  0.35197011677E+02  0.47000000000E+01 0. -1.
        -13    1    6    6    0    0  0.54539095912E+01  0.74421153579E+02 -0.10041875161E+02  0.75293376114E+02  0.00000000000E+00 0.  1.
         14    1    6    6    0    0 -0.48843338392E+02  0.11010195277E+03  0.69503604650E+02  0.13906423971E+03  0.00000000000E+00 0. -1.
         -5    1    3    3    0  503  0.31264876072E+02 -0.11644667803E+03 -0.11315960027E+03  0.16542220659E+03  0.47000000000E+01 0.  1.
         11    1    4    4    0    0  0.38202222317E+02 -0.49306030378E+02 -0.13626830765E+03  0.14986509297E+03  0.00000000000E+00 0. -1.
        -12    1    4    4    0    0 -0.15139498248E+02  0.10496832130E+02 -0.14044113706E+03  0.14164427581E+03  0.00000000000E+00 0.  1.
</event>
<event>
12    1  0.8728348E-002  0.2116080E+03  0.7818608E-02  0.1141530E+00
         21   -1    0    0  501  502  0.00000000000E+00  0.00000000000E+00  0.11329595094E+03  0.11329595094E+03  0.00000000000E+00 0.  1.
         21   -1    0    0  502  503 -0.00000000000E+00 -0.00000000000E+00 -0.39216563889E+03  0.39216563889E+03  0.00000000000E+00 0.  1.
         -6    2    1    2    0  503  0.88281335217E+02  0.84607885662E+02 -0.17843523812E+03  0.27679793858E+03  0.17270169696E+03 0.  0.
        -24    2    3    3    0    0  0.80213692379E+02  0.19791597717E+02 -0.36511601270E+02  0.12049487801E+03  0.79749450250E+02 0.  0.
          6    2    1    2  501    0 -0.88281335217E+02 -0.84607885662E+02 -0.10043444983E+03  0.22866365126E+03  0.16506937400E+03 0.  0.
         24    2    5    5    0    0  0.14181013721E+01 -0.23396715841E+02 -0.11067129151E+02  0.87946188803E+02  0.84039475568E+02 0.  0.
          5    1    5    5  501    0 -0.89699436590E+02 -0.61211169821E+02 -0.89367320678E+02  0.14071746246E+03  0.47000000000E+01 0. -1.
        -13    1    6    6    0    0 -0.18063726357E+02 -0.48687682290E+02  0.50653130130E+01  0.52177064048E+02  0.00000000000E+00 0.  1.
         14    1    6    6    0    0  0.19481827729E+02  0.25290966449E+02 -0.16132442164E+02  0.35769124755E+02  0.00000000000E+00 0. -1.
         -5    1    3    3    0  503  0.80676428382E+01  0.64816287945E+02 -0.14192363685E+03  0.15630306056E+03  0.47000000000E+01 0.  1.
         13    1    4    4    0    0  0.37254493086E+02 -0.30845193685E+02 -0.17292677377E+02  0.51364967823E+02  0.00000000000E+00 0. -1.
        -14    1    4    4    0    0  0.42959199293E+02  0.50636791403E+02 -0.19218923893E+02  0.69129910191E+02  0.00000000000E+00 0.  1.
</event>
<event>
12    1  0.8728348E-002  0.1750988E+03  0.7818608E-02  0.1173988E+00
         21   -1    0    0  501  502  0.00000000000E+00  0.00000000000E+00  0.62950061407E+03  0.62950061407E+03  0.00000000000E+00 0.  1.
         21   -1    0    0  502  503 -0.00000000000E+00 -0.00000000000E+00 -0.13923951217E+03  0.13923951217E+03  0.00000000000E+00 0.  1.
         -6    2    1    2    0  503  0.20382150673E+02 -0.15729036449E+02 -0.66015719858E+02  0.18713010316E+03  0.17319574356E+03 0.  0.
        -24    2    3    3    0    0 -0.46499209804E+02 -0.18716907182E+02 -0.17483708256E+02  0.10430806563E+03  0.89788603813E+02 0.  0.
          6    2    1    2  501    0 -0.20382150673E+02  0.15729036449E+02  0.55627682176E+03  0.58161002307E+03  0.16781978984E+03 0.  0.
         24    2    5    5    0    0 -0.49808767270E+02 -0.10310996907E+02  0.18191130547E+03  0.20515864655E+03  0.80069452619E+02 0.  0.
          5    1    5    5  501    0  0.29426616598E+02  0.26040033357E+02  0.37436551628E+03  0.37645137652E+03  0.47000000000E+01 0. -1.
        -11    1    6    6    0    0 -0.13377083877E+02  0.15769708074E+02  0.14676218238E+03  0.14821190318E+03  0.00000000000E+00 0.  1.
         12    1    6    6    0    0 -0.36431683393E+02 -0.26080704982E+02  0.35149123092E+02  0.56946743377E+02  0.00000000000E+00 0. -1.
         -5    1    3    3    0  503  0.66881360476E+02  0.29878707331E+01 -0.48532011601E+02  0.82822037531E+02  0.47000000000E+01 0.  1.
         13    1    4    4    0    0 -0.59433085412E+02 -0.39585398223E+02 -0.29144814849E+02  0.77127917297E+02  0.00000000000E+00 0. -1.
        -14    1    4    4    0    0  0.12933875608E+02  0.20868491040E+02  0.11661106592E+02  0.27180148335E+02  0.00000000000E+00 0.  1.
</event>
<event>
12    1  0.8728348E-002  0.1875223E+03  0.7818608E-02  0.1160737E+00
         21   -1    0    0  501  502  0.00000000000E+00  0.00000000000E+00  0.46738419442E+03  0.46738419442E+03  0.00000000000E+00 0.  1.
         21   -1    0    0  502  503 -0.00000000000E+00 -0.00000000000E+00 -0.81528282948E+02  0.81528282948E+02  0.00000000000E+00 0.  1.
         -6    2    1    2    0  503  0.65149401520E+02  0.34659967337E+02  0.11640850148E+03  0.22063438243E+03  0.17228706753E+03 0.  0.
        -24    2    3    3    0    0  0.92467935289E+02  0.70966267529E+02  0.92139329720E+02  0.16890883343E+03  0.80336839288E+02 0.  0.
          6    2    1    2  501    0 -0.65149401520E+02 -0.34659967337E+02  0.26944740999E+03  0.32827809494E+03  0.17239153985E+03 0.  0.
         24    2    5    5    0    0 -0.11445198754E+03 -0.24514502498E+02  0.21956351385E+03  0.25725578479E+03  0.65361945408E+02 0.  0.
          5    1    5    5  501    0  0.49302586021E+02 -0.10145464838E+02  0.49883896140E+02  0.71022310152E+02  0.47000000000E+01 0. -1.
        -11    1    6    6    0    0 -0.74914320498E+02 -0.46667807209E+02  0.13452866597E+03  0.16089748790E+03  0.00000000000E+00 0.  1.
         12    1    6    6    0    0 -0.39537667043E+02  0.22153304710E+02  0.85034847881E+02  0.96358296887E+02  0.00000000000E+00 0. -1.
         -5    1    3    3    0  503 -0.27318533769E+02 -0.36306300192E+02  0.24269171762E+02  0.51725548996E+02  0.47000000000E+01 0.  1.
         11    1    4    4    0    0  0.14015761988E+02 -0.13671219850E+02  0.35067737079E+02  0.40163291949E+02  0.00000000000E+00 0. -1.
        -12    1    4    4    0    0  0.78452173301E+02  0.84637487379E+02  0.57071592641E+02  0.12874554148E+03  0.00000000000E+00 0.  1.
</event>
<event>
12    1  0.8728348E-002  0.1895391E+03  0.7818608E-02  0.1159695E+00
         21   -1    0    0  503  502  0.00000000000E+00  0.00000000000E+00  0.57062872529E+03  0.57062872529E+03  0.00000000000E+00 0.  1.
         21   -1    0    0  501  503 -0.00000000000E+00 -0.00000000000E+00 -0.92779883565E+02  0.92779883565E+02  0.00000000000E+00 0.  1.
          6    2    1    2  501    0 -0.44486893082E+02  0.62794946668E+02  0.45664873105E+02  0.19148904923E+03  0.16929408246E+03 0.  0.
         24    2    3    3    0    0 -0.54858108898E+02  0.10162933708E+03  0.54110068039E+02  0.15014798837E+03  0.79237520662E+02 0.  0.
         -6    2    1    2    0  502  0.44486893082E+02 -0.62794946668E+02  0.43218396862E+03  0.47191955962E+03  0.17321316071E+03 0.  0.
        -24    2    5    5    0    0  0.36203499974E+02 -0.86693303397E+02  0.42913700498E+03  0.44601357493E+03  0.77091618947E+02 0.  0.
          5    1    3    3  501    0  0.10371215816E+02 -0.38834390408E+02 -0.84451949343E+01  0.41341060864E+02  0.47000000000E+01 0. -1.
        -13    1    4    4    0    0 -0.67956626489E+02  0.47615894494E+02  0.43043695529E+02  0.93477998572E+02  0.00000000000E+00 0.  1.
         14    1    4    4    0    0  0.13098517591E+02  0.54013442582E+02  0.11066372511E+02  0.56669989793E+02  0.00000000000E+00 0. -1.
         -5    1    5    5    0  502  0.82833931081E+01  0.23898356729E+02  0.30469636393E+01  0.25905984697E+02  0.47000000000E+01 0.  1.
         11    1    6    6    0    0 -0.59651586472E+01  0.11003824044E+02  0.23194149047E+02  0.26355944515E+02  0.00000000000E+00 0. -1.
        -12    1    6    6    0    0  0.42168658621E+02 -0.97697127441E+02  0.40594285593E+03  0.41965763041E+03  0.00000000000E+00 0.  1.
</event>
<event>
12    1  0.8728348E-002  0.2170912E+03  0.7818608E-02  0.1141847E+00
         21   -1    0    0  501  502  0.00000000000E+00  0.00000000000E+00  0.14170223859E+03  0.14170223859E+03  0.00000000000E+00 0. -1.
         21   -1    0    0  502  503 -0.00000000000E+00 -0.00000000000E+00 -0.48742492589E+03  0.48742492589E+03  0.00000000000E+00 0. -1.
         -6    2    1    2    0  503 -0.89966023693E+02  0.39226653111E+02 -0.36524609632E+03  0.41115987765E+03  0.16129202827E+03 0.  0.
        -24    2    3    3    0    0 -0.51235017669E+02 -0.35887764232E+02 -0.22611485135E+03  0.24830454355E+03  0.81328111311E+02 0.  0.
          6    2    1    2  501    0  0.89966023693E+02 -0.39226653111E+02  0.19523409018E+02  0.21796728682E+03  0.19363873293E+03 0.  0.
         24    2    5    5    0    0  0.11769728371E+03 -0.74173517053E+02 -0.15865101070E+02  0.16082935960E+03  0.79120289764E+02 0.  0.
          5    1    5    5  501    0 -0.27731260016E+02  0.34946863942E+02  0.35388510087E+02  0.57137927226E+02  0.47000000000E+01 0. -1.
        -11    1    6    6    0    0  0.91819126465E+02 -0.22356372867E+02 -0.33533172163E+02  0.10027478760E+03  0.00000000000E+00 0.  1.
         12    1    6    6    0    0  0.25878157244E+02 -0.51817144186E+02  0.17668071093E+02  0.60554572000E+02  0.00000000000E+00 0. -1.
         -5    1    3    3    0  503 -0.38731006024E+02  0.75114417343E+02 -0.13913124497E+03  0.16285533411E+03  0.47000000000E+01 0.  1.
         13    1    4    4    0    0 -0.92751286836E+01  0.13798960549E+02 -0.13687934632E+03  0.13788544076E+03  0.00000000000E+00 0. -1.
        -14    1    4    4    0    0 -0.41959888985E+02 -0.49686724780E+02 -0.89235505028E+02  0.11041910279E+03  0.00000000000E+00 0.  1.
</event>
<event>
12    1  0.8728348E-002  0.1838863E+03  0.7818608E-02  0.1164282E+00
         21   -1    0    0  503  502  0.00000000000E+00  0.00000000000E+00  0.10770916252E+03  0.10770916252E+03  0.00000000000E+00 0.  1.
         21   -1    0    0  501  503 -0.00000000000E+00 -0.00000000000E+00 -0.34204881093E+03  0.34204881093E+03  0.00000000000E+00 0.  1.
          6    2    1    2  501    0 -0.35548436674E+02  0.55095931486E+02 -0.18340445140E+03  0.25971401949E+03  0.17179908646E+03 0.  0.
         24    2    3    3    0    0  0.17123993706E+02  0.74842644712E+02 -0.16789811140E+03  0.20117468070E+03  0.79917605798E+02 0.  0.
         -6    2    1    2    0  502  0.35548436674E+02 -0.55095931486E+02 -0.50935197007E+02  0.19004395397E+03  0.17094752741E+03 0.  0.
        -24    2    5    5    0    0  0.19102686168E+02  0.26033855966E+02  0.10314843950E+02  0.86960673853E+02  0.80081761444E+02 0.  0.
          5    1    3    3  501    0 -0.52672430381E+02 -0.19746713226E+02 -0.15506340004E+02  0.58539338788E+02  0.47000000000E+01 0. -1.
        -13    1    4    4    0    0 -0.83802722262E+01  0.75832116062E+02 -0.83979771725E+02  0.11346074585E+03  0.00000000000E+00 0.  1.
         14    1    4    4    0    0  0.25504265932E+02 -0.98947134993E+00 -0.83918339675E+02  0.87713934857E+02  0.00000000000E+00 0. -1.
         -5    1    5    5    0  502  0.16445750507E+02 -0.81129787452E+02 -0.61250040957E+02  0.10308328011E+03  0.47000000000E+01 0.  1.
         11    1    6    6    0    0  0.13948456116E+02  0.54235394677E+01  0.44367848870E+02  0.46823927876E+02  0.00000000000E+00 0. -1.
        -12    1    6    6    0    0  0.51542300520E+01  0.20610316498E+02 -0.34053004920E+02  0.40136745977E+02  0.00000000000E+00 0.  1.
</event>
<event>
12    1  0.8728348E-002  0.2745291E+03  0.7818608E-02  0.1098937E+00
         21   -1    0    0  503  502  0.00000000000E+00  0.00000000000E+00  0.60196025454E+03  0.60196025454E+03  0.00000000000E+00 0. -1.
         21   -1    0    0  501  503 -0.00000000000E+00 -0.00000000000E+00 -0.13540158197E+03  0.13540158197E+03  0.00000000000E+00 0.  1.
          6    2    1    2  501    0  0.21117865355E+03 -0.13637754670E+02  0.33859541538E+03  0.43590491490E+03  0.17488232457E+03 0.  0.
         24    2    3    3    0    0  0.53618417573E+02 -0.10422146340E+02  0.58073915662E+02  0.11411310347E+03  0.81643523110E+02 0.  0.
         -6    2    1    2    0  502 -0.21117865355E+03  0.13637754670E+02  0.12796325720E+03  0.30145692161E+03  0.17239277342E+03 0.  0.
        -24    2    5    5    0    0 -0.27367770675E+02  0.29366803264E+02  0.41744041026E+02  0.97766747891E+02  0.78767810852E+02 0.  0.
          5    1    3    3  501    0  0.15756023598E+03 -0.32156083301E+01  0.28052149972E+03  0.32179181143E+03  0.47000000000E+01 0. -1.
        -11    1    4    4    0    0  0.44939022391E+02  0.31697658492E+02  0.36465792468E+02  0.65984932429E+02  0.00000000000E+00 0.  1.
         12    1    4    4    0    0  0.86793951814E+01 -0.42119804832E+02  0.21608123194E+02  0.48128171041E+02  0.00000000000E+00 0. -1.
         -5    1    5    5    0  502 -0.18381088287E+03 -0.15729048595E+02  0.86219216170E+02  0.20369017372E+03  0.47000000000E+01 0.  1.
         11    1    6    6    0    0 -0.21178834202E+02 -0.17676222592E+02  0.42081174815E+02  0.50317165431E+02  0.00000000000E+00 0. -1.
        -12    1    6    6    0    0 -0.61889364734E+01  0.47043025857E+02 -0.33713378909E+00  0.47449582460E+02  0.00000000000E+00 0.  1.
</event>
<event>
12    1  0.8728348E-002  0.1768033E+03  0.7818608E-02  0.1171471E+00
         21   -1    0    0  501  502  0.00000000000E+00  0.00000000000E+00  0.92195652314E+03  0.92195652314E+03  0.00000000000E+00 0.  1.
         21   -1    0    0  502  503 -0.00000000000E+00 -0.00000000000E+00 -0.33500503211E+02  0.33500503211E+02  0.00000000000E+00 0.  1.
         -6    2    1    2    0  503  0.32366926458E+02 -0.18441475781E+02  0.43446065500E+03  0.46824946062E+03  0.17062763747E+03 0.  0.
        -24    2    3    3    0    0  0.13730171027E+02  0.54381816545E+02  0.20699393112E+03  0.22863777261E+03  0.79264392865E+02 0.  0.
          6    2    1    2  501    0 -0.32366926458E+02  0.18441475781E+02  0.45399536493E+03  0.48720756574E+03  0.17283435646E+03 0.  0.
         24    2    5    5    0    0 -0.54234687270E+01  0.37647274716E+02  0.11038179674E+03  0.14197259231E+03  0.80779605163E+02 0.  0.
          5    1    5    5  501    0 -0.26943457731E+02 -0.19205798935E+02  0.34361356820E+03  0.34523497342E+03  0.47000000000E+01 0. -1.
        -11    1    6    6    0    0  0.17209080896E+02  0.55929915977E+02  0.60118379052E+02  0.83895932358E+02  0.00000000000E+00 0.  1.
         12    1    6    6    0    0 -0.22632549623E+02 -0.18282641261E+02  0.50263417687E+02  0.58076659955E+02  0.00000000000E+00 0. -1.
         -5    1    3    3    0  503  0.18636755431E+02 -0.72823292326E+02  0.22746672388E+03  0.23961168801E+03  0.47000000000E+01 0.  1.
         11    1    4    4    0    0 -0.25448776259E+02  0.29190690484E+02  0.41711051622E+02  0.56917031295E+02  0.00000000000E+00 0. -1.
        -12    1    4    4    0    0  0.39178947286E+02  0.25191126061E+02  0.16528287950E+03  0.17172074131E+03  0.00000000000E+00 0.  1.
</event>
<event>
12    1  0.8728348E-002  0.1812472E+03  0.7818608E-02  0.1166680E+00
         21   -1    0    0  501  502  0.00000000000E+00  0.00000000000E+00  0.59681296484E+03  0.59681296484E+03  0.00000000000E+00 0. -1.
         21   -1    0    0  502  503 -0.00000000000E+00 -0.00000000000E+00 -0.62009689504E+02  0.62009689504E+02  0.00000000000E+00 0. -1.
         -6    2    1    2    0  503 -0.78897048924E+01 -0.58603095546E+02  0.15598957288E+03  0.23888172614E+03  0.17098292893E+03 0.  0.
        -24    2    3    3    0    0 -0.11614597959E+02 -0.94887664849E+02  0.65626527012E+02  0.14132141220E+03  0.80785720722E+02 0.  0.
          6    2    1    2  501    0  0.78897048924E+01  0.58603095546E+02  0.37881370245E+03  0.41994092820E+03  0.17133006671E+03 0.  0.
         24    2    5    5    0    0 -0.13489053269E+02 -0.16782670298E+02  0.96987473066E+02  0.12738635455E+03  0.79731429269E+02 0.  0.
          5    1    5    5  501    0  0.21378758161E+02  0.75385765843E+02  0.28182622939E+03  0.29255457365E+03  0.47000000000E+01 0. -1.
        -11    1    6    6    0    0 -0.17929275930E+00 -0.18635041823E+02  0.10825637026E+03  0.10984870792E+03  0.00000000000E+00 0.  1.
         12    1    6    6    0    0 -0.13309760510E+02  0.18523715254E+01 -0.11268897199E+02  0.17537646626E+02  0.00000000000E+00 0. -1.
         -5    1    3    3    0  503  0.37248930668E+01  0.36284569303E+02  0.90363045868E+02  0.97560313941E+02  0.47000000000E+01 0.  1.
         11    1    4    4    0    0 -0.13345543871E+02 -0.72367925971E+02  0.17931720749E+01  0.73610024566E+02  0.00000000000E+00 0. -1.
        -12    1    4    4    0    0  0.17309459114E+01 -0.22519738878E+02  0.63833354937E+02  0.67711387634E+02  0.00000000000E+00 0.  1.
</event>
<event>
12    1  0.8728348E-002  0.1915817E+03  0.7818608E-02  0.1157515E+00
         21   -1    0    0  503  502  0.00000000000E+00  0.00000000000E+00  0.13455200864E+03  0.13455200864E+03  0.00000000000E+00 0.  1.
         21   -1    0    0  501  503 -0.00000000000E+00 -0.00000000000E+00 -0.26984859094E+03  0.26984859094E+03  0.00000000000E+00 0.  1.
          6    2    1    2  501    0 -0.77171776945E+02  0.11946428429E+02 -0.70931452709E+02  0.20429103193E+03  0.17494386081E+03 0.  0.
         24    2    3    3    0    0  0.32402279212E+01  0.56127243817E+02 -0.21040943020E+02  0.99748275456E+02  0.79663232409E+02 0.  0.
         -6    2    1    2    0  502  0.77171776945E+02 -0.11946428429E+02 -0.64365129596E+02  0.20010956764E+03  0.17263478457E+03 0.  0.
        -24    2    5    5    0    0  0.77599641043E+02  0.46199176893E+02 -0.10648446679E+02  0.12080845473E+03  0.79531283664E+02 0.  0.
          5    1    3    3  501    0 -0.80412004866E+02 -0.44180815388E+02 -0.49890509690E+02  0.10454275648E+03  0.47000000000E+01 0. -1.
        -11    1    4    4    0    0  0.32389678351E+02  0.21589800056E+02  0.15230014935E+02  0.41799091917E+02  0.00000000000E+00 0.  1.
         12    1    4    4    0    0 -0.29149450430E+02  0.34537443762E+02 -0.36270957954E+02  0.57949183539E+02  0.00000000000E+00 0. -1.
         -5    1    5    5    0  502 -0.42786409850E+00 -0.58145605322E+02 -0.53716682917E+02  0.79301112915E+02  0.47000000000E+01 0.  1.
         11    1    6    6    0    0 -0.43602261321E+01  0.33720813434E+02 -0.16310015722E+02  0.37711025488E+02  0.00000000000E+00 0. -1.
        -12    1    6    6    0    0  0.81959867176E+02  0.12478363460E+02  0.56615690430E+01  0.83097429239E+02  0.00000000000E+00 0.  1.
</event>
<event>
12    1  0.8728348E-002  0.2091596E+03  0.7818608E-02  0.1142330E+00
         21   -1    0    0  503  502  0.00000000000E+00  0.00000000000E+00  0.44427956735E+03  0.44427956735E+03  0.00000000000E+00 0. -1.
         21   -1    0    0  501  503 -0.00000000000E+00 -0.00000000000E+00 -0.10118824096E+03  0.10118824096E+03  0.00000000000E+00 0. -1.
          6    2    1    2  501    0  0.11838563040E+03 -0.50016064029E+01  0.12518936241E+03  0.24376239516E+03  0.17235879810E+03 0.  0.
         24    2    3    3    0    0  0.28004212496E+01 -0.11890064562E+02  0.11203562469E+02  0.81213190248E+02  0.79503751256E+02 0.  0.
         -6    2    1    2    0  502 -0.11838563040E+03  0.50016064029E+01  0.21790196397E+03  0.30170541315E+03  0.17176937116E+03 0.  0.
        -24    2    5    5    0    0 -0.14302836241E+02  0.21580957073E+02  0.31374908273E+02  0.87409973591E+02  0.77368015235E+02 0.  0.
          5    1    3    3  501    0  0.11558520915E+03  0.68884581592E+01  0.11398579995E+03  0.16254920492E+03  0.47000000000E+01 0. -1.
        -13    1    4    4    0    0 -0.77492280755E+01  0.13077049908E+02 -0.28990656714E+02  0.32734048738E+02  0.00000000000E+00 0.  1.
         14    1    4    4    0    0  0.10549649325E+02 -0.24967114470E+02  0.40194219183E+02  0.48479141510E+02  0.00000000000E+00 0. -1.
         -5    1    5    5    0  502 -0.10408279416E+03 -0.16579350670E+02  0.18652705570E+03  0.21429543956E+03  0.47000000000E+01 0.  1.
         13    1    6    6    0    0 -0.31426854600E+02  0.21398759097E+02  0.49538145487E+02  0.62446632730E+02  0.00000000000E+00 0. -1.
        -14    1    6    6    0    0  0.17124018359E+02  0.18219797681E+00 -0.18163237215E+02  0.24963340862E+02  0.00000000000E+00 0.  1.
</event>
<event>
12    1  0.8728348E-002  0.2015480E+03  0.7818608E-02  0.1151582E+00
         21   -1    0    0  503  502  0.00000000000E+00  0.00000000000E+00  0.20899474176E+02  0.20899474176E+02  0.00000000000E+00 0.  1.
         21   -1    0    0  501  503 -0.00000000000E+00 -0.00000000000E+00 -0.18941571763E+04  0.18941571763E+04  0.00000000000E+00 0.  1.
          6    2    1    2  501    0 -0.40038522186E+02 -0.65812141575E+02 -0.11089882830E+04  0.11246584373E+04  0.17049125328E+03 0.  0.
         24    2    3    3    0    0  0.16203498237E+02 -0.24753545641E+02 -0.90365370541E+03  0.90778669657E+03  0.81310366989E+02 0.  0.
         -6    2    1    2    0  502  0.40038522186E+02  0.65812141575E+02 -0.76426941908E+03  0.79039821317E+03  0.18624518571E+03 0.  0.
        -24    2    5    5    0    0  0.45521038348E+02  0.39614561073E+02 -0.75494155827E+03  0.76166721606E+03  0.80985882958E+02 0.  0.
          5    1    3    3  501    0 -0.56242020423E+02 -0.41058595934E+02 -0.20533457760E+03  0.21687174072E+03  0.47000000000E+01 0. -1.
        -13    1    4    4    0    0  0.23220497897E+02 -0.52519500663E+02 -0.64554929277E+03  0.64809827871E+03  0.00000000000E+00 0.  1.
         14    1    4    4    0    0 -0.70169996600E+01  0.27765955022E+02 -0.25810441264E+03  0.25968841786E+03  0.00000000000E+00 0. -1.
         -5    1    5    5    0  502 -0.54825161624E+01  0.26197580502E+02 -0.93278608153E+01  0.28730997111E+02  0.47000000000E+01 0.  1.
         13    1    6    6    0    0 -0.21283942292E+02  0.15581050625E+01 -0.24956570740E+03  0.25047649830E+03  0.00000000000E+00 0. -1.
        -14    1    6    6    0    0  0.66804980640E+02  0.38056456011E+02 -0.50537585087E+03  0.51119071776E+03  0.00000000000E+00 0.  1.
</event>
<event>
12    1  0.8728348E-002  0.2643639E+03  0.7818608E-02  0.1104769E+00
         21   -1    0    0  501  502  0.00000000000E+00  0.00000000000E+00  0.17536152908E+03  0.17536152908E+03  0.00000000000E+00 0. -1.
         21   -1    0    0  502  503 -0.00000000000E+00 -0.00000000000E+00 -0.54704322796E+03  0.54704322796E+03  0.00000000000E+00 0.  1.
         -6    2    1    2    0  503  0.11252230249E+03  0.16565429546E+03  0.41469273514E+01  0.26290997548E+03  0.17029927786E+03 0.  0.
        -24    2    3    3    0    0  0.14511162305E+03  0.15444200396E+03 -0.62282538805E+01  0.22661240420E+03  0.80029212537E+02 0.  0.
          6    2    1    2  501    0 -0.11252230249E+03 -0.16565429546E+03 -0.37582862623E+03  0.45949478155E+03  0.17258529432E+03 0.  0.
         24    2    5    5    0    0 -0.49582091926E+02 -0.28721329308E+02 -0.77336656772E+02  0.12508238173E+03  0.79883322041E+02 0.  0.
          5    1    5    5  501    0 -0.62940210564E+02 -0.13693296615E+03 -0.29849196946E+03  0.33441239983E+03  0.47000000000E+01 0. -1.
        -13    1    6    6    0    0 -0.55085777237E+02 -0.30031924591E+02 -0.90863641411E+02  0.11041992881E+03  0.00000000000E+00 0.  1.
         14    1    6    6    0    0  0.55036853109E+01  0.13105952828E+01  0.13526984639E+02  0.14662452913E+02  0.00000000000E+00 0. -1.
         -5    1    3    3    0  503 -0.32589320560E+02  0.11212291496E+02  0.10375181232E+02  0.36297571279E+02  0.47000000000E+01 0.  1.
         11    1    4    4    0    0  0.11663143243E+03  0.15218687421E+03 -0.23585158655E+02  0.19318383840E+03  0.00000000000E+00 0. -1.
        -12    1    4    4    0    0  0.28480190620E+02  0.22551297561E+01  0.17356904774E+02  0.33428565798E+02  0.00000000000E+00 0.  1.
</event>
<event>
12    1  0.8728348E-002  0.1990881E+03  0.7818608E-02  0.1150674E+00
         21   -1    0    0  501  502  0.00000000000E+00  0.00000000000E+00  0.14334823591E+03  0.14334823591E+03  0.00000000000E+00 0.  1.
         21   -1    0    0  502  503 -0.00000000000E+00 -0.00000000000E+00 -0.37184422302E+03  0.37184422302E+03  0.00000000000E+00 0.  1.
         -6    2    1    2    0  503  0.60381533186E+02  0.77893381604E+02 -0.24524924565E+03  0.31540068997E+03  0.17209617745E+03 0.  0.
        -24    2    3    3    0    0  0.46700604278E+02  0.65060565023E+02 -0.57048526422E+02  0.12620912114E+03  0.79122590521E+02 0.  0.
          6    2    1    2  501    0 -0.60381533186E+02 -0.77893381604E+02  0.16753258544E+02  0.19979176896E+03  0.17298199567E+03 0.  0.
         24    2    5    5    0    0 -0.70027306123E+01 -0.91057427429E+02 -0.25315870759E+01  0.14134021691E+03  0.10784319476E+03 0.  0.
          5    1    5    5  501    0 -0.53378802573E+02  0.13164045825E+02  0.19284845620E+02  0.58451552052E+02  0.47000000000E+01 0. -1.
        -13    1    6    6    0    0 -0.30559911359E+02 -0.24953264709E+02  0.42475200946E+02  0.57971685307E+02  0.00000000000E+00 0.  1.
         14    1    6    6    0    0  0.23557180747E+02 -0.66104162721E+02 -0.45006788022E+02  0.83368531604E+02  0.00000000000E+00 0. -1.
         -5    1    3    3    0  503  0.13680928908E+02  0.12832816581E+02 -0.18820071923E+03  0.18919156883E+03  0.47000000000E+01 0.  1.
         11    1    4    4    0    0 -0.16070605275E+02  0.13913387762E+02  0.76223426305E+01  0.22582002128E+02  0.00000000000E+00 0. -1.
        -12    1    4    4    0    0  0.62771209553E+02  0.51147177261E+02 -0.64670869053E+02  0.10362711901E+03  0.00000000000E+00 0.  1.
</event>
<event>
12    1  0.8728348E-002  0.2601663E+03  0.7818608E-02  0.1107459E+00
         21   -1    0    0  501  502  0.00000000000E+00  0.00000000000E+00  0.74001964993E+03  0.74001964993E+03  0.00000000000E+00 0.  1.
         21   -1    0    0  502  503 -0.00000000000E+00 -0.00000000000E+00 -0.97138166203E+02  0.97138166203E+02  0.00000000000E+00 0. -1.
         -6    2    1    2    0  503  0.86713355836E+02  0.17140407665E+03  0.21361875704E+03  0.33662960839E+03  0.17546497176E+03 0.  0.
        -24    2    3    3    0    0  0.12572594715E+03  0.13760829938E+03  0.19451300957E+03  0.28139142931E+03  0.81257416584E+02 0.  0.
          6    2    1    2  501    0 -0.86713355836E+02 -0.17140407665E+03  0.42926272669E+03  0.50052820774E+03  0.17135762209E+03 0.  0.
         24    2    5    5    0    0 -0.57286492634E+01 -0.13263192567E+03  0.18068021352E+03  0.23618532767E+03  0.74257149966E+02 0.  0.
          5    1    5    5  501    0 -0.80984706572E+02 -0.38772150975E+02  0.24858251317E+03  0.26434288007E+03  0.47000000000E+01 0. -1.
        -11    1    6    6    0    0  0.10594700626E+02 -0.10623677033E+03  0.17445666622E+03  0.20453270506E+03  0.00000000000E+00 0.  1.
         12    1    6    6    0    0 -0.16323349889E+02 -0.26395155340E+02  0.62235472977E+01  0.31652622609E+02  0.00000000000E+00 0. -1.
         -5    1    3    3    0  503 -0.39012591318E+02  0.33795777261E+02  0.19105747471E+02  0.55238179084E+02  0.47000000000E+01 0.  1.
         11    1    4    4    0    0  0.10043532001E+03  0.94954381806E+02  0.87868351985E+02  0.16378166995E+03  0.00000000000E+00 0. -1.
        -12    1    4    4    0    0  0.25290627140E+02  0.42653917578E+02  0.10664465758E+03  0.11760975936E+03  0.00000000000E+00 0.  1.
</event>
<event>
12    1  0.8728348E-002  0.2179036E+03  0.7818608E-02  0.1135804E+00
         21   -1    0    0  503  502  0.00000000000E+00  0.00000000000E+00  0.16278652371E+03  0.16278652371E+03  0.00000000000E+00 0. -1.
         21   -1    0    0  501  503 -0.00000000000E+00 -0.00000000000E+00 -0.29040817672E+03  0.29040817672E+03  0.00000000000E+00 0. -1.
          6    2    1    2  501    0 -0.99275765267E+02 -0.83968191882E+02 -0.78542842340E+02  0.23162678103E+03  0.17485895114E+03 0.  0.
         24    2    3    3    0    0  0.17355002359E+02 -0.20878647627E+02 -0.21145598223E+02  0.87059979232E+02  0.79969929511E+02 0.  0.
         -6    2    1    2    0  502  0.99275765267E+02  0.83968191882E+02 -0.49078810670E+02  0.22156791939E+03  0.17256094120E+03 0.  0.
        -24    2    5    5    0    0  0.13437820906E+03  0.83996705450E+02 -0.54231259352E+02  0.18577937233E+03  0.80374100897E+02 0.  0.
          5    1    3    3  501    0 -0.11663076763E+03 -0.63089544255E+02 -0.57397244117E+02  0.14456680180E+03  0.47000000000E+01 0. -1.
        -13    1    4    4    0    0  0.42880254550E+01 -0.16482864323E+01  0.30278101659E+02  0.30624621639E+02  0.00000000000E+00 0.  1.
         14    1    4    4    0    0  0.13066976904E+02 -0.19230361195E+02 -0.51423699882E+02  0.56435357593E+02  0.00000000000E+00 0. -1.
         -5    1    5    5    0  502 -0.35102443792E+02 -0.28513567957E-01  0.51524486822E+01  0.35788547059E+02  0.47000000000E+01 0.  1.
         11    1    6    6    0    0  0.10200978624E+03  0.53762008468E+02  0.57663861990E+00  0.11531124210E+03  0.00000000000E+00 0. -1.
        -12    1    6    6    0    0  0.32368422822E+02  0.30234696983E+02 -0.54807897972E+02  0.70468130227E+02  0.00000000000E+00 0.  1.
</event>
<event>
12    1  0.8728348E-002  0.2240776E+03  0.7818608E-02  0.1131113E+00
         21   -1    0    0  501  502  0.00000000000E+00  0.00000000000E+00  0.71139189529E+02  0.71139189529E+02  0.00000000000E+00 0.  1.
         21   -1    0    0  502  503 -0.00000000000E+00 -0.00000000000E+00 -0.73904355783E+03  0.73904355783E+03  0.00000000000E+00 0. -1.
         -6    2    1    2    0  503  0.18203059843E+02  0.14050712576E+03 -0.24390109872E+03  0.33120764093E+03  0.17360055206E+03 0.  0.
        -24    2    3    3    0    0 -0.22829879339E+02  0.67635387696E+02 -0.21938471397E+03  0.24393143897E+03  0.79228436421E+02 0.  0.
          6    2    1    2  501    0 -0.18203059843E+02 -0.14050712576E+03 -0.42400326958E+03  0.47897510643E+03  0.17194410775E+03 0.  0.
         24    2    5    5    0    0 -0.43844733869E+02 -0.80001681099E+02 -0.12974230857E+03  0.17742907768E+03  0.79532265822E+02 0.  0.
          5    1    5    5  501    0  0.25641674026E+02 -0.60505444662E+02 -0.29426096101E+03  0.30154602875E+03  0.47000000000E+01 0. -1.
        -11    1    6    6    0    0 -0.47136833587E+02 -0.33154320673E+02 -0.11427639242E+03  0.12798509259E+03  0.00000000000E+00 0.  1.
         12    1    6    6    0    0  0.32920997172E+01 -0.46847360426E+02 -0.15465916145E+02  0.49443985091E+02  0.00000000000E+00 0. -1.
         -5    1    3    3    0  503  0.41032939182E+02  0.72871738065E+02 -0.24516384757E+02  0.87276201957E+02  0.47000000000E+01 0.  1.
         13    1    4    4    0    0 -0.12725411261E+01  0.80801324460E+02 -0.17729903001E+03  0.19484716944E+03  0.00000000000E+00 0. -1.
        -14    1    4    4    0    0 -0.21557338213E+02 -0.13165936764E+02 -0.42085683954E+02  0.49084269533E+02  0.00000000000E+00 0.  1.
</event>
<event>
12    1  0.8728348E-002  0.1871606E+03  0.7818608E-02  0.1161127E+00
         21   -1    0    0  503  502  0.00000000000E+00  0.00000000000E+00  0.59488955594E+02  0.59488955594E+02  0.00000000000E+00 0.  1.
         21   -1    0    0  501  503 -0.00000000000E+00 -0.00000000000E+00 -0.10264382310E+04  0.10264382310E+04  0.00000000000E+00 0.  1.
          6    2    1    2  501    0  0.72468541105E+02 -0.17776991095E+02 -0.83818172232E+03  0.85874847024E+03  0.17126769877E+03 0.  0.
         24    2    3    3    0    0  0.10316254471E+03  0.18842444265E+02 -0.54213918486E+03  0.55883785207E+03  0.85949408422E+02 0.  0.
         -6    2    1    2    0  502 -0.72468541105E+02  0.17776991095E+02 -0.12876755308E+03  0.22717871635E+03  0.17164316349E+03 0.  0.
        -24    2    5    5    0    0 -0.83018088350E+02  0.67013527652E+02 -0.71104025449E+02  0.15047994258E+03  0.78775724699E+02 0.  0.
          5    1    3    3  501    0 -0.30694003607E+02 -0.36619435360E+02 -0.29604253746E+03  0.29991061816E+03  0.47000000000E+01 0. -1.
        -11    1    4    4    0    0  0.26908836352E+02 -0.76935133420E+01 -0.34030356794E+03  0.34145247689E+03  0.00000000000E+00 0.  1.
         12    1    4    4    0    0  0.76253708361E+02  0.26535957607E+02 -0.20183561692E+03  0.21738537518E+03  0.00000000000E+00 0. -1.
         -5    1    5    5    0  502  0.10549547245E+02 -0.49236536557E+02 -0.57663527626E+02  0.76698773768E+02  0.47000000000E+01 0.  1.
         13    1    6    6    0    0 -0.66549931939E+02  0.11907134197E+02 -0.62975968475E+02  0.92393971077E+02  0.00000000000E+00 0. -1.
        -14    1    6    6    0    0 -0.16468156411E+02  0.55106393455E+02 -0.81280569740E+01  0.58085971502E+02  0.00000000000E+00 0.  1.
</event>
<event>
12    1  0.8728348E-002  0.1776380E+03  0.7818608E-02  0.1171060E+00
         21   -1    0    0  503  502  0.00000000000E+00  0.00000000000E+00  0.19805441258E+03  0.19805441258E+03  0.00000000000E+00 0. -1.
         21   -1    0    0  501  503 -0.00000000000E+00 -0.00000000000E+00 -0.32161271092E+03  0.32161271092E+03  0.00000000000E+00 0. -1.
          6    2    1    2  501    0  0.15258050199E+02  0.18380453663E+02 -0.24860055212E+03  0.30554459972E+03  0.17602448333E+03 0.  0.
         24    2    3    3    0    0 -0.59051341924E+02 -0.97695730927E+01 -0.15281046904E+03  0.18099685875E+03  0.76330320896E+02 0.  0.
         -6    2    1    2    0  502 -0.15258050199E+02 -0.18380453663E+02  0.12504225379E+03  0.21412252377E+03  0.17216922135E+03 0.  0.
        -24    2    5    5    0    0  0.20743685171E+02  0.49123844303E+02  0.55226693742E+02  0.11044389715E+03  0.79400341071E+02 0.  0.
          5    1    3    3  501    0  0.74309392123E+02  0.28150026756E+02 -0.95790083088E+02  0.12454774098E+03  0.47000000000E+01 0. -1.
        -11    1    4    4    0    0 -0.24582617942E+02 -0.15199068963E+02 -0.52600383940E+01  0.29376603040E+02  0.00000000000E+00 0.  1.
         12    1    4    4    0    0 -0.34468723982E+02  0.54294958705E+01 -0.14755043064E+03  0.15162025571E+03  0.00000000000E+00 0. -1.
         -5    1    5    5    0  502 -0.36001735370E+02 -0.67504297966E+02  0.69815560046E+02  0.10367862662E+03  0.47000000000E+01 0.  1.
         11    1    6    6    0    0  0.23867169058E+02  0.12529775613E+02  0.66720603331E+02  0.71960238636E+02  0.00000000000E+00 0. -1.
        -12    1    6    6    0    0 -0.31234838871E+01  0.36594068690E+02 -0.11493909589E+02  0.38483658513E+02  0.00000000000E+00 0.  1.
</event>
<event>
12    1  0.8728348E-002  0.1847176E+03  0.7818608E-02  0.1163443E+00
         21   -1    0    0  501  502  0.00000000000E+00  0.00000000000E+00  0.10889818914E+04  0.10889818914E+04  0.00000000000E+00 0.  1.
         21   -1    0    0  502  503 -0.00000000000E+00 -0.00000000000E+00 -0.34411677377E+02  0.34411677377E+02  0.00000000000E+00 0. -1.
         -6    2    1    2    0  503  0.57427249869E+02  0.35370920824E+02  0.35744826235E+03  0.40235536175E+03  0.17196390844E+03 0.  0.
        -24    2    3    3    0    0  0.94761289323E+02  0.24752789730E+02  0.33274908567E+03  0.35610912365E+03  0.80618554800E+02 0.  0.
          6    2    1    2  501    0 -0.57427249869E+02 -0.35370920824E+02  0.69712195169E+03  0.72103820705E+03  0.17137120359E+03 0.  0.
         24    2    5    5    0    0 -0.66248411798E+02 -0.82003973326E+02  0.44359161319E+03  0.46306112081E+03  0.80861477868E+02 0.  0.
          5    1    5    5  501    0  0.88211619294E+01  0.46633052502E+02  0.25353033850E+03  0.25797708624E+03  0.47000000000E+01 0. -1.
        -11    1    6    6    0    0 -0.60794733292E+02 -0.70207716759E+02  0.43983514040E+03  0.44953317321E+03  0.00000000000E+00 0.  1.
         12    1    6    6    0    0 -0.54536785058E+01 -0.11796256567E+02  0.37564727895E+01  0.13527947593E+02  0.00000000000E+00 0. -1.
         -5    1    3    3    0  503 -0.37334039455E+02  0.10618131094E+02  0.24699176680E+02  0.46246238102E+02  0.47000000000E+01 0.  1.
         13    1    4    4    0    0  0.59532248735E+02 -0.60133310115E+01  0.84786051167E+02  0.10377342271E+03  0.00000000000E+00 0. -1.
        -14    1    4    4    0    0  0.35229040588E+02  0.30766120742E+02  0.24796303451E+03  0.25233570094E+03  0.00000000000E+00 0.  1.
</event>
<event>
12    1  0.8728348E-002  0.1921516E+03  0.7818608E-02  0.1156762E+00
         21   -1    0    0  501  502  0.00000000000E+00  0.00000000000E+00  0.68757864422E+03  0.68757864422E+03  0.00000000000E+00 0. -1.
         21   -1    0    0  502  503 -0.00000000000E+00 -0.00000000000E+00 -0.11011304089E+03  0.11011304089E+03  0.00000000000E+00 0. -1.
         -6    2    1    2    0  503  0.71028121394E+02  0.43054253499E+02  0.21576482526E+01  0.19114286832E+03  0.17214028550E+03 0.  0.
        -24    2    3    3    0    0  0.10879256030E+03  0.16108465873E+02  0.25930522977E+02  0.13880294199E+03  0.80613651654E+02 0.  0.
          6    2    1    2  501    0 -0.71028121394E+02 -0.43054253499E+02  0.57530795507E+03  0.60654881678E+03  0.17327308272E+03 0.  0.
         24    2    5    5    0    0  0.35515528171E+00  0.21971800220E+02  0.36603990029E+03  0.37602947138E+03  0.83247033590E+02 0.  0.
          5    1    5    5  501    0 -0.71383276676E+02 -0.65026053719E+02  0.20926805478E+03  0.23051934540E+03  0.47000000000E+01 0. -1.
        -11    1    6    6    0    0  0.18841617066E+01  0.53455609202E+02  0.20030705998E+03  0.20732575937E+03  0.00000000000E+00 0.  1.
         12    1    6    6    0    0 -0.15290064249E+01 -0.31483808982E+02  0.16573284031E+03  0.16870371201E+03  0.00000000000E+00 0. -1.
         -5    1    3    3    0  503 -0.37764438904E+02  0.26945787626E+02 -0.23772874724E+02  0.52339926339E+02  0.47000000000E+01 0.  1.
         13    1    4    4    0    0  0.53575611615E+01  0.28910630230E+02 -0.55628196024E+01  0.29924454278E+02  0.00000000000E+00 0. -1.
        -14    1    4    4    0    0  0.10343499914E+03 -0.12802164357E+02  0.31493342579E+02  0.10887848771E+03  0.00000000000E+00 0.  1.
</event>
<event>
12    1  0.8728348E-002  0.1808478E+03  0.7818608E-02  0.1167970E+00
         21   -1    0    0  503  502  0.00000000000E+00  0.00000000000E+00  0.26379272816E+03  0.26379272816E+03  0.00000000000E+00 0. -1.
         21   -1    0    0  501  503 -0.00000000000E+00 -0.00000000000E+00 -0.13653647641E+03  0.13653647641E+03  0.00000000000E+00 0. -1.
          6    2    1    2  501    0  0.17903691010E+01 -0.38798122874E+02  0.13129641592E+03  0.22348305533E+03  0.17662793501E+03 0.  0.
         24    2    3    3    0    0  0.46500986029E+02 -0.55447064421E+02  0.30894449440E+02  0.11222267876E+03  0.80017147959E+02 0.  0.
         -6    2    1    2    0  502 -0.17903691010E+01  0.38798122874E+02 -0.40401641680E+01  0.17684614925E+03  0.17248112307E+03 0.  0.
        -24    2    5    5    0    0 -0.42677571654E+02 -0.30315443415E+02 -0.72195127551E+01  0.96343685711E+02  0.80557949205E+02 0.  0.
          5    1    3    3  501    0 -0.44710616928E+02  0.16648941547E+02  0.10040196648E+03  0.11126037657E+03  0.47000000000E+01 0. -1.
        -11    1    4    4    0    0 -0.27409146903E+01  0.81412192004E+01 -0.16692728746E+02  0.18773365612E+02  0.00000000000E+00 0.  1.
         12    1    4    4    0    0  0.49241900720E+02 -0.63588283622E+02  0.47587178186E+02  0.93449313150E+02  0.00000000000E+00 0. -1.
         -5    1    5    5    0  502  0.40887202553E+02  0.69113566290E+02  0.31793485872E+01  0.80502463536E+02  0.47000000000E+01 0.  1.
         11    1    6    6    0    0 -0.47080632939E+02  0.65819926692E+01  0.18650401271E+02  0.51066095337E+02  0.00000000000E+00 0. -1.
        -12    1    6    6    0    0  0.44030612849E+01 -0.36897436085E+02 -0.25869914026E+02  0.45277590373E+02  0.00000000000E+00 0.  1.
</event>
<event>
12    1  0.8728348E-002  0.2021788E+03  0.7818608E-02  0.1148857E+00
         21   -1    0    0  501  502  0.00000000000E+00  0.00000000000E+00  0.20806674203E+03  0.20806674203E+03  0.00000000000E+00 0.  1.
         21   -1    0    0  502  503 -0.00000000000E+00 -0.00000000000E+00 -0.19827023847E+03  0.19827023847E+03  0.00000000000E+00 0. -1.
         -6    2    1    2    0  503 -0.64164034534E+02 -0.72984990145E+02 -0.30918773090E+02  0.20009928085E+03  0.17216248010E+03 0.  0.
        -24    2    3    3    0    0  0.52006213824E+01 -0.59342440471E+02 -0.67015208322E+02  0.12058439364E+03  0.80628693029E+02 0.  0.
          6    2    1    2  501    0  0.64164034534E+02  0.72984990145E+02  0.40715276644E+02  0.20623769964E+03  0.17729191433E+03 0.  0.
         24    2    5    5    0    0  0.90800536358E+02 -0.39056458970E+01  0.31668907436E+02  0.12422794451E+03  0.78547253467E+02 0.  0.
          5    1    5    5  501    0 -0.26636501825E+02  0.76890636042E+02  0.90463692083E+01  0.82009755129E+02  0.47000000000E+01 0. -1.
        -11    1    6    6    0    0  0.65611591102E+02  0.32286934291E+02  0.32739124845E+02  0.80119768525E+02  0.00000000000E+00 0.  1.
         12    1    6    6    0    0  0.25188945256E+02 -0.36192580188E+02 -0.10702174094E+01  0.44108175989E+02  0.00000000000E+00 0. -1.
         -5    1    3    3    0  503 -0.69364655916E+02 -0.13642549675E+02  0.36096435233E+02  0.79514887213E+02  0.47000000000E+01 0.  1.
         11    1    4    4    0    0 -0.12933991048E+02 -0.95446456595E+01 -0.65629381173E+02  0.67569253795E+02  0.00000000000E+00 0. -1.
        -12    1    4    4    0    0  0.18134612430E+02 -0.49797794811E+02 -0.13858271488E+01  0.53015139846E+02  0.00000000000E+00 0.  1.
</event>
<event>
12    1  0.8728348E-002  0.2114961E+03  0.7818608E-02  0.1140597E+00
         21   -1    0    0  503  502  0.00000000000E+00  0.00000000000E+00  0.39880506274E+03  0.39880506274E+03  0.00000000000E+00 0.  1.
         21   -1    0    0  501  503 -0.00000000000E+00 -0.00000000000E+00 -0.11219111145E+03  0.11219111145E+03  0.00000000000E+00 0.  1.
          6    2    1    2  501    0 -0.11101380546E+03  0.53670682870E+02  0.16229381543E+03  0.26658932628E+03  0.17183125198E+03 0.  0.
         24    2    3    3    0    0 -0.94630261406E+02  0.55522847931E+02  0.40125018547E+02  0.14322338299E+03  0.82856787935E+02 0.  0.
         -6    2    1    2    0  502  0.11101380546E+03 -0.53670682870E+02  0.12432013586E+03  0.24440684791E+03  0.17051276763E+03 0.  0.
        -24    2    5    5    0    0  0.13427752144E+03 -0.20958309994E+02  0.59304758873E+02  0.16785366989E+03  0.78664455434E+02 0.  0.
          5    1    3    3  501    0 -0.16383544053E+02 -0.18521650608E+01  0.12216879688E+03  0.12336594329E+03  0.47000000000E+01 0. -1.
        -13    1    4    4    0    0 -0.98374978082E+02  0.63830684773E+02  0.51978215764E+02  0.12827208405E+03  0.00000000000E+00 0.  1.
         14    1    4    4    0    0  0.37447166768E+01 -0.83078368418E+01 -0.11853197218E+02  0.14951298949E+02  0.00000000000E+00 0. -1.
         -5    1    5    5    0  502 -0.23263715983E+02 -0.32712372876E+02  0.65015376986E+02  0.76553178021E+02  0.47000000000E+01 0.  1.
         11    1    6    6    0    0  0.78709175717E+02  0.24352074142E+02  0.47754406863E+02  0.95229413691E+02  0.00000000000E+00 0. -1.
        -12    1    6    6    0    0  0.55568345724E+02 -0.45310384136E+02  0.11550352010E+02  0.72624256201E+02  0.00000000000E+00 0.  1.
</event>
<event>
12    1  0.8728348E-002  0.2427089E+03  0.7818608E-02  0.1118417E+00
         21   -1    0    0  503  502  0.00000000000E+00  0.00000000000E+00  0.35511423117E+03  0.35511423117E+03  0.00000000000E+00 0.  1.
         21   -1    0    0  501  503 -0.00000000000E+00 -0.00000000000E+00 -0.19012478126E+03  0.19012478126E+03  0.00000000000E+00 0. -1.
          6    2    1    2  501    0 -0.13566376905E+03  0.10232926846E+03 -0.18604808261E+02  0.24091275336E+03  0.16975534874E+03 0.  0.
         24    2    3    3    0    0 -0.66905205444E+02  0.12939012633E+03 -0.19522592251E+02  0.16686572489E+03  0.79024851964E+02 0.  0.
         -6    2    1    2    0  502  0.13566376905E+03 -0.10232926846E+03  0.18359425817E+03  0.30432625906E+03  0.17329651730E+03 0.  0.
        -24    2    5    5    0    0  0.48111258419E+02 -0.26229425158E+02  0.15954377516E+03  0.18576343183E+03  0.77789205450E+02 0.  0.
          5    1    3    3  501    0 -0.68758563603E+02 -0.27060857873E+02  0.91778398963E+00  0.74047028468E+02  0.47000000000E+01 0. -1.
        -11    1    4    4    0    0  0.11594905612E+02  0.38209819408E+02  0.13412293902E+02  0.42122698905E+02  0.00000000000E+00 0.  1.
         12    1    4    4    0    0 -0.78500111056E+02  0.91180306924E+02 -0.32934886153E+02  0.12474302599E+03  0.00000000000E+00 0. -1.
         -5    1    5    5    0  502  0.87552510628E+02 -0.76099843301E+02  0.24050483017E+02  0.11856282723E+03  0.47000000000E+01 0.  1.
         13    1    6    6    0    0  0.45533245184E+02  0.72721216863E+01  0.13883945845E+03  0.14629612228E+03  0.00000000000E+00 0. -1.
        -14    1    6    6    0    0  0.25780132344E+01 -0.33501546845E+02  0.20704316705E+02  0.39467309554E+02  0.00000000000E+00 0.  1.
</event>
<event>
12    1  0.8728348E-002  0.2115860E+03  0.7818608E-02  0.1141174E+00
         21   -1    0    0  501  502  0.00000000000E+00  0.00000000000E+00  0.28555048916E+03  0.28555048916E+03  0.00000000000E+00 0. -1.
         21   -1    0    0  502  503 -0.00000000000E+00 -0.00000000000E+00 -0.34468646604E+03  0.34468646604E+03  0.00000000000E+00 0. -1.
         -6    2    1    2    0  503 -0.11579584404E+03  0.27469455943E+02 -0.26405918248E+03  0.33568278231E+03  0.16968332264E+03 0.  0.
        -24    2    3    3    0    0 -0.49792634195E+02  0.58236877621E+02 -0.22989897994E+03  0.25510941584E+03  0.79727239643E+02 0.  0.
          6    2    1    2  501    0  0.11579584404E+03 -0.27469455943E+02  0.20492320561E+03  0.29455417289E+03  0.17494396836E+03 0.  0.
         24    2    5    5    0    0 -0.67686059650E+01 -0.10102004546E+02  0.99369249693E+02  0.13180467095E+03  0.85734234568E+02 0.  0.
          5    1    5    5  501    0  0.12256445000E+03 -0.17367451398E+02  0.10555395591E+03  0.16274950194E+03  0.47000000000E+01 0. -1.
        -11    1    6    6    0    0 -0.20751032592E+02 -0.43439981218E+02  0.41442249005E+02  0.63522415921E+02  0.00000000000E+00 0.  1.
         12    1    6    6    0    0  0.13982426627E+02  0.33337976673E+02  0.57927000689E+02  0.68282255029E+02  0.00000000000E+00 0. -1.
         -5    1    3    3    0  503 -0.66003209842E+02 -0.30767421678E+02 -0.34160202542E+02  0.80573366468E+02  0.47000000000E+01 0.  1.
         11    1    4    4    0    0 -0.25406164981E+02 -0.17343431425E+02 -0.74266393007E+02  0.80385104111E+02  0.00000000000E+00 0. -1.
        -12    1    4    4    0    0 -0.24386469214E+02  0.75580309046E+02 -0.15563258693E+03  0.17472431173E+03  0.00000000000E+00 0.  1.
</event>
<event>
12    1  0.8728348E-002  0.1854335E+03  0.7818608E-02  0.1162966E+00
         21   -1    0    0  501  502  0.00000000000E+00  0.00000000000E+00  0.67836078225E+03  0.67836078225E+03  0.00000000000E+00 0.  1.
         21   -1    0    0  502  503 -0.00000000000E+00 -0.00000000000E+00 -0.74251789955E+02  0.74251789955E+02  0.00000000000E+00 0. -1.
         -6    2    1    2    0  503  0.47034283366E+02 -0.50588426822E+02  0.89156207596E+02  0.20575330751E+03  0.17208771443E+03 0.  0.
        -24    2    3    3    0    0 -0.37719980761E+02 -0.22082793976E+02  0.17788009569E+02  0.91248433892E+02  0.78098762249E+02 0.  0.
          6    2    1    2  501    0 -0.47034283366E+02  0.50588426822E+02  0.51495278470E+03  0.54685926470E+03  0.17060853489E+03 0.  0.
         24    2    5    5    0    0  0.30053721515E+02  0.48268307468E+02  0.36759672523E+03  0.38047464488E+03  0.80003420634E+02 0.  0.
          5    1    5    5  501    0 -0.77088004881E+02  0.23201193545E+01  0.14735605947E+03  0.16638461982E+03  0.47000000000E+01 0. -1.
        -11    1    6    6    0    0  0.71103488092E+01  0.66001118169E+02  0.29332778056E+03  0.30074555941E+03  0.00000000000E+00 0.  1.
         12    1    6    6    0    0  0.22943372706E+02 -0.17732810701E+02  0.74268944671E+02  0.79729085465E+02  0.00000000000E+00 0. -1.
         -5    1    3    3    0  503  0.84754264128E+02 -0.28505632846E+02  0.71368198027E+02  0.11450487361E+03  0.47000000000E+01 0.  1.
         11    1    4    4    0    0 -0.14294383873E+02 -0.31382144588E+02 -0.24303451070E+02  0.42187985768E+02  0.00000000000E+00 0. -1.
        -12    1    4    4    0    0 -0.23425596888E+02  0.92993506120E+01  0.42091460639E+02  0.49060448124E+02  0.00000000000E+00 0.  1.
</event>
<event>
12    1  0.8728348E-002  0.2314072E+03  0.7818608E-02  0.1126103E+00
         21   -1    0    0  501  502  0.00000000000E+00  0.00000000000E+00  0.18151304166E+04  0.18151304166E+04  0.00000000000E+00 0. -1.
         21   -1    0    0  502  503 -0.00000000000E+00 -0.00000000000E+00 -0.38602253832E+02  0.38602253832E+02  0.00000000000E+00 0.  1.
         -6    2    1    2    0  503  0.14529632422E+03 -0.26187047640E+02  0.42652043885E+03  0.48403556802E+03  0.17485411936E+03 0.  0.
        -24    2    3    3    0    0  0.11016212288E+02 -0.42935399083E+02  0.13582441594E+03  0.16335204261E+03  0.79188461479E+02 0.  0.
          6    2    1    2  501    0 -0.14529632422E+03  0.26187047640E+02  0.13500077240E+04  0.13696971025E+04  0.17819235230E+03 0.  0.
         24    2    5    5    0    0 -0.92803436150E+02 -0.46888481121E+02  0.59680852124E+03  0.61112827553E+03  0.80537883650E+02 0.  0.
          5    1    5    5  501    0 -0.52492888067E+02  0.73075528761E+02  0.75319920273E+03  0.75856882693E+03  0.47000000000E+01 0. -1.
        -11    1    6    6    0    0 -0.33951784232E+02  0.22350245167E+02  0.18362390361E+03  0.18806912316E+03  0.00000000000E+00 0.  1.
         12    1    6    6    0    0 -0.58851651918E+02 -0.69238726288E+02  0.41318461763E+03  0.42305915237E+03  0.00000000000E+00 0. -1.
         -5    1    3    3    0  503  0.13428011193E+03  0.16748351443E+02  0.29069602291E+03  0.32068352541E+03  0.47000000000E+01 0.  1.
         13    1    4    4    0    0  0.14044282130E+02  0.14255372226E+02  0.51275970338E+01  0.20657922190E+02  0.00000000000E+00 0. -1.
        -14    1    4    4    0    0 -0.30280698422E+01 -0.57190771309E+02  0.13069681891E+03  0.14269412042E+03  0.00000000000E+00 0.  1.
</event>
<event>
12    1  0.8728348E-002  0.1770018E+03  0.7818608E-02  0.1171589E+00
         21   -1    0    0  501  502  0.00000000000E+00  0.00000000000E+00  0.15725856717E+03  0.15725856717E+03  0.00000000000E+00 0. -1.
         21   -1    0    0  502  503 -0.00000000000E+00 -0.00000000000E+00 -0.27440766887E+03  0.27440766887E+03  0.00000000000E+00 0. -1.
         -6    2    1    2    0  503  0.13394001563E+02  0.18859447628E+02 -0.17397465682E+03  0.24576633705E+03  0.17204311428E+03 0.  0.
        -24    2    3    3    0    0  0.33826879380E+02 -0.38991117854E+02 -0.15286455536E+03  0.18071315261E+03  0.81394755361E+02 0.  0.
          6    2    1    2  501    0 -0.13394001563E+02 -0.18859447628E+02  0.56825555116E+02  0.18589989898E+03  0.17548376189E+03 0.  0.
         24    2    5    5    0    0 -0.18101558093E+02  0.21533429747E+02 -0.29412557415E+02  0.90438662432E+02  0.80763222612E+02 0.  0.
          5    1    5    5  501    0  0.47075565304E+01 -0.40392877375E+02  0.86238112531E+02  0.95461236552E+02  0.47000000000E+01 0. -1.
        -11    1    6    6    0    0 -0.14364187698E+02 -0.29424281090E+02 -0.28902305454E+01  0.32870528418E+02  0.00000000000E+00 0.  1.
         12    1    6    6    0    0 -0.37373703955E+01  0.50957710837E+02 -0.26522326870E+02  0.57568134014E+02  0.00000000000E+00 0. -1.
         -5    1    3    3    0  503 -0.20432877817E+02  0.57850565482E+02 -0.21110101457E+02  0.65053184442E+02  0.47000000000E+01 0.  1.
         11    1    4    4    0    0  0.36296930110E+02 -0.39233063050E+02 -0.16234306548E+03  0.17091509963E+03  0.00000000000E+00 0. -1.
        -12    1    4    4    0    0 -0.24700507298E+01  0.24194519622E+00  0.94785101203E+01  0.97980529794E+01  0.00000000000E+00 0.  1.
</event>
<event>
12    1  0.8728348E-002  0.1995795E+03  0.7818608E-02  0.1150537E+00
         21   -1    0    0  501  502  0.00000000000E+00  0.00000000000E+00  0.21822093179E+03  0.21822093179E+03  0.00000000000E+00 0. -1.
         21   -1    0    0  502  503 -0.00000000000E+00 -0.00000000000E+00 -0.18466706240E+03  0.18466706240E+03  0.00000000000E+00 0. -1.
         -6    2    1    2    0  503  0.85559353163E+02  0.54372494539E+02 -0.12917128110E+02  0.19999703402E+03  0.17191623060E+03 0.  0.
        -24    2    3    3    0    0 -0.16114337574E+01  0.63023047085E+02 -0.38088146321E+02  0.10873231844E+03  0.79984429743E+02 0.  0.
          6    2    1    2  501    0 -0.85559353163E+02 -0.54372494539E+02  0.46470997509E+02  0.20289096017E+03  0.16949459293E+03 0.  0.
         24    2    5    5    0    0 -0.12958248356E+01  0.12017545784E+02  0.76581497071E+01  0.88713436923E+02  0.87551847868E+02 0.  0.
          5    1    5    5  501    0 -0.84263528328E+02 -0.66390040323E+02  0.38812847802E+02  0.11417752325E+03  0.47000000000E+01 0. -1.
        -13    1    6    6    0    0 -0.33514752959E+02  0.24489046656E+02  0.26612557512E+02  0.49307000410E+02  0.00000000000E+00 0.  1.
         14    1    6    6    0    0  0.32218928124E+02 -0.12471500873E+02 -0.18954407805E+02  0.39406436513E+02  0.00000000000E+00 0. -1.
         -5    1    3    3    0  503  0.87170786921E+02 -0.86505525455E+01  0.25171018210E+02  0.91264715578E+02  0.47000000000E+01 0.  1.
         13    1    4    4    0    0 -0.25010346925E+02  0.52642360763E+02  0.51249688734E+01  0.58506417648E+02  0.00000000000E+00 0. -1.
        -14    1    4    4    0    0  0.23398913168E+02  0.10380686322E+02 -0.43213115194E+02  0.50225900795E+02  0.00000000000E+00 0.  1.
</event>
<event>
12    1  0.8728348E-002  0.2032413E+03  0.7818608E-02  0.1147555E+00
         21   -1    0    0  501  502  0.00000000000E+00  0.00000000000E+00  0.22431908924E+04  0.22431908924E+04  0.00000000000E+00 0. -1.
         21   -1    0    0  502  503 -0.00000000000E+00 -0.00000000000E+00 -0.19786368913E+02  0.19786368913E+02  0.00000000000E+00 0. -1.
         -6    2    1    2    0  503  0.39323520436E+02 -0.10081601647E+03  0.79641866992E+03  0.82194264948E+03  0.17203724252E+03 0.  0.
        -24    2    3    3    0    0  0.84073024167E+01 -0.10318389268E+03  0.37622677795E+03  0.40058207296E+03  0.90563846476E+02 0.  0.
          6    2    1    2  501    0 -0.39323520436E+02  0.10081601647E+03  0.14269858535E+04  0.14410346118E+04  0.16906187552E+03 0.  0.
         24    2    5    5    0    0 -0.12365498048E+02  0.13013677833E+03  0.12582174828E+04  0.12675661852E+04  0.80773221689E+02 0.  0.
          5    1    5    5  501    0 -0.26958022388E+02 -0.29320761863E+02  0.16876837078E+03  0.17346842659E+03  0.47000000000E+01 0. -1.
        -13    1    6    6    0    0  0.29287984705E+02  0.20676717302E+02  0.24677841593E+03  0.24936900219E+03  0.00000000000E+00 0.  1.
         14    1    6    6    0    0 -0.41653482753E+02  0.10946006103E+03  0.10114390668E+04  0.10181971830E+04  0.00000000000E+00 0. -1.
         -5    1    3    3    0  503  0.30916218019E+02  0.23678762118E+01  0.42019189197E+03  0.42136057652E+03  0.47000000000E+01 0.  1.
         13    1    4    4    0    0 -0.70683172308E+01  0.10076609119E+02  0.72092777240E+01  0.14264390808E+02  0.00000000000E+00 0. -1.
        -14    1    4    4    0    0  0.15475619648E+02 -0.11326050180E+03  0.36901750022E+03  0.38631768215E+03  0.00000000000E+00 0.  1.
</event>
<event>
12    1  0.8728348E-002  0.2258648E+03  0.7818608E-02  0.1129923E+00
         21   -1    0    0  503  502  0.00000000000E+00  0.00000000000E+00  0.28919758011E+03  0.28919758011E+03  0.00000000000E+00 0. -1.
         21   -1    0    0  501  503 -0.00000000000E+00 -0.00000000000E+00 -0.17495789980E+03  0.17495789980E+03  0.00000000000E+00 0.  1.
          6    2    1    2  501    0  0.13817889516E+03 -0.38820098424E+02  0.59410818936E+02  0.23354777963E+03  0.17439757124E+03 0.  0.
         24    2    3    3    0    0  0.13082785571E+03  0.26638416521E+02  0.26392939104E+02  0.15971604290E+03  0.83588839331E+02 0.  0.
         -6    2    1    2    0  502 -0.13817889516E+03  0.38820098424E+02  0.54828861376E+02  0.23060770028E+03  0.17196889335E+03 0.  0.
        -24    2    5    5    0    0 -0.12090954545E+03  0.66526680716E+02 -0.80365462923E+01  0.15961449904E+03  0.79795268014E+02 0.  0.
          5    1    3    3  501    0  0.73510394437E+01 -0.65458514944E+02  0.33017879832E+02  0.73831736728E+02  0.47000000000E+01 0. -1.
        -11    1    4    4    0    0  0.12040546170E+03  0.16876124204E+02  0.50535137190E+02  0.13166654421E+03  0.00000000000E+00 0.  1.
         12    1    4    4    0    0  0.10422394018E+02  0.97622923169E+01 -0.24142198086E+02  0.28049498690E+02  0.00000000000E+00 0. -1.
         -5    1    5    5    0  502 -0.17269349703E+02 -0.27706582292E+02  0.62865407668E+02  0.70993201243E+02  0.47000000000E+01 0.  1.
         13    1    6    6    0    0 -0.44578515586E+02  0.24122064852E+02  0.35658686309E+02  0.61973058452E+02  0.00000000000E+00 0. -1.
        -14    1    6    6    0    0 -0.76331029869E+02  0.42404615864E+02 -0.43695232602E+02  0.97641440585E+02  0.00000000000E+00 0.  1.
</event>
<event>
12    1  0.8728348E-002  0.2226263E+03  0.7818608E-02  0.1131972E+00
         21   -1    0    0  501  502  0.00000000000E+00  0.00000000000E+00  0.45647271928E+03  0.45647271928E+03  0.00000000000E+00 0. -1.
         21   -1    0    0  502  503 -0.00000000000E+00 -0.00000000000E+00 -0.12704534975E+03  0.12704534975E+03  0.00000000000E+00 0. -1.
         -6    2    1    2    0  503 -0.14109202071E+03 -0.11389996270E+01  0.53167202461E+02  0.22871929812E+03  0.17198113353E+03 0.  0.
        -24    2    3    3    0    0 -0.16333121326E+03  0.22015973921E+02  0.24289704010E+02  0.18528274207E+03  0.81104355330E+02 0.  0.
          6    2    1    2  501    0  0.14109202071E+03  0.11389996270E+01  0.27626016707E+03  0.35479877090E+03  0.17220404262E+03 0.  0.
         24    2    5    5    0    0  0.13392441151E+03 -0.54866899697E+02  0.19633691327E+03  0.25683014389E+03  0.80420237601E+02 0.  0.
          5    1    5    5  501    0  0.71676092019E+01  0.56005899324E+02  0.79923253798E+02  0.97968627011E+02  0.47000000000E+01 0. -1.
        -13    1    6    6    0    0  0.59806754149E+02  0.14347528758E+02  0.52652062607E+02  0.80962578517E+02  0.00000000000E+00 0.  1.
         14    1    6    6    0    0  0.74117657359E+02 -0.69214428455E+02  0.14368485067E+03  0.17586756537E+03  0.00000000000E+00 0. -1.
         -5    1    3    3    0  503  0.22239192553E+02 -0.23154973548E+02  0.28877498451E+02  0.43436556058E+02  0.47000000000E+01 0.  1.
         13    1    4    4    0    0 -0.47279109758E+02  0.44015974441E+02  0.17711577639E+02  0.66980745054E+02  0.00000000000E+00 0. -1.
        -14    1    4    4    0    0 -0.11605210350E+03 -0.22000000520E+02  0.65781263714E+01  0.11830199701E+03  0.00000000000E+00 0.  1.
</event>
<event>
12    1  0.8728348E-002  0.2158034E+03  0.7818608E-02  0.1137776E+00
         21   -1    0    0  503  502  0.00000000000E+00  0.00000000000E+00  0.20228282897E+04  0.20228282897E+04  0.00000000000E+00 0. -1.
         21   -1    0    0  501  503 -0.00000000000E+00 -0.00000000000E+00 -0.36062698814E+02  0.36062698814E+02  0.00000000000E+00 0. -1.
          6    2    1    2  501    0  0.82936552121E+02 -0.99644896966E+02  0.37043797453E+03  0.42871364066E+03  0.17252105827E+03 0.  0.
         24    2    3    3    0    0 -0.70985584725E+01 -0.75769807655E+02  0.12928561742E+03  0.17015438175E+03  0.80288787966E+02 0.  0.
         -6    2    1    2    0  502 -0.82936552121E+02  0.99644896966E+02  0.16163276164E+04  0.16301773479E+04  0.16779643881E+03 0.  0.
        -24    2    5    5    0    0  0.50561643763E+01  0.74818261048E+02  0.11035645234E+04  0.11093058095E+04  0.84150963204E+02 0.  0.
          5    1    3    3  501    0  0.90035110594E+02 -0.23875089310E+02  0.24115235711E+03  0.25855925891E+03  0.47000000000E+01 0. -1.
        -13    1    4    4    0    0 -0.42909066268E+02 -0.29894127249E+02  0.65329541547E+02  0.83682709150E+02  0.00000000000E+00 0.  1.
         14    1    4    4    0    0  0.35810507796E+02 -0.45875680406E+02  0.63956075869E+02  0.86471672598E+02  0.00000000000E+00 0. -1.
         -5    1    5    5    0  502 -0.87992716498E+02  0.24826635918E+02  0.51276309296E+03  0.52087153839E+03  0.47000000000E+01 0.  1.
         11    1    6    6    0    0 -0.13952027979E+02 -0.14755318038E+02  0.15316861330E+03  0.15450890782E+03  0.00000000000E+00 0. -1.
        -12    1    6    6    0    0  0.19008192355E+02  0.89573579086E+02  0.95039591013E+03  0.95479690167E+03  0.00000000000E+00 0.  1.
</event>
<event>
12    1  0.8728348E-002  0.2236514E+03  0.7818608E-02  0.1131636E+00
         21   -1    0    0  503  502  0.00000000000E+00  0.00000000000E+00  0.36958394740E+03  0.36958394740E+03  0.00000000000E+00 0.  1.
         21   -1    0    0  501  503 -0.00000000000E+00 -0.00000000000E+00 -0.26576670851E+03  0.26576670851E+03  0.00000000000E+00 0. -1.
          6    2    1    2  501    0 -0.53279179763E+02 -0.12990045362E+03 -0.17173759292E+03  0.28198184204E+03  0.17408951597E+03 0.  0.
         24    2    3    3    0    0 -0.31473600901E+02 -0.47031462372E+02 -0.86402707107E+01  0.97684312233E+02  0.79151908201E+02 0.  0.
         -6    2    1    2    0  502  0.53279179763E+02  0.12990045362E+03  0.27555483182E+03  0.35336881387E+03  0.17095687887E+03 0.  0.
        -24    2    5    5    0    0 -0.33144947708E+02  0.79298813514E+02  0.11289440650E+03  0.16229249468E+03  0.78783357555E+02 0.  0.
          5    1    3    3  501    0 -0.21805578862E+02 -0.82868991245E+02 -0.16309732221E+03  0.18429752980E+03  0.47000000000E+01 0. -1.
        -11    1    4    4    0    0 -0.54534458596E+02 -0.12922201057E+02 -0.69796987729E+01  0.56477487989E+02  0.00000000000E+00 0.  1.
         12    1    4    4    0    0  0.23060857695E+02 -0.34109261315E+02 -0.16605719378E+01  0.41206824244E+02  0.00000000000E+00 0. -1.
         -5    1    5    5    0  502  0.86424127471E+02  0.50601640104E+02  0.16266042532E+03  0.19107631919E+03  0.47000000000E+01 0.  1.
         11    1    6    6    0    0 -0.16030126593E+02  0.32345567218E+01  0.72813719761E+02  0.74627509011E+02  0.00000000000E+00 0. -1.
        -12    1    6    6    0    0 -0.17114821114E+02  0.76064256792E+02  0.40080686740E+02  0.87664985670E+02  0.00000000000E+00 0.  1.
</event>
<event>
12    1  0.8728348E-002  0.1829266E+03  0.7818608E-02  0.1166880E+00
         21   -1    0    0  503  502  0.00000000000E+00  0.00000000000E+00  0.72426634450E+03  0.72426634450E+03  0.00000000000E+00 0. -1.
         21   -1    0    0  501  503 -0.00000000000E+00 -0.00000000000E+00 -0.51775662328E+02  0.51775662328E+02  0.00000000000E+00 0. -1.
          6    2    1    2  501    0 -0.60800549435E+02  0.13499320094E+02  0.47778212033E+03  0.50888367531E+03  0.16373118835E+03 0.  0.
         24    2    3    3    0    0 -0.22980049738E+02  0.68762146051E+02  0.29787862243E+03  0.31686354958E+03  0.80090698187E+02 0.  0.
         -6    2    1    2    0  502  0.60800549435E+02 -0.13499320094E+02  0.19470856184E+03  0.26715833151E+03  0.17199770809E+03 0.  0.
        -24    2    5    5    0    0  0.50674766207E+02 -0.72669326090E+02  0.10923843938E+03  0.16260761210E+03  0.81605367417E+02 0.  0.
          5    1    3    3  501    0 -0.37820499696E+02 -0.55262825957E+02  0.17990349790E+03  0.19202012573E+03  0.47000000000E+01 0. -1.
        -11    1    4    4    0    0  0.11867025426E+01  0.36632892962E+02  0.34175237216E+02  0.50113111543E+02  0.00000000000E+00 0.  1.
         12    1    4    4    0    0 -0.24166752281E+02  0.32129253089E+02  0.26370338521E+03  0.26675043803E+03  0.00000000000E+00 0. -1.
         -5    1    5    5    0  502  0.10125783228E+02  0.59170005995E+02  0.85470122464E+02  0.10455071941E+03  0.47000000000E+01 0.  1.
         11    1    6    6    0    0  0.54844999003E+02 -0.37132745074E+02  0.10813896118E+03  0.12681028980E+03  0.00000000000E+00 0. -1.
        -12    1    6    6    0    0 -0.41702327960E+01 -0.35536581016E+02  0.10994781929E+01  0.35797322304E+02  0.00000000000E+00 0.  1.
</event>
<event>
12    1  0.8728348E-002  0.4568058E+03  0.7818608E-02  0.1025780E+00
         21   -1    0    0  501  502  0.00000000000E+00  0.00000000000E+00  0.73501190790E+03  0.73501190790E+03  0.00000000000E+00 0.  1.
         21   -1    0    0  502  503 -0.00000000000E+00 -0.00000000000E+00 -0.28335159960E+03  0.28335159960E+03  0.00000000000E+00 0. -1.
         -6    2    1    2    0  503  0.23566697861E+02  0.42228190770E+03  0.22076469522E+03  0.50735450215E+03  0.17260979514E+03 0.  0.
        -24    2    3    3    0    0  0.80428262087E+02  0.23484637617E+03  0.14182716803E+03  0.29612349315E+03  0.77153430637E+02 0.  0.
          6    2    1    2  501    0 -0.23566697861E+02 -0.42228190770E+03  0.23089561308E+03  0.51100900535E+03  0.17011766691E+03 0.  0.
         24    2    5    5    0    0 -0.41158113774E+02 -0.23568898864E+03  0.19956308157E+03  0.32092956699E+03  0.76987490849E+02 0.  0.
          5    1    5    5  501    0  0.17591415913E+02 -0.18659291906E+03  0.31332531506E+02  0.19007943836E+03  0.47000000000E+01 0. -1.
        -13    1    6    6    0    0 -0.22925177836E+01 -0.46652141361E+02  0.83642673859E+02  0.95800703659E+02  0.00000000000E+00 0.  1.
         14    1    6    6    0    0 -0.38865595991E+02 -0.18903684728E+03  0.11592040771E+03  0.22512886333E+03  0.00000000000E+00 0. -1.
         -5    1    3    3    0  503 -0.56861564226E+02  0.18743553152E+03  0.78937527189E+02  0.21123100900E+03  0.47000000000E+01 0.  1.
         11    1    4    4    0    0  0.15214008051E+02  0.69595191087E+02  0.41379884638E+01  0.71358808930E+02  0.00000000000E+00 0. -1.
        -12    1    4    4    0    0  0.65214254036E+02  0.16525118509E+03  0.13768917957E+03  0.22476468422E+03  0.00000000000E+00 0.  1.
</event>
<event>
12    1  0.8728348E-002  0.2061680E+03  0.7818608E-02  0.1144714E+00
         21   -1    0    0  501  502  0.00000000000E+00  0.00000000000E+00  0.28578813610E+03  0.28578813610E+03  0.00000000000E+00 0. -1.
         21   -1    0    0  502  503 -0.00000000000E+00 -0.00000000000E+00 -0.67321475790E+03  0.67321475790E+03  0.00000000000E+00 0. -1.
         -6    2    1    2    0  503  0.71116984651E+02 -0.88280451157E+02 -0.61701756187E+03  0.65042995059E+03  0.17174802883E+03 0.  0.
        -24    2    3    3    0    0  0.55359812250E+02 -0.10464019416E+03 -0.26035932276E+03  0.29301825632E+03  0.63705906677E+02 0.  0.
          6    2    1    2  501    0 -0.71116984651E+02  0.88280451157E+02  0.22959094007E+03  0.30857294341E+03  0.17220394327E+03 0.  0.
         24    2    5    5    0    0 -0.25947644431E+02  0.12311124154E+03  0.16158980529E+03  0.21969270046E+03  0.79523326238E+02 0.  0.
          5    1    5    5  501    0 -0.45169340220E+02 -0.34830790387E+02  0.68001134778E+02  0.88880242945E+02  0.47000000000E+01 0. -1.
        -13    1    6    6    0    0 -0.21149530102E+02  0.61464902151E+02  0.24791287033E+02  0.69568992609E+02  0.00000000000E+00 0.  1.
         14    1    6    6    0    0 -0.47981143295E+01  0.61646339394E+02  0.13679851826E+03  0.15012370785E+03  0.00000000000E+00 0. -1.
         -5    1    3    3    0  503  0.15757172402E+02  0.16359743000E+02 -0.35665823912E+03  0.35741169427E+03  0.47000000000E+01 0.  1.
         13    1    4    4    0    0  0.58364384147E+02 -0.77237676930E+02 -0.23987573239E+03  0.25867436491E+03  0.00000000000E+00 0. -1.
        -14    1    4    4    0    0 -0.30045718977E+01 -0.27402517227E+02 -0.20483590369E+02  0.34343891409E+02  0.00000000000E+00 0.  1.
</event>
<event>
12    1  0.8728348E-002  0.2459367E+03  0.7818608E-02  0.1116797E+00
         21   -1    0    0  503  502  0.00000000000E+00  0.00000000000E+00  0.19309499550E+03  0.19309499550E+03  0.00000000000E+00 0. -1.
         21   -1    0    0  501  503 -0.00000000000E+00 -0.00000000000E+00 -0.35302504623E+03  0.35302504623E+03  0.00000000000E+00 0. -1.
          6    2    1    2  501    0  0.14661701444E+03 -0.81561760795E+02 -0.18009946984E+03  0.30482897396E+03  0.17982217488E+03 0.  0.
         24    2    3    3    0    0  0.36782282621E+02 -0.10029435599E+03 -0.71741157465E+02  0.14933559050E+03  0.75778827909E+02 0.  0.
         -6    2    1    2    0  502 -0.14661701444E+03  0.81561760795E+02  0.20169419113E+02  0.24129106777E+03  0.17223734836E+03 0.  0.
        -24    2    5    5    0    0 -0.15742108238E+03  0.99062135049E+02  0.46935266307E+02  0.20721040523E+03  0.78348765356E+02 0.  0.
          5    1    3    3  501    0  0.10983473182E+03  0.18732595191E+02 -0.10835831238E+03  0.15549338345E+03  0.47000000000E+01 0. -1.
        -11    1    4    4    0    0  0.30913727935E+02 -0.70490298840E+02 -0.63489366480E+01  0.77232440088E+02  0.00000000000E+00 0.  1.
         12    1    4    4    0    0  0.58685546855E+01 -0.29804057146E+02 -0.65392220817E+02  0.72103150416E+02  0.00000000000E+00 0. -1.
         -5    1    5    5    0  502  0.10804067941E+02 -0.17500374254E+02 -0.26765847193E+02  0.34080662539E+02  0.47000000000E+01 0.  1.
         11    1    6    6    0    0 -0.75754886135E+02  0.50948647584E+02 -0.17019423691E+02  0.92866723032E+02  0.00000000000E+00 0. -1.
        -12    1    6    6    0    0 -0.81666196248E+02  0.48113487465E+02  0.63954689997E+02  0.11434368220E+03  0.00000000000E+00 0.  1.
</event>
<event>
12    1  0.8728348E-002  0.1800732E+03  0.7818608E-02  0.1168286E+00
         21   -1    0    0  503  502  0.00000000000E+00  0.00000000000E+00  0.92588754654E+02  0.92588754654E+02  0.00000000000E+00 0. -1.
         21   -1    0    0  501  503 -0.00000000000E+00 -0.00000000000E+00 -0.34586110356E+03  0.34586110356E+03  0.00000000000E+00 0. -1.
          6    2    1    2  501    0  0.40273958076E+02 -0.19816449581E+02 -0.12840524702E+03  0.21931939015E+03  0.17204186717E+03 0.  0.
         24    2    3    3    0    0  0.21690934106E+02 -0.53472202534E+02 -0.14627192759E+03  0.17666558890E+03  0.80532480616E+02 0.  0.
         -6    2    1    2    0  502 -0.40273958076E+02  0.19816449581E+02 -0.12486710188E+03  0.21913046807E+03  0.17438946508E+03 0.  0.
        -24    2    5    5    0    0 -0.12318093481E+01 -0.41141356992E+02 -0.12165024834E+02  0.85100651496E+02  0.73484722537E+02 0.  0.
          5    1    3    3  501    0  0.18583023970E+02  0.33655752952E+02  0.17866680563E+02  0.42653801249E+02  0.47000000000E+01 0. -1.
        -13    1    4    4    0    0  0.32798294798E+02  0.26813230828E+01 -0.92303797249E+02  0.97994431585E+02  0.00000000000E+00 0.  1.
         14    1    4    4    0    0 -0.11107360691E+02 -0.56153525616E+02 -0.53968130339E+02  0.78671157313E+02  0.00000000000E+00 0. -1.
         -5    1    5    5    0  502 -0.39042148728E+02  0.60957806573E+02 -0.11270207705E+03  0.13402981657E+03  0.47000000000E+01 0.  1.
         11    1    6    6    0    0 -0.12089760500E+02 -0.48735665161E+02 -0.33231609731E+02  0.60213513873E+02  0.00000000000E+00 0. -1.
        -12    1    6    6    0    0  0.10857951152E+02  0.75943081696E+01  0.21066584897E+02  0.24887137622E+02  0.00000000000E+00 0.  1.
</event>
<event>
12    1  0.8728348E-002  0.2610101E+03  0.7818608E-02  0.1107825E+00
         21   -1    0    0  503  502  0.00000000000E+00  0.00000000000E+00  0.11121490936E+03  0.11121490936E+03  0.00000000000E+00 0. -1.
         21   -1    0    0  501  503 -0.00000000000E+00 -0.00000000000E+00 -0.63236273757E+03  0.63236273757E+03  0.00000000000E+00 0.  1.
          6    2    1    2  501    0 -0.17060032308E+03  0.97463437132E+02 -0.17169662559E+03  0.31241962497E+03  0.17182170706E+03 0.  0.
         24    2    3    3    0    0 -0.17326920055E+03  0.45723250905E+02 -0.90927055933E+02  0.21634682361E+03  0.80158512055E+02 0.  0.
         -6    2    1    2    0  502  0.17060032308E+03 -0.97463437132E+02 -0.34945120262E+03  0.43115802196E+03  0.15867421052E+03 0.  0.
        -24    2    5    5    0    0  0.13818682122E+03 -0.46549239454E+02 -0.15284168568E+03  0.22543908074E+03  0.78738611822E+02 0.  0.
          5    1    3    3  501    0  0.26688774747E+01  0.51740186227E+02 -0.80769569661E+02  0.96072801359E+02  0.47000000000E+01 0. -1.
        -13    1    4    4    0    0  0.48182087122E+01 -0.59462908028E+00 -0.17609070345E+02  0.18266036170E+02  0.00000000000E+00 0.  1.
         14    1    4    4    0    0 -0.17808740926E+03  0.46317879985E+02 -0.73317985588E+02  0.19808078745E+03  0.00000000000E+00 0. -1.
         -5    1    5    5    0  502  0.32413501856E+02 -0.50914197678E+02 -0.19660951693E+03  0.20571894122E+03  0.47000000000E+01 0.  1.
         11    1    6    6    0    0  0.30650538620E+02  0.21393787701E+02 -0.24205965824E+02  0.44531769012E+02  0.00000000000E+00 0. -1.
        -12    1    6    6    0    0  0.10753628260E+03 -0.67943027155E+02 -0.12863571986E+03  0.18090731173E+03  0.00000000000E+00 0.  1.
</event>
<event>
12    1  0.8728348E-002  0.1985263E+03  0.7818608E-02  0.1151133E+00
         21   -1    0    0  501  502  0.00000000000E+00  0.00000000000E+00  0.35639195512E+03  0.35639195512E+03  0.00000000000E+00 0. -1.
         21   -1    0    0  502  503 -0.00000000000E+00 -0.00000000000E+00 -0.11802624586E+03  0.11802624586E+03  0.00000000000E+00 0. -1.
         -6    2    1    2    0  503 -0.49889654602E+02 -0.84789264617E+02  0.58335904494E+02  0.20691968453E+03  0.17243689008E+03 0.  0.
        -24    2    3    3    0    0 -0.22483415172E+02 -0.10828790845E+02 -0.32789087566E+02  0.86308292784E+02  0.75836867491E+02 0.  0.
          6    2    1    2  501    0  0.49889654602E+02  0.84789264617E+02  0.18002980476E+03  0.26749851645E+03  0.17165817392E+03 0.  0.
         24    2    5    5    0    0  0.69690356187E+02  0.11559393611E+03  0.12034007099E+03  0.19731340488E+03  0.78943924718E+02 0.  0.
          5    1    5    5  501    0 -0.19800701584E+02 -0.30804671491E+02  0.59689733765E+02  0.70185111568E+02  0.47000000000E+01 0. -1.
        -11    1    6    6    0    0 -0.69392015010E+01 -0.82061545231E+01  0.91563048017E+01  0.14118477508E+02  0.00000000000E+00 0.  1.
         12    1    6    6    0    0  0.76629557688E+02  0.12380009063E+03  0.11118376619E+03  0.18319492738E+03  0.00000000000E+00 0. -1.
         -5    1    3    3    0  503 -0.27406239430E+02 -0.73960473772E+02  0.91124992060E+02  0.12061139174E+03  0.47000000000E+01 0.  1.
         11    1    4    4    0    0 -0.86298245008E+01 -0.40121648031E+02 -0.12027419715E+01  0.41056876402E+02  0.00000000000E+00 0. -1.
        -12    1    4    4    0    0 -0.13853590671E+02  0.29292857186E+02 -0.31586345594E+02  0.45251416382E+02  0.00000000000E+00 0.  1.
</event>
<event>
12    1  0.8728348E-002  0.1834560E+03  0.7818608E-02  0.1164636E+00
         21   -1    0    0  501  502  0.00000000000E+00  0.00000000000E+00  0.23816585255E+03  0.23816585255E+03  0.00000000000E+00 0. -1.
         21   -1    0    0  502  503 -0.00000000000E+00 -0.00000000000E+00 -0.14280003711E+03  0.14280003711E+03  0.00000000000E+00 0. -1.
         -6    2    1    2    0  503  0.20683731932E+02 -0.59544765161E+02  0.69747852329E+02  0.19572985425E+03  0.17167415972E+03 0.  0.
        -24    2    3    3    0    0 -0.95989266093E+01 -0.55857331159E+02  0.10913520521E+03  0.14568896952E+03  0.78119152502E+02 0.  0.
          6    2    1    2  501    0 -0.20683731932E+02  0.59544765161E+02  0.25617963110E+02  0.18523603540E+03  0.17228671728E+03 0.  0.
         24    2    5    5    0    0 -0.59027662338E+02 -0.17208789239E+02  0.66157355219E+01  0.97232968607E+02  0.75033824903E+02 0.  0.
          5    1    5    5  501    0  0.38343930406E+02  0.76753554399E+02  0.19002227588E+02  0.88003066794E+02  0.47000000000E+01 0. -1.
        -13    1    6    6    0    0 -0.47485199880E+02 -0.88808078882E+01  0.38852566037E+02  0.61993829080E+02  0.00000000000E+00 0.  1.
         14    1    6    6    0    0 -0.11542462458E+02 -0.83279813506E+01 -0.32236830515E+02  0.35239139527E+02  0.00000000000E+00 0. -1.
         -5    1    3    3    0  503  0.30282658542E+02 -0.36874340014E+01 -0.39387352880E+02  0.50040884732E+02  0.47000000000E+01 0.  1.
         11    1    4    4    0    0  0.26971438644E+02 -0.27043354072E+02  0.85132941482E+02  0.93308194857E+02  0.00000000000E+00 0. -1.
        -12    1    4    4    0    0 -0.36570365254E+02 -0.28813977087E+02  0.24002263726E+02  0.52380774663E+02  0.00000000000E+00 0.  1.
</event>
<event>
12    1  0.8728348E-002  0.2469402E+03  0.7818608E-02  0.1115443E+00
         21   -1    0    0  501  502  0.00000000000E+00  0.00000000000E+00  0.56773089335E+03  0.56773089335E+03  0.00000000000E+00 0. -1.
         21   -1    0    0  502  503 -0.00000000000E+00 -0.00000000000E+00 -0.25956755913E+03  0.25956755913E+03  0.00000000000E+00 0.  1.
         -6    2    1    2    0  503 -0.17473926101E+03 -0.27655868338E+02 -0.16330365787E+03  0.29507613456E+03  0.17059655366E+03 0.  0.
        -24    2    3    3    0    0 -0.54527311971E+02  0.48744561956E+02 -0.64378735896E+02  0.12159366101E+03  0.72740199964E+02 0.  0.
          6    2    1    2  501    0  0.17473926101E+03  0.27655868338E+02  0.47146699209E+03  0.53222231792E+03  0.17228120810E+03 0.  0.
         24    2    5    5    0    0  0.49173520611E+02  0.65524934019E+02  0.28237555721E+03  0.30205176802E+03  0.69193664026E+02 0.  0.
          5    1    5    5  501    0  0.12556574040E+03 -0.37869065681E+02  0.18909143488E+03  0.23017054990E+03  0.47000000000E+01 0. -1.
        -13    1    6    6    0    0  0.39805437524E+02  0.37686446005E+02  0.76613753230E+02  0.94204077688E+02  0.00000000000E+00 0.  1.
         14    1    6    6    0    0  0.93680830871E+01  0.27838488014E+02  0.20576180398E+03  0.20784769033E+03  0.00000000000E+00 0. -1.
         -5    1    3    3    0  503 -0.12021194904E+03 -0.76400430294E+02 -0.98924921974E+02  0.17348247355E+03  0.47000000000E+01 0.  1.
         13    1    4    4    0    0  0.64443101910E+01  0.31710269264E+02 -0.15402358937E+01  0.32395102056E+02  0.00000000000E+00 0. -1.
        -14    1    4    4    0    0 -0.60971622162E+02  0.17034292692E+02 -0.62838500002E+02  0.89198558952E+02  0.00000000000E+00 0.  1.
</event>
<event>
12    1  0.8728348E-002  0.2213727E+03  0.7818608E-02  0.1133023E+00
         21   -1    0    0  503  502  0.00000000000E+00  0.00000000000E+00  0.21543709297E+03  0.21543709297E+03  0.00000000000E+00 0. -1.
         21   -1    0    0  501  503 -0.00000000000E+00 -0.00000000000E+00 -0.27074299015E+03  0.27074299015E+03  0.00000000000E+00 0. -1.
          6    2    1    2  501    0 -0.13897659916E+03  0.13294478236E+01 -0.12577375658E+03  0.25386220809E+03  0.17120373917E+03 0.  0.
         24    2    3    3    0    0 -0.49224919257E+02 -0.37933842850E+02 -0.59767265312E+02  0.13564242578E+03  0.10471233241E+03 0.  0.
         -6    2    1    2    0  502  0.13897659916E+03 -0.13294478236E+01  0.70467859395E+02  0.23231787503E+03  0.17230674190E+03 0.  0.
        -24    2    5    5    0    0  0.10075730580E+03  0.53756253462E+02  0.86045621299E+02  0.16332580638E+03  0.78928452572E+02 0.  0.
          5    1    3    3  501    0 -0.89751679900E+02  0.39263290673E+02 -0.66006491269E+02  0.11821978231E+03  0.47000000000E+01 0. -1.
        -11    1    4    4    0    0 -0.33871464373E+02 -0.59589355572E+02  0.18309373685E+01  0.68567628863E+02  0.00000000000E+00 0.  1.
         12    1    4    4    0    0 -0.15353454884E+02  0.21655512722E+02 -0.61598202680E+02  0.67074796918E+02  0.00000000000E+00 0. -1.
         -5    1    5    5    0  502  0.38219293358E+02 -0.55085701285E+02 -0.15577761904E+02  0.68992068652E+02  0.47000000000E+01 0.  1.
         13    1    6    6    0    0  0.14000769919E+02  0.59740968603E+01  0.58605862049E+02  0.60550462080E+02  0.00000000000E+00 0. -1.
        -14    1    6    6    0    0  0.86756535880E+02  0.47782156602E+02  0.27439759250E+02  0.10277534430E+03  0.00000000000E+00 0.  1.
</event>
<event>
12    1  0.8728348E-002  0.2045167E+03  0.7818608E-02  0.1146499E+00
         21   -1    0    0  501  502  0.00000000000E+00  0.00000000000E+00  0.16589076116E+03  0.16589076116E+03  0.00000000000E+00 0.  1.
         21   -1    0    0  502  503 -0.00000000000E+00 -0.00000000000E+00 -0.31135826601E+03  0.31135826601E+03  0.00000000000E+00 0. -1.
         -6    2    1    2    0  503 -0.96832678383E+02  0.50954805277E+02  0.34361312406E+02  0.20491561613E+03  0.16981386917E+03 0.  0.
        -24    2    3    3    0    0 -0.74985288876E+02  0.86051622311E+02 -0.15601627047E+02  0.13989653960E+03  0.79372260744E+02 0.  0.
          6    2    1    2  501    0  0.96832678383E+02 -0.50954805277E+02 -0.17982881725E+03  0.27233341104E+03  0.17278345831E+03 0.  0.
         24    2    5    5    0    0  0.60684778400E+02  0.19853338152E+02 -0.34662211057E+02  0.10675594456E+03  0.78221259633E+02 0.  0.
          5    1    5    5  501    0  0.36147899983E+02 -0.70808143429E+02 -0.14516660620E+03  0.16557746647E+03  0.47000000000E+01 0. -1.
        -11    1    6    6    0    0 -0.18275865680E+02  0.11231436629E+02 -0.55339789440E+01  0.22153495392E+02  0.00000000000E+00 0.  1.
         12    1    6    6    0    0  0.78960644080E+02  0.86219015228E+01 -0.29128232113E+02  0.84602449170E+02  0.00000000000E+00 0. -1.
         -5    1    3    3    0  503 -0.21847389507E+02 -0.35096817034E+02  0.49962939452E+02  0.65019076531E+02  0.47000000000E+01 0.  1.
         13    1    4    4    0    0 -0.86764068472E+02  0.47960151246E+02 -0.12074854588E+02  0.99869824264E+02  0.00000000000E+00 0. -1.
        -14    1    4    4    0    0  0.11778779596E+02  0.38091471065E+02 -0.35267724586E+01  0.40026715336E+02  0.00000000000E+00 0.  1.
</event>
<event>
12    1  0.8728348E-002  0.1887267E+03  0.7818608E-02  0.1160259E+00
         21   -1    0    0  503  502  0.00000000000E+00  0.00000000000E+00  0.16244874962E+04  0.16244874962E+04  0.00000000000E+00 0. -1.
         21   -1    0    0  501  503 -0.00000000000E+00 -0.00000000000E+00 -0.25657589292E+02  0.25657589292E+02  0.00000000000E+00 0. -1.
          6    2    1    2  501    0  0.56486451691E+02 -0.37369562318E+02  0.47638155815E+03  0.51240331960E+03  0.17615495900E+03 0.  0.
         24    2    3    3    0    0  0.13088831676E+02 -0.73214238596E+00  0.81666711257E+02  0.11359565378E+03  0.77863131727E+02 0.  0.
         -6    2    1    2    0  502 -0.56486451691E+02  0.37369562318E+02  0.11224483487E+04  0.11377417659E+04  0.17314394823E+03 0.  0.
        -24    2    5    5    0    0  0.15514170324E+02 -0.14734911104E+02  0.32317900116E+03  0.33353249852E+03  0.79633244873E+02 0.  0.
          5    1    3    3  501    0  0.43397620015E+02 -0.36637419932E+02  0.39471484689E+03  0.39880766582E+03  0.47000000000E+01 0. -1.
        -13    1    4    4    0    0  0.19278811102E+02 -0.19516783936E+02 -0.21116929110E+01  0.27514299185E+02  0.00000000000E+00 0.  1.
         14    1    4    4    0    0 -0.61899794254E+01  0.18784641550E+02  0.83778404168E+02  0.86081354592E+02  0.00000000000E+00 0. -1.
         -5    1    5    5    0  502 -0.72000622015E+02  0.52104473422E+02  0.79926934757E+03  0.80420926735E+03  0.47000000000E+01 0.  1.
         13    1    6    6    0    0 -0.31835680401E+02 -0.35552211335E+01  0.96039241542E+02  0.10124073320E+03  0.00000000000E+00 0. -1.
        -14    1    6    6    0    0  0.47349850725E+02 -0.11179689971E+02  0.22713975962E+03  0.23229176531E+03  0.00000000000E+00 0.  1.
</event>
<event>
12    1  0.8728348E-002  0.1885428E+03  0.7818608E-02  0.1159891E+00
         21   -1    0    0  501  502  0.00000000000E+00  0.00000000000E+00  0.47781954899E+03  0.47781954899E+03  0.00000000000E+00 0. -1.
         21   -1    0    0  502  503 -0.00000000000E+00 -0.00000000000E+00 -0.11691566241E+03  0.11691566241E+03  0.00000000000E+00 0. -1.
         -6    2    1    2    0  503  0.70897001282E+02  0.28568643848E+02  0.58245539985E+00  0.18806591856E+03  0.17183101660E+03 0.  0.
        -24    2    3    3    0    0  0.11394001372E+03  0.37452087303E+02  0.33157580847E+01  0.14378073559E+03  0.79227016249E+02 0.  0.
          6    2    1    2  501    0 -0.70897001282E+02 -0.28568643848E+02  0.36032143118E+03  0.40666929283E+03  0.17235378662E+03 0.  0.
         24    2    5    5    0    0 -0.61744555524E+02  0.37873038886E+02  0.27390886902E+03  0.29718191746E+03  0.89689834002E+02 0.  0.
          5    1    5    5  501    0 -0.91524457575E+01 -0.66441682733E+02  0.86412562161E+02  0.10948737538E+03  0.47000000000E+01 0. -1.
        -13    1    6    6    0    0  0.14019570870E+01  0.29815225399E+02  0.21283137944E+02  0.36659038585E+02  0.00000000000E+00 0.  1.
         14    1    6    6    0    0 -0.63146512611E+02  0.80578134869E+01  0.25262573108E+03  0.26052287887E+03  0.00000000000E+00 0. -1.
         -5    1    3    3    0  503 -0.43043012439E+02 -0.88834434553E+01 -0.27333026849E+01  0.44285182973E+02  0.47000000000E+01 0.  1.
         11    1    4    4    0    0  0.86266667960E+02  0.56235994589E+02 -0.17401846131E+02  0.10443777735E+03  0.00000000000E+00 0. -1.
        -12    1    4    4    0    0  0.27673345760E+02 -0.18783907286E+02  0.20717604216E+02  0.39342958238E+02  0.00000000000E+00 0.  1.
</event>
<event>
12    1  0.8728348E-002  0.1937583E+03  0.7818608E-02  0.1155147E+00
         21   -1    0    0  503  502  0.00000000000E+00  0.00000000000E+00  0.57280745394E+03  0.57280745394E+03  0.00000000000E+00 0.  1.
         21   -1    0    0  501  503 -0.00000000000E+00 -0.00000000000E+00 -0.11607365105E+03  0.11607365105E+03  0.00000000000E+00 0.  1.
          6    2    1    2  501    0 -0.30833285857E+02 -0.84159077999E+02  0.94081052834E+00  0.19361397555E+03  0.17161597967E+03 0.  0.
         24    2    3    3    0    0 -0.74123730230E+02 -0.57087525680E+02 -0.38016110005E+02  0.12921938590E+03  0.80617070774E+02 0.  0.
         -6    2    1    2    0  502  0.30833285857E+02  0.84159077999E+02  0.45579299236E+03  0.49526712944E+03  0.17178136014E+03 0.  0.
        -24    2    5    5    0    0  0.60467377693E+02  0.13894980820E+01  0.29082508669E+03  0.30827653433E+03  0.82443654091E+02 0.  0.
          5    1    3    3  501    0  0.43290444374E+02 -0.27071552319E+02  0.38956920534E+02  0.64394589652E+02  0.47000000000E+01 0. -1.
        -13    1    4    4    0    0 -0.66345204762E+02 -0.28311762922E+02  0.98779483802E+01  0.72806702843E+02  0.00000000000E+00 0.  1.
         14    1    4    4    0    0 -0.77785254688E+01 -0.28775762758E+02 -0.47894058385E+02  0.56412683054E+02  0.00000000000E+00 0. -1.
         -5    1    5    5    0  502 -0.29634091836E+02  0.82769579917E+02  0.16496790566E+03  0.18699059511E+03  0.47000000000E+01 0.  1.
         11    1    6    6    0    0  0.51051678843E+02 -0.32881945982E+01  0.67457642834E+02  0.84661796066E+02  0.00000000000E+00 0. -1.
        -12    1    6    6    0    0  0.94156988496E+01  0.46776926803E+01  0.22336744386E+03  0.22361473827E+03  0.00000000000E+00 0.  1.
</event>
<event>
12    1  0.8728348E-002  0.2051579E+03  0.7818608E-02  0.1145597E+00
         21   -1    0    0  503  502  0.00000000000E+00  0.00000000000E+00  0.14067302910E+03  0.14067302910E+03  0.00000000000E+00 0.  1.
         21   -1    0    0  501  503 -0.00000000000E+00 -0.00000000000E+00 -0.32860689800E+03  0.32860689800E+03  0.00000000000E+00 0.  1.
          6    2    1    2  501    0  0.81512741174E+02  0.77623331981E+02 -0.16546108359E+03  0.26356616800E+03  0.17152272762E+03 0.  0.
         24    2    3    3    0    0 -0.18191950749E+02  0.65269189800E+02 -0.86229423552E+02  0.13552946868E+03  0.79634849064E+02 0.  0.
         -6    2    1    2    0  502 -0.81512741174E+02 -0.77623331981E+02 -0.22472785317E+02  0.20571375910E+03  0.17071442810E+03 0.  0.
        -24    2    5    5    0    0 -0.12367300379E+03 -0.54661004219E+02 -0.26113685480E+02  0.15733915425E+03  0.76097619162E+02 0.  0.
          5    1    3    3  501    0  0.99704691923E+02  0.12354142182E+02 -0.79231660038E+02  0.12803669932E+03  0.47000000000E+01 0. -1.
        -11    1    4    4    0    0 -0.29830032113E+02  0.32245263765E+02 -0.16153872243E+01  0.43956766567E+02  0.00000000000E+00 0.  1.
         12    1    4    4    0    0  0.11638081364E+02  0.33023926035E+02 -0.84614036327E+02  0.91572702112E+02  0.00000000000E+00 0. -1.
         -5    1    5    5    0  502  0.42160262618E+02 -0.22962327763E+02  0.36409001629E+01  0.48374604849E+02  0.47000000000E+01 0.  1.
         11    1    6    6    0    0 -0.51440742752E+02 -0.49455271016E+02 -0.42545415216E+02  0.83078795141E+02  0.00000000000E+00 0. -1.
        -12    1    6    6    0    0 -0.72232261040E+02 -0.52057332026E+01  0.16431729736E+02  0.74260359111E+02  0.00000000000E+00 0.  1.
</event>
<event>
12    1  0.8728348E-002  0.1855996E+03  0.7818608E-02  0.1162884E+00
         21   -1    0    0  501  502  0.00000000000E+00  0.00000000000E+00  0.18772870092E+03  0.18772870092E+03  0.00000000000E+00 0. -1.
         21   -1    0    0  502  503 -0.00000000000E+00 -0.00000000000E+00 -0.29971412874E+03  0.29971412874E+03  0.00000000000E+00 0. -1.
         -6    2    1    2    0  503  0.48497448882E+02 -0.30340148637E+02 -0.20899336735E+03  0.27950928924E+03  0.17656355232E+03 0.  0.
        -24    2    3    3    0    0 -0.42534542444E+02 -0.49249239868E+01 -0.96115733422E+02  0.13221296433E+03  0.80053679177E+02 0.  0.
          6    2    1    2  501    0 -0.48497448882E+02  0.30340148637E+02  0.97007939536E+02  0.20793354042E+03  0.17479499344E+03 0.  0.
         24    2    5    5    0    0  0.20646298388E+02  0.58716832627E+01 -0.71522862031E+01  0.80454105963E+02  0.77207264340E+02 0.  0.
          5    1    5    5  501    0 -0.69143747270E+02  0.24468465375E+02  0.10416022574E+03  0.12747943446E+03  0.47000000000E+01 0. -1.
        -13    1    6    6    0    0  0.26615340273E+02  0.12638953669E+02  0.30102424765E+02  0.42122149333E+02  0.00000000000E+00 0.  1.
         14    1    6    6    0    0 -0.59690418846E+01 -0.67672704059E+01 -0.37254710968E+02  0.38331956630E+02  0.00000000000E+00 0. -1.
         -5    1    3    3    0  503  0.91031991326E+02 -0.25415224651E+02 -0.11287763393E+03  0.14729632490E+03  0.47000000000E+01 0.  1.
         11    1    4    4    0    0  0.17123959858E+02  0.17135480129E+02 -0.12818977880E+02  0.27407679113E+02  0.00000000000E+00 0. -1.
        -12    1    4    4    0    0 -0.59658502302E+02 -0.22060404116E+02 -0.83296755542E+02  0.10480528522E+03  0.00000000000E+00 0.  1.
</event>
<event>
12    1  0.8728348E-002  0.1818049E+03  0.7818608E-02  0.1169769E+00
         21   -1    0    0  503  502  0.00000000000E+00  0.00000000000E+00  0.10158651384E+04  0.10158651384E+04  0.00000000000E+00 0. -1.
         21   -1    0    0  501  503 -0.00000000000E+00 -0.00000000000E+00 -0.43164540233E+02  0.43164540233E+02  0.00000000000E+00 0. -1.
          6    2    1    2  501    0  0.16731684669E+02 -0.60983329358E+02  0.17912070980E+03  0.24489083381E+03  0.15455864930E+03 0.  0.
         24    2    3    3    0    0 -0.30443578377E+02 -0.46794325922E+02  0.44068114060E+02  0.10105715598E+03  0.71791571195E+02 0.  0.
         -6    2    1    2    0  502 -0.16731684669E+02  0.60983329358E+02  0.79357988838E+03  0.81413884484E+03  0.17045264358E+03 0.  0.
        -24    2    5    5    0    0 -0.45641853797E+00  0.29757679236E+02  0.16455100777E+03  0.18410761692E+03  0.77025013198E+02 0.  0.
          5    1    3    3  501    0  0.47175263046E+02 -0.14189003436E+02  0.13505259574E+03  0.14383367783E+03  0.47000000000E+01 0. -1.
        -13    1    4    4    0    0 -0.50334365793E+02 -0.14360239191E+02  0.19985476079E+02  0.56028422283E+02  0.00000000000E+00 0.  1.
         14    1    4    4    0    0  0.19890787416E+02 -0.32434086731E+02  0.24082637981E+02  0.45028733695E+02  0.00000000000E+00 0. -1.
         -5    1    5    5    0  502 -0.16275266131E+02  0.31225650122E+02  0.62902888061E+03  0.63003122792E+03  0.47000000000E+01 0.  1.
         13    1    6    6    0    0  0.15811921025E+02  0.51739214750E+02  0.12290551952E+03  0.13428600045E+03  0.00000000000E+00 0. -1.
        -14    1    6    6    0    0 -0.16268339563E+02 -0.21981535514E+02  0.41645488254E+02  0.49821616469E+02  0.00000000000E+00 0.  1.
</event>
<event>
12    1  0.8728348E-002  0.2011569E+03  0.7818608E-02  0.1148939E+00
         21   -1    0    0  501  502  0.00000000000E+00  0.00000000000E+00  0.46312493177E+02  0.46312493177E+02  0.00000000000E+00 0. -1.
         21   -1    0    0  502  503 -0.00000000000E+00 -0.00000000000E+00 -0.15886447624E+04  0.15886447624E+04  0.00000000000E+00 0.  1.
         -6    2    1    2    0  503  0.91908941385E+02 -0.48490192660E+02 -0.13217860915E+04  0.13370050734E+04  0.17223687889E+03 0.  0.
        -24    2    3    3    0    0 -0.20393462458E+02 -0.92888943172E+01 -0.55236102572E+03  0.55842585875E+03  0.78959230765E+02 0.  0.
          6    2    1    2  501    0 -0.91908941385E+02  0.48490192660E+02 -0.22054617767E+03  0.29795218208E+03  0.17127852763E+03 0.  0.
         24    2    5    5    0    0 -0.36582964467E+02  0.33837194955E+02 -0.40206088824E+02  0.10868963504E+03  0.87827319986E+02 0.  0.
          5    1    5    5  501    0 -0.55325976919E+02  0.14652997705E+02 -0.18034008885E+03  0.18926254704E+03  0.47000000000E+01 0. -1.
        -11    1    6    6    0    0 -0.33113744794E+02  0.13865487320E+02 -0.66450833943E+02  0.75528042240E+02  0.00000000000E+00 0.  1.
         12    1    6    6    0    0 -0.34692196730E+01  0.19971707635E+02  0.26244745119E+02  0.33161592805E+02  0.00000000000E+00 0. -1.
         -5    1    3    3    0  503  0.11230240384E+03 -0.39201298343E+02 -0.76942506578E+03  0.77857921469E+03  0.47000000000E+01 0.  1.
         13    1    4    4    0    0 -0.67870761313E+01  0.15796998533E+02 -0.25279179764E+02  0.30571988725E+02  0.00000000000E+00 0. -1.
        -14    1    4    4    0    0 -0.13606386327E+02 -0.25085892850E+02 -0.52708184595E+03  0.52785387003E+03  0.00000000000E+00 0.  1.
</event>
<event>
12    1  0.8728348E-002  0.1743578E+03  0.7818608E-02  0.1173841E+00
         21   -1    0    0  503  502  0.00000000000E+00  0.00000000000E+00  0.20937532676E+04  0.20937532676E+04  0.00000000000E+00 0.  1.
         21   -1    0    0  501  503 -0.00000000000E+00 -0.00000000000E+00 -0.16827934482E+02  0.16827934482E+02  0.00000000000E+00 0.  1.
          6    2    1    2  501    0 -0.18298359899E+02  0.38011723777E+01  0.14372540900E+04  0.14475729414E+04  0.17151916083E+03 0.  0.
         24    2    3    3    0    0  0.31895443268E+02 -0.91336544499E+01  0.39439901154E+03  0.40341991990E+03  0.78078860906E+02 0.  0.
         -6    2    1    2    0  502  0.18298359899E+02 -0.38011723777E+01  0.63967124311E+03  0.66300826068E+03  0.17335332587E+03 0.  0.
        -24    2    5    5    0    0  0.59366628112E+02 -0.31343826307E+02  0.25897437022E+03  0.27908457105E+03  0.79458425503E+02 0.  0.
          5    1    3    3  501    0 -0.50193803168E+02  0.12934826828E+02  0.10428550785E+04  0.10441530215E+04  0.47000000000E+01 0. -1.
        -11    1    4    4    0    0  0.28143473299E+02 -0.38995905512E+02  0.31223941021E+03  0.31592116900E+03  0.00000000000E+00 0.  1.
         12    1    4    4    0    0  0.37519699698E+01  0.29862251062E+02  0.82159601335E+02  0.87498750898E+02  0.00000000000E+00 0. -1.
         -5    1    5    5    0  502 -0.41068268212E+02  0.27542653930E+02  0.38069687288E+03  0.38392368963E+03  0.47000000000E+01 0.  1.
         13    1    6    6    0    0  0.50384848578E+02 -0.45915453620E+02  0.25119888434E+03  0.26028396290E+03  0.00000000000E+00 0. -1.
        -14    1    6    6    0    0  0.89817795340E+01  0.14571627312E+02  0.77754858827E+01  0.18800608151E+02  0.00000000000E+00 0.  1.
</event>
<event>
12    1  0.8728348E-002  0.1927770E+03  0.7818608E-02  0.1156479E+00
         21   -1    0    0  503  502  0.00000000000E+00  0.00000000000E+00  0.88090075374E+02  0.88090075374E+02  0.00000000000E+00 0.  1.
         21   -1    0    0  501  503 -0.00000000000E+00 -0.00000000000E+00 -0.46009331566E+03  0.46009331566E+03  0.00000000000E+00 0.  1.
          6    2    1    2  501    0 -0.72294863382E+02 -0.43348748039E+02 -0.26891342602E+03  0.32957305768E+03  0.17087512524E+03 0.  0.
         24    2    3    3    0    0 -0.10037810985E+03 -0.40277776270E+01 -0.24570612389E+03  0.27576342733E+03  0.74712653587E+02 0.  0.
         -6    2    1    2    0  502  0.72294863382E+02  0.43348748039E+02 -0.10308981427E+03  0.21861033336E+03  0.17337043236E+03 0.  0.
        -24    2    5    5    0    0  0.25504307815E+02 -0.21845023670E+02 -0.10677911126E+03  0.13814117857E+03  0.80953887114E+02 0.  0.
          5    1    3    3  501    0  0.28083246469E+02 -0.39320970412E+02 -0.23207302130E+02  0.53809630351E+02  0.47000000000E+01 0. -1.
        -11    1    4    4    0    0 -0.78178581576E+02 -0.27006339415E+02 -0.21907711452E+03  0.23417091000E+03  0.00000000000E+00 0.  1.
         12    1    4    4    0    0 -0.22199528275E+02  0.22978561788E+02 -0.26629009369E+02  0.41592517325E+02  0.00000000000E+00 0. -1.
         -5    1    5    5    0  502  0.46790555567E+02  0.65193771709E+02  0.36892969885E+01  0.80469154788E+02  0.47000000000E+01 0.  1.
         11    1    6    6    0    0 -0.92159647770E+01 -0.16230998352E+02 -0.10074090768E+03  0.10245540393E+03  0.00000000000E+00 0. -1.
        -12    1    6    6    0    0  0.34720272592E+02 -0.56140253181E+01 -0.60382035786E+01  0.35685774639E+02  0.00000000000E+00 0.  1.
</event>
<event>
12    1  0.8728348E-002  0.1985629E+03  0.7818608E-02  0.1152524E+00
         21   -1    0    0  503  502  0.00000000000E+00  0.00000000000E+00  0.13050789990E+03  0.13050789990E+03  0.00000000000E+00 0. -1.
         21   -1    0    0  501  503 -0.00000000000E+00 -0.00000000000E+00 -0.32809135460E+03  0.32809135460E+03  0.00000000000E+00 0. -1.
          6    2    1    2  501    0 -0.41322970672E+02 -0.72340816745E+02 -0.17726166731E+03  0.26617457734E+03  0.18023991027E+03 0.  0.
         24    2    3    3    0    0  0.44284815521E+02 -0.21951221868E+02 -0.11616852298E+03  0.14946011118E+03  0.80001237948E+02 0.  0.
         -6    2    1    2    0  502  0.41322970672E+02  0.72340816745E+02 -0.20321787392E+02  0.19242467716E+03  0.17225997696E+03 0.  0.
        -24    2    5    5    0    0  0.48509660282E+02  0.10978676745E+03 -0.37621090931E+02  0.15029151166E+03  0.82254911991E+02 0.  0.
          5    1    3    3  501    0 -0.85607786193E+02 -0.50389594877E+02 -0.61093144330E+02  0.11671446617E+03  0.47000000000E+01 0. -1.
        -13    1    4    4    0    0  0.21075169742E+02  0.29512402235E+02 -0.57965845225E+02  0.68375316292E+02  0.00000000000E+00 0.  1.
         14    1    4    4    0    0  0.23209645779E+02 -0.51463624104E+02 -0.58202677758E+02  0.81084794883E+02  0.00000000000E+00 0. -1.
         -5    1    5    5    0  502 -0.71866896097E+01 -0.37445950704E+02  0.17299303538E+02  0.42133165495E+02  0.47000000000E+01 0.  1.
         13    1    6    6    0    0  0.35626538374E+02  0.78680365391E+00 -0.11780973201E+02  0.37532127918E+02  0.00000000000E+00 0. -1.
        -14    1    6    6    0    0  0.12883121907E+02  0.10899996380E+03 -0.25840117730E+02  0.11275938374E+03  0.00000000000E+00 0.  1.
</event>
<event>
12    1  0.8728348E-002  0.1927794E+03  0.7818608E-02  0.1156282E+00
         21   -1    0    0  501  502  0.00000000000E+00  0.00000000000E+00  0.43774796910E+03  0.43774796910E+03  0.00000000000E+00 0.  1.
         21   -1    0    0  502  503 -0.00000000000E+00 -0.00000000000E+00 -0.84299256564E+02  0.84299256564E+02  0.00000000000E+00 0.  1.
         -6    2    1    2    0  503  0.68128151780E+02  0.52787111890E+02  0.17741530905E+03  0.26098852209E+03  0.17091194379E+03 0.  0.
        -24    2    3    3    0    0  0.30216746961E+02  0.78245985182E+01  0.18241401008E+03  0.20177721206E+03  0.80404577571E+02 0.  0.
          6    2    1    2  501    0 -0.68128151780E+02 -0.52787111890E+02  0.17603340348E+03  0.26105870357E+03  0.17244118801E+03 0.  0.
         24    2    5    5    0    0 -0.32552572566E+02 -0.41790177130E+02  0.19630503532E+03  0.21840212767E+03  0.79735397356E+02 0.  0.
          5    1    5    5  501    0 -0.35575579214E+02 -0.10996934760E+02 -0.20271631840E+02  0.42656575905E+02  0.47000000000E+01 0. -1.
        -11    1    6    6    0    0 -0.54890574736E+02 -0.46824377872E+02  0.13714665435E+03  0.15496677824E+03  0.00000000000E+00 0.  1.
         12    1    6    6    0    0  0.22338002170E+02  0.50342007413E+01  0.59158380971E+02  0.63435349429E+02  0.00000000000E+00 0. -1.
         -5    1    3    3    0  503  0.37911404818E+02  0.44962513372E+02 -0.49987010226E+01  0.59211310034E+02  0.47000000000E+01 0.  1.
         11    1    4    4    0    0  0.13574671073E+02  0.43869804116E+02  0.85625496949E+02  0.97162529483E+02  0.00000000000E+00 0. -1.
        -12    1    4    4    0    0  0.16642075888E+02 -0.36045205598E+02  0.96788513126E+02  0.10461468257E+03  0.00000000000E+00 0.  1.
</event>
<event>
12    1  0.8728348E-002  0.3005399E+03  0.7818608E-02  0.1085291E+00
         21   -1    0    0  501  502  0.00000000000E+00  0.00000000000E+00  0.42450169662E+03  0.42450169662E+03  0.00000000000E+00 0. -1.
         21   -1    0    0  502  503 -0.00000000000E+00 -0.00000000000E+00 -0.24030420604E+03  0.24030420604E+03  0.00000000000E+00 0. -1.
         -6    2    1    2    0  503 -0.15461518087E+03 -0.19229828234E+03 -0.24372407369E+02  0.29898408226E+03  0.16707179192E+03 0.  0.
        -24    2    3    3    0    0 -0.15539538946E+03 -0.20144183175E+03  0.61120648535E+01  0.26680324529E+03  0.80125374967E+02 0.  0.
          6    2    1    2  501    0  0.15461518087E+03  0.19229828234E+03  0.20856989795E+03  0.36582182040E+03  0.17158006412E+03 0.  0.
         24    2    5    5    0    0  0.30638284668E+02  0.32167821804E+02  0.11497057476E+03  0.14267398043E+03  0.71862078890E+02 0.  0.
          5    1    5    5  501    0  0.12397689620E+03  0.16013046053E+03  0.93599323187E+02  0.22314783997E+03  0.47000000000E+01 0. -1.
        -13    1    6    6    0    0  0.30351499620E+02 -0.10601053762E+02  0.83786566717E+02  0.89742880677E+02  0.00000000000E+00 0.  1.
         14    1    6    6    0    0  0.28678504742E+00  0.42768875567E+02  0.31184008048E+02  0.52931099751E+02  0.00000000000E+00 0. -1.
         -5    1    3    3    0  503  0.78020858947E+00  0.91435494143E+01 -0.30484472222E+02  0.32180836969E+02  0.47000000000E+01 0.  1.
         13    1    4    4    0    0 -0.82661693573E+02 -0.14500764975E+03 -0.26770960089E+02  0.16904691176E+03  0.00000000000E+00 0. -1.
        -14    1    4    4    0    0 -0.72733695887E+02 -0.56434181999E+02  0.32883024943E+02  0.97756333528E+02  0.00000000000E+00 0.  1.
</event>
<event>
12    1  0.8728348E-002  0.2636386E+03  0.7818608E-02  0.1106436E+00
         21   -1    0    0  501  502  0.00000000000E+00  0.00000000000E+00  0.27848101469E+03  0.27848101469E+03  0.00000000000E+00 0. -1.
         21   -1    0    0  502  503 -0.00000000000E+00 -0.00000000000E+00 -0.26645300170E+03  0.26645300170E+03  0.00000000000E+00 0.  1.
         -6    2    1    2    0  503 -0.41779147640E+02  0.18478774052E+03 -0.79124247473E+02  0.26598233497E+03  0.16909745638E+03 0.  0.
        -24    2    3    3    0    0 -0.28050368487E+02  0.10877670534E+03  0.22402775729E+02  0.13832661325E+03  0.77544650220E+02 0.  0.
          6    2    1    2  501    0  0.41779147640E+02 -0.18478774052E+03  0.91152260463E+02  0.27895168143E+03  0.18333930228E+03 0.  0.
         24    2    5    5    0    0  0.16637132037E+02 -0.15432576486E+03 -0.70138196424E+01  0.17303321187E+03  0.76145012192E+02 0.  0.
          5    1    5    5  501    0  0.25142015603E+02 -0.30461975655E+02  0.98166080105E+02  0.10591846955E+03  0.47000000000E+01 0. -1.
        -13    1    6    6    0    0 -0.19187708010E+02 -0.12246229634E+03 -0.13343249490E+02  0.12467246877E+03  0.00000000000E+00 0.  1.
         14    1    6    6    0    0  0.35824840047E+02 -0.31863468524E+02  0.63294298478E+01  0.48360743098E+02  0.00000000000E+00 0. -1.
         -5    1    3    3    0  503 -0.13728779152E+02  0.76011035183E+02 -0.10152702320E+03  0.12765572172E+03  0.47000000000E+01 0.  1.
         13    1    4    4    0    0 -0.42426798171E+02  0.11344685141E+03  0.17175825666E+02  0.12233245802E+03  0.00000000000E+00 0. -1.
        -14    1    4    4    0    0  0.14376429684E+02 -0.46701460702E+01  0.52269500630E+01  0.15994155237E+02  0.00000000000E+00 0.  1.
</event>
<event>
12    1  0.8728348E-002  0.1821144E+03  0.7818608E-02  0.1165929E+00
         21   -1    0    0  503  502  0.00000000000E+00  0.00000000000E+00  0.27570586913E+03  0.27570586913E+03  0.00000000000E+00 0.  1.
         21   -1    0    0  501  503 -0.00000000000E+00 -0.00000000000E+00 -0.32708337346E+03  0.32708337346E+03  0.00000000000E+00 0.  1.
          6    2    1    2  501    0 -0.54776944845E+02  0.23777767720E+02 -0.26556929667E+03  0.32164197920E+03  0.17134939604E+03 0.  0.
         24    2    3    3    0    0 -0.10078224410E+03 -0.29646320368E+01 -0.19159908906E+03  0.23039875963E+03  0.78787865429E+02 0.  0.
         -6    2    1    2    0  502  0.54776944845E+02 -0.23777767720E+02  0.21419179234E+03  0.28114726339E+03  0.17204581913E+03 0.  0.
        -24    2    5    5    0    0 -0.11254202197E+02  0.12796450856E+02  0.35303631414E+02  0.86928701033E+02  0.77587669450E+02 0.  0.
          5    1    3    3  501    0  0.46005299255E+02  0.26742399756E+02 -0.73970207605E+02  0.91243219569E+02  0.47000000000E+01 0. -1.
        -11    1    4    4    0    0  0.50683235044E+01  0.18939152476E+02 -0.24385518419E+02  0.31289501566E+02  0.00000000000E+00 0.  1.
         12    1    4    4    0    0 -0.10585056760E+03 -0.21903784513E+02 -0.16721357064E+03  0.19910925806E+03  0.00000000000E+00 0. -1.
         -5    1    5    5    0  502  0.66031147041E+02 -0.36574218576E+02  0.17888816092E+03  0.19421856235E+03  0.47000000000E+01 0.  1.
         13    1    6    6    0    0  0.17230877608E+02  0.29945219610E+02  0.40546097294E+02  0.53269178015E+02  0.00000000000E+00 0. -1.
        -14    1    6    6    0    0 -0.28485079805E+02 -0.17148768754E+02 -0.52424658799E+01  0.33659523018E+02  0.00000000000E+00 0.  1.
</event>
<event>
12    1  0.8728348E-002  0.3046218E+03  0.7818608E-02  0.1082962E+00
         21   -1    0    0  503  502  0.00000000000E+00  0.00000000000E+00  0.13700945348E+04  0.13700945348E+04  0.00000000000E+00 0.  1.
         21   -1    0    0  501  503 -0.00000000000E+00 -0.00000000000E+00 -0.79622369889E+02  0.79622369889E+02  0.00000000000E+00 0. -1.
          6    2    1    2  501    0 -0.16271418545E+03  0.19223209294E+03  0.36481715333E+03  0.47522644159E+03  0.17122947095E+03 0.  0.
         24    2    3    3    0    0 -0.12657949016E+02  0.53730532594E+02  0.13610528757E+03  0.16858208105E+03  0.82753096269E+02 0.  0.
         -6    2    1    2    0  502  0.16271418545E+03 -0.19223209294E+03  0.92565501154E+03  0.97449046306E+03  0.17136329389E+03 0.  0.
        -24    2    5    5    0    0  0.10609683468E+03 -0.40664897625E+02  0.50039777143E+03  0.51946964005E+03  0.80874007271E+02 0.  0.
          5    1    3    3  501    0 -0.15005623644E+03  0.13850156034E+03  0.22871186576E+03  0.30664436054E+03  0.47000000000E+01 0. -1.
        -11    1    4    4    0    0 -0.24506558926E+02 -0.11251111808E+02  0.70516854976E+02  0.75496925653E+02  0.00000000000E+00 0.  1.
         12    1    4    4    0    0  0.11848609910E+02  0.64981644403E+02  0.65588432592E+02  0.93085155400E+02  0.00000000000E+00 0. -1.
         -5    1    5    5    0  502  0.56617350771E+02 -0.15156719531E+03  0.42525724011E+03  0.45502082301E+03  0.47000000000E+01 0.  1.
         11    1    6    6    0    0  0.94646840507E+02 -0.48404818939E+02  0.49187682419E+03  0.50323340617E+03  0.00000000000E+00 0. -1.
        -12    1    6    6    0    0  0.11449994175E+02  0.77399213142E+01  0.85209472390E+01  0.16236233874E+02  0.00000000000E+00 0.  1.
</event>
<event>
12    1  0.8728348E-002  0.1956804E+03  0.7818608E-02  0.1153472E+00
         21   -1    0    0  501  502  0.00000000000E+00  0.00000000000E+00  0.34242793089E+03  0.34242793089E+03  0.00000000000E+00 0. -1.
         21   -1    0    0  502  503 -0.00000000000E+00 -0.00000000000E+00 -0.25811880661E+03  0.25811880661E+03  0.00000000000E+00 0. -1.
         -6    2    1    2    0  503 -0.62791005334E+02 -0.69542910521E+02 -0.18398714716E+03  0.26847191350E+03  0.17160119832E+03 0.  0.
        -24    2    3    3    0    0 -0.76515917718E+02 -0.31244307832E+00 -0.15839906923E+03  0.19325176611E+03  0.80007478928E+02 0.  0.
          6    2    1    2  501    0  0.62791005334E+02  0.69542910521E+02  0.26829627145E+03  0.33207482400E+03  0.17179019969E+03 0.  0.
         24    2    5    5    0    0  0.11322009256E+02  0.10554738909E+03  0.17175838067E+03  0.21680542481E+03  0.78963356439E+02 0.  0.
          5    1    5    5  501    0  0.51468996078E+02 -0.36004478566E+02  0.96537890777E+02  0.11526939919E+03  0.47000000000E+01 0. -1.
        -13    1    6    6    0    0 -0.32807055161E+02  0.50075798285E+02  0.95310553506E+02  0.11255216591E+03  0.00000000000E+00 0.  1.
         14    1    6    6    0    0  0.44129064417E+02  0.55471590802E+02  0.76447827163E+02  0.10425325890E+03  0.00000000000E+00 0. -1.
         -5    1    3    3    0  503  0.13724912384E+02 -0.69230467442E+02 -0.25588077927E+02  0.75220147396E+02  0.47000000000E+01 0.  1.
         13    1    4    4    0    0 -0.72503516510E+01 -0.29035326731E+02 -0.76833963808E+02  0.82456508487E+02  0.00000000000E+00 0. -1.
        -14    1    4    4    0    0 -0.69265566067E+02  0.28722883652E+02 -0.81565105424E+02  0.11079525762E+03  0.00000000000E+00 0.  1.
</event>
<event>
12    1  0.8728348E-002  0.2194873E+03  0.7818608E-02  0.1134982E+00
         21   -1    0    0  503  502  0.00000000000E+00  0.00000000000E+00  0.81947376777E+03  0.81947376777E+03  0.00000000000E+00 0.  1.
         21   -1    0    0  501  503 -0.00000000000E+00 -0.00000000000E+00 -0.60214136500E+02  0.60214136500E+02  0.00000000000E+00 0. -1.
          6    2    1    2  501    0 -0.11496382582E+03 -0.67260795020E+02  0.28793036973E+03  0.35975913313E+03  0.16965270485E+03 0.  0.
         24    2    3    3    0    0 -0.12614874741E+03 -0.90525144523E+02  0.18761514341E+03  0.25606936960E+03  0.79143993739E+02 0.  0.
         -6    2    1    2    0  502  0.11496382582E+03  0.67260795020E+02  0.47132926154E+03  0.51992877114E+03  0.17445331320E+03 0.  0.
        -24    2    5    5    0    0  0.60216582998E+02  0.46073006294E+02  0.15388368689E+03  0.19706662432E+03  0.96986115258E+02 0.  0.
          5    1    3    3  501    0  0.11184921596E+02  0.23264349503E+02  0.10031522632E+03  0.10368976353E+03  0.47000000000E+01 0. -1.
        -11    1    4    4    0    0  0.50108557705E+01  0.62935555685E+01  0.23105767935E+02  0.24466181335E+02  0.00000000000E+00 0.  1.
         12    1    4    4    0    0 -0.13115960318E+03 -0.96818700092E+02  0.16450937547E+03  0.23160318826E+03  0.00000000000E+00 0. -1.
         -5    1    5    5    0  502  0.54747242820E+02  0.21187788726E+02  0.31744557465E+03  0.32286214682E+03  0.47000000000E+01 0.  1.
         13    1    6    6    0    0  0.66871867089E+02  0.24471551897E+02  0.41472723945E+02  0.82405644780E+02  0.00000000000E+00 0. -1.
        -14    1    6    6    0    0 -0.66552840916E+01  0.21601454397E+02  0.11241096295E+03  0.11466097954E+03  0.00000000000E+00 0.  1.
</event>
<event>
12    1  0.8728348E-002  0.1890070E+03  0.7818608E-02  0.1159567E+00
         21   -1    0    0  503  502  0.00000000000E+00  0.00000000000E+00  0.40765618975E+03  0.40765618975E+03  0.00000000000E+00 0. -1.
         21   -1    0    0  501  503 -0.00000000000E+00 -0.00000000000E+00 -0.96359879365E+02  0.96359879365E+02  0.00000000000E+00 0. -1.
          6    2    1    2  501    0  0.46031292160E+02  0.63074363543E+02  0.23364225932E+03  0.30052010540E+03  0.17212313388E+03 0.  0.
         24    2    3    3    0    0  0.25581931210E+02 -0.24757222636E+02  0.16434154402E+03  0.18669021901E+03  0.81103264462E+02 0.  0.
         -6    2    1    2    0  502 -0.46031292160E+02 -0.63074363543E+02  0.77654051063E+02  0.20349596371E+03  0.17112334851E+03 0.  0.
        -24    2    5    5    0    0  0.11184398505E+02  0.25645050257E+02  0.36373044885E+02  0.90045617242E+02  0.77475514956E+02 0.  0.
          5    1    3    3  501    0  0.20449360951E+02  0.87831586179E+02  0.69300715299E+02  0.11382988639E+03  0.47000000000E+01 0. -1.
        -13    1    4    4    0    0  0.28344297525E+02 -0.17247722963E+02  0.13798052700E+02  0.35934237266E+02  0.00000000000E+00 0.  1.
         14    1    4    4    0    0 -0.27623663154E+01 -0.75094996731E+01  0.15054349132E+03  0.15075598175E+03  0.00000000000E+00 0. -1.
         -5    1    5    5    0  502 -0.57215690665E+02 -0.88719413801E+02  0.41281006178E+02  0.11345034647E+03  0.47000000000E+01 0.  1.
         13    1    6    6    0    0  0.19636777979E+01 -0.70814195763E+01 -0.21612027196E+02  0.22827226140E+02  0.00000000000E+00 0. -1.
        -14    1    6    6    0    0  0.92207207069E+01  0.32726469834E+02  0.57985072081E+02  0.67218391102E+02  0.00000000000E+00 0.  1.
</event>
<event>
12    1  0.8728348E-002  0.1951208E+03  0.7818608E-02  0.1154449E+00
         21   -1    0    0  501  502  0.00000000000E+00  0.00000000000E+00  0.15580715675E+03  0.15580715675E+03  0.00000000000E+00 0.  1.
         21   -1    0    0  502  503 -0.00000000000E+00 -0.00000000000E+00 -0.50532660994E+03  0.50532660994E+03  0.00000000000E+00 0.  1.
         -6    2    1    2    0  503  0.18499522519E+02 -0.88430285986E+02 -0.41419400959E+03  0.45785240190E+03  0.17294506796E+03 0.  0.
        -24    2    3    3    0    0  0.33821051197E+02 -0.87590097625E+02 -0.14974880296E+03  0.19292068906E+03  0.77316230986E+02 0.  0.
          6    2    1    2  501    0 -0.18499522519E+02  0.88430285986E+02  0.64674556396E+02  0.20328136480E+03  0.17023033577E+03 0.  0.
         24    2    5    5    0    0 -0.35617200329E+02  0.39309470405E+01 -0.12143560848E+02  0.87712050909E+02  0.79132171086E+02 0.  0.
          5    1    5    5  501    0  0.17117677810E+02  0.84499338945E+02  0.76818117245E+02  0.11556931389E+03  0.47000000000E+01 0. -1.
        -11    1    6    6    0    0 -0.73057663055E+01  0.55812064937E+01  0.33078993963E+02  0.34332840384E+02  0.00000000000E+00 0.  1.
         12    1    6    6    0    0 -0.28311434024E+02 -0.16502594532E+01 -0.45222554811E+02  0.53379210526E+02  0.00000000000E+00 0. -1.
         -5    1    3    3    0  503 -0.15321528679E+02 -0.84018836077E+00 -0.26444520663E+03  0.26493171283E+03  0.47000000000E+01 0.  1.
         11    1    4    4    0    0  0.29595933254E+02  0.40671319834E+01 -0.36506992576E+02  0.47172251745E+02  0.00000000000E+00 0. -1.
        -12    1    4    4    0    0  0.42251179435E+01 -0.91657229608E+02 -0.11324181039E+03  0.14574843732E+03  0.00000000000E+00 0.  1.
</event>
<event>
12    1  0.8728348E-002  0.2778414E+03  0.7818608E-02  0.1097098E+00
         21   -1    0    0  503  502  0.00000000000E+00  0.00000000000E+00  0.28318192231E+03  0.28318192231E+03  0.00000000000E+00 0.  1.
         21   -1    0    0  501  503 -0.00000000000E+00 -0.00000000000E+00 -0.33282728804E+03  0.33282728804E+03  0.00000000000E+00 0. -1.
          6    2    1    2  501    0  0.46261902758E+02  0.21122996303E+03 -0.15750203661E+03  0.31796740603E+03  0.17186657277E+03 0.  0.
         24    2    3    3    0    0  0.74398629938E+02  0.21307140398E+03 -0.16171220303E+03  0.28907308440E+03  0.80484981089E+02 0.  0.
         -6    2    1    2    0  502 -0.46261902758E+02 -0.21122996303E+03  0.10785667088E+03  0.29804180432E+03  0.17446373474E+03 0.  0.
        -24    2    5    5    0    0 -0.63812633679E+02 -0.72033521874E+02  0.60154041352E+01  0.12461340123E+03  0.78939433668E+02 0.  0.
          5    1    3    3  501    0 -0.28136727180E+02 -0.18414409559E+01  0.42101664284E+01  0.28894321631E+02  0.47000000000E+01 0. -1.
        -13    1    4    4    0    0  0.95530905362E+01  0.58868098425E+02 -0.49924266355E+01  0.59846795025E+02  0.00000000000E+00 0.  1.
         14    1    4    4    0    0  0.64845539401E+02  0.15420330556E+03 -0.15671977640E+03  0.22922628937E+03  0.00000000000E+00 0. -1.
         -5    1    5    5    0  502  0.17550730921E+02 -0.13919644116E+03  0.10184126674E+03  0.17342840309E+03  0.47000000000E+01 0.  1.
         11    1    6    6    0    0  0.17284823114E+02 -0.16081560392E+02 -0.83570399495E+01  0.25044396808E+02  0.00000000000E+00 0. -1.
        -12    1    6    6    0    0 -0.81097456794E+02 -0.55951961482E+02  0.14372444085E+02  0.99569004419E+02  0.00000000000E+00 0.  1.
</event>
<event>
12    1  0.8728348E-002  0.2514858E+03  0.7818608E-02  0.1112473E+00
         21   -1    0    0  503  502  0.00000000000E+00  0.00000000000E+00  0.76632604594E+02  0.76632604594E+02  0.00000000000E+00 0. -1.
         21   -1    0    0  501  503 -0.00000000000E+00 -0.00000000000E+00 -0.10780458090E+04  0.10780458090E+04  0.00000000000E+00 0.  1.
          6    2    1    2  501    0  0.91344227841E+02  0.15703293625E+03 -0.78094541432E+03  0.82023686803E+03  0.17294411960E+03 0.  0.
         24    2    3    3    0    0  0.44288587122E+02  0.17573318436E+03 -0.57319809200E+03  0.60635612432E+03  0.79171117125E+02 0.  0.
         -6    2    1    2    0  502 -0.91344227841E+02 -0.15703293625E+03 -0.22046779005E+03  0.33444154553E+03  0.17390224235E+03 0.  0.
        -24    2    5    5    0    0 -0.36482507952E+01 -0.11319171617E+03 -0.18982804975E+03  0.23161391960E+03  0.69171127909E+02 0.  0.
          5    1    3    3  501    0  0.47055640719E+02 -0.18700248105E+02 -0.20774732231E+03  0.21388074371E+03  0.47000000000E+01 0. -1.
        -13    1    4    4    0    0 -0.22685580877E+02  0.33044405865E+02 -0.12230537212E+03  0.12870575895E+03  0.00000000000E+00 0.  1.
         14    1    4    4    0    0  0.66974167999E+02  0.14268877849E+03 -0.45089271989E+03  0.47765036537E+03  0.00000000000E+00 0. -1.
         -5    1    5    5    0  502 -0.87695977046E+02 -0.43841220080E+02 -0.30639740303E+02  0.10282762593E+03  0.47000000000E+01 0.  1.
         13    1    6    6    0    0 -0.33121687973E+02 -0.54641153331E+02 -0.68260235613E+02  0.93499527365E+02  0.00000000000E+00 0. -1.
        -14    1    6    6    0    0  0.29473437178E+02 -0.58550562844E+02 -0.12156781414E+03  0.13811439223E+03  0.00000000000E+00 0.  1.
</event>
<event>
12    1  0.8728348E-002  0.2111998E+03  0.7818608E-02  0.1140636E+00
         21   -1    0    0  503  502  0.00000000000E+00  0.00000000000E+00  0.62240785481E+03  0.62240785481E+03  0.00000000000E+00 0.  1.
         21   -1    0    0  501  503 -0.00000000000E+00 -0.00000000000E+00 -0.71647954221E+02  0.71647954221E+02  0.00000000000E+00 0. -1.
          6    2    1    2  501    0  0.11661016918E+02  0.12237709432E+03  0.27114089342E+03  0.34368989257E+03  0.17173591832E+03 0.  0.
         24    2    3    3    0    0  0.60700123713E+02  0.33857591941E+02  0.61525412852E+02  0.11087821763E+03  0.60644547707E+02 0.  0.
         -6    2    1    2    0  502 -0.11661016918E+02 -0.12237709432E+03  0.27961900717E+03  0.35036591646E+03  0.17163144734E+03 0.  0.
        -24    2    5    5    0    0 -0.19043399554E+02 -0.14869451294E+03  0.27329102371E+03  0.32191878179E+03  0.80442583158E+02 0.  0.
          5    1    3    3  501    0 -0.49039106795E+02  0.88519502382E+02  0.20961548057E+03  0.23281167495E+03  0.47000000000E+01 0. -1.
        -11    1    4    4    0    0  0.66583616540E+02  0.18481488951E+02  0.64053382261E+02  0.94221967738E+02  0.00000000000E+00 0.  1.
         12    1    4    4    0    0 -0.58834928270E+01  0.15376102990E+02 -0.25279694088E+01  0.16656249888E+02  0.00000000000E+00 0. -1.
         -5    1    5    5    0  502  0.73823826364E+01  0.26317418616E+02  0.63279834555E+01  0.28447134665E+02  0.47000000000E+01 0.  1.
         11    1    6    6    0    0 -0.38819479549E+02 -0.28238380586E+02  0.73456501882E+02  0.87750873496E+02  0.00000000000E+00 0. -1.
        -12    1    6    6    0    0  0.19776079995E+02 -0.12045613235E+03  0.19983452183E+03  0.23416790830E+03  0.00000000000E+00 0.  1.
</event>
<event>
12    1  0.8728348E-002  0.2171662E+03  0.7818608E-02  0.1136039E+00
         21   -1    0    0  503  502  0.00000000000E+00  0.00000000000E+00  0.78766816187E+03  0.78766816187E+03  0.00000000000E+00 0.  1.
         21   -1    0    0  501  503 -0.00000000000E+00 -0.00000000000E+00 -0.68870052826E+02  0.68870052826E+02  0.00000000000E+00 0.  1.
          6    2    1    2  501    0 -0.85209668350E+02 -0.10273410793E+03  0.51440024556E+03  0.55831070765E+03  0.17113809958E+03 0.  0.
         24    2    3    3    0    0 -0.11181815222E+03 -0.11669166085E+03  0.48017059172E+03  0.51252223859E+03  0.77427417683E+02 0.  0.
         -6    2    1    2    0  502  0.85209668350E+02  0.10273410793E+03  0.20439786348E+03  0.29822750705E+03  0.17130725277E+03 0.  0.
        -24    2    5    5    0    0  0.21380113761E+02  0.98951634161E+02  0.19412247660E+03  0.23329529068E+03  0.80589214942E+02 0.  0.
          5    1    3    3  501    0  0.26608483870E+02  0.13957552919E+02  0.34229653840E+02  0.45788469065E+02  0.47000000000E+01 0. -1.
        -13    1    4    4    0    0 -0.47348609448E+02 -0.10287231793E+03  0.29913138284E+03  0.31985025999E+03  0.00000000000E+00 0.  1.
         14    1    4    4    0    0 -0.64469542772E+02 -0.13819342922E+02  0.18103920888E+03  0.19267197860E+03  0.00000000000E+00 0. -1.
         -5    1    5    5    0  502  0.63829554588E+02  0.37824737725E+01  0.10275386882E+02  0.64932216367E+02  0.47000000000E+01 0.  1.
         11    1    6    6    0    0 -0.18564396106E+02  0.78415942216E+02  0.95697574392E+02  0.12510684450E+03  0.00000000000E+00 0. -1.
        -12    1    6    6    0    0  0.39944509868E+02  0.20535691944E+02  0.98424902207E+02  0.10818844618E+03  0.00000000000E+00 0.  1.
</event>
<event>
12    1  0.8728348E-002  0.1896918E+03  0.7818608E-02  0.1159090E+00
         21   -1    0    0  503  502  0.00000000000E+00  0.00000000000E+00  0.72784815112E+02  0.72784815112E+02  0.00000000000E+00 0. -1.
         21   -1    0    0  501  503 -0.00000000000E+00 -0.00000000000E+00 -0.55425977715E+03  0.55425977715E+03  0.00000000000E+00 0. -1.
          6    2    1    2  501    0 -0.18363155441E+02  0.73724353038E+02 -0.34631782037E+03  0.39412738125E+03  0.17212749413E+03 0.  0.
         24    2    3    3    0    0  0.19561171742E+01 -0.27148230744E+02 -0.16618160954E+03  0.18662004294E+03  0.80435441515E+02 0.  0.
         -6    2    1    2    0  502  0.18363155441E+02 -0.73724353038E+02 -0.13515714166E+03  0.23291721101E+03  0.17381164671E+03 0.  0.
        -24    2    5    5    0    0 -0.37919414381E+02 -0.69809104127E+01 -0.11178467430E+03  0.14241429929E+03  0.79368785657E+02 0.  0.
          5    1    3    3  501    0 -0.20319272615E+02  0.10087258378E+03 -0.18013621083E+03  0.20750733830E+03  0.47000000000E+01 0. -1.
        -11    1    4    4    0    0 -0.22706898617E+01 -0.16471819361E+02  0.31298966434E+01  0.16919607516E+02  0.00000000000E+00 0.  1.
         12    1    4    4    0    0  0.42268070359E+01 -0.10676411383E+02 -0.16931150619E+03  0.16970043543E+03  0.00000000000E+00 0. -1.
         -5    1    5    5    0  502  0.56282569822E+02 -0.66743442625E+02 -0.23372467364E+02  0.90502911721E+02  0.47000000000E+01 0.  1.
         11    1    6    6    0    0 -0.15709982094E+02 -0.35896478968E+02 -0.20726356175E+02  0.44327672846E+02  0.00000000000E+00 0. -1.
        -12    1    6    6    0    0 -0.22209432288E+02  0.28915568555E+02 -0.91058318124E+02  0.98086626443E+02  0.00000000000E+00 0.  1.
</event>
<event>
12    1  0.8728348E-002  0.2260872E+03  0.7818608E-02  0.1129444E+00
         21   -1    0    0  503  502  0.00000000000E+00  0.00000000000E+00  0.11941380353E+03  0.11941380353E+03  0.00000000000E+00 0. -1.
         21   -1    0    0  501  503 -0.00000000000E+00 -0.00000000000E+00 -0.68289445615E+03  0.68289445615E+03  0.00000000000E+00 0. -1.
          6    2    1    2  501    0 -0.76562596751E+02 -0.12600433209E+03 -0.52685654041E+03  0.57327387555E+03  0.17124893952E+03 0.  0.
         24    2    3    3    0    0 -0.57370272126E+02 -0.10144237251E+03 -0.19960543307E+03  0.24450798249E+03  0.79749116141E+02 0.  0.
         -6    2    1    2    0  502  0.76562596751E+02  0.12600433209E+03 -0.36624112205E+02  0.22903438413E+03  0.17139574263E+03 0.  0.
        -24    2    5    5    0    0  0.50457257074E+02  0.10363087588E+03 -0.88999452450E+02  0.16620663096E+03  0.80115219607E+02 0.  0.
          5    1    3    3  501    0 -0.19192324626E+02 -0.24561959580E+02 -0.32725110734E+03  0.32876589306E+03  0.47000000000E+01 0. -1.
        -11    1    4    4    0    0 -0.75291856949E+02 -0.60776906916E+02 -0.13511791800E+03  0.16619129912E+03  0.00000000000E+00 0.  1.
         12    1    4    4    0    0  0.17921584824E+02 -0.40665465595E+02 -0.64487515062E+02  0.78316683366E+02  0.00000000000E+00 0. -1.
         -5    1    5    5    0  502  0.26105339677E+02  0.22373456213E+02  0.52375340245E+02  0.62827753170E+02  0.47000000000E+01 0.  1.
         13    1    6    6    0    0  0.18389674221E+02  0.84026108196E+02 -0.21047471847E+02  0.88552600457E+02  0.00000000000E+00 0. -1.
        -14    1    6    6    0    0  0.32067582853E+02  0.19604767682E+02 -0.67951980603E+02  0.77654030506E+02  0.00000000000E+00 0.  1.
</event>
<event>
12    1  0.8728348E-002  0.2165910E+03  0.7818608E-02  0.1137884E+00
         21   -1    0    0  501  502  0.00000000000E+00  0.00000000000E+00  0.22230692519E+03  0.22230692519E+03  0.00000000000E+00 0.  1.
         21   -1    0    0  502  503 -0.00000000000E+00 -0.00000000000E+00 -0.20629711901E+03  0.20629711901E+03  0.00000000000E+00 0.  1.
         -6    2    1    2    0  503  0.83944961179E+02 -0.84783966090E+02  0.31347706250E+02  0.21884771625E+03  0.18076660866E+03 0.  0.
        -24    2    3    3    0    0 -0.10877506646E+02 -0.79871990130E+02 -0.54867638718E+01  0.11689529548E+03  0.84478107038E+02 0.  0.
          6    2    1    2  501    0 -0.83944961179E+02  0.84783966090E+02 -0.15337900073E+02  0.20975632795E+03  0.17183535295E+03 0.  0.
         24    2    5    5    0    0 -0.10758372318E+03  0.87856589911E+02  0.25660721682E+02  0.16209912417E+03  0.79527451471E+02 0.  0.
          5    1    5    5  501    0  0.23638761999E+02 -0.30726238218E+01 -0.40998621755E+02  0.47657203776E+02  0.47000000000E+01 0. -1.
        -13    1    6    6    0    0 -0.29856556703E+02  0.75325798565E+02  0.80768838555E+01  0.81428655646E+02  0.00000000000E+00 0.  1.
         14    1    6    6    0    0 -0.77727166474E+02  0.12530791347E+02  0.17583837827E+02  0.80670468529E+02  0.00000000000E+00 0. -1.
         -5    1    3    3    0  503  0.94822467824E+02 -0.49119759600E+01  0.36834470122E+02  0.10195242077E+03  0.47000000000E+01 0.  1.
         13    1    4    4    0    0 -0.32160838993E+02  0.19016046014E+01 -0.30678179832E+01  0.32362743580E+02  0.00000000000E+00 0. -1.
        -14    1    4    4    0    0  0.21283332348E+02 -0.81773594731E+02 -0.24189458886E+01  0.84532551897E+02  0.00000000000E+00 0.  1.
</event>
<event>
12    1  0.8728348E-002  0.3065723E+03  0.7818608E-02  0.1082094E+00
         21   -1    0    0  503  502  0.00000000000E+00  0.00000000000E+00  0.81684031320E+03  0.81684031320E+03  0.00000000000E+00 0.  1.
         21   -1    0    0  501  503 -0.00000000000E+00 -0.00000000000E+00 -0.12621976663E+03  0.12621976663E+03  0.00000000000E+00 0. -1.
          6    2    1    2  501    0  0.28893134986E+02  0.25193754948E+03  0.20369930974E+03  0.36807604446E+03  0.17227659048E+03 0.  0.
         24    2    3    3    0    0 -0.54689364427E+00  0.13641415246E+03  0.19502748525E+03  0.24845304882E+03  0.71302716520E+02 0.  0.
         -6    2    1    2    0  502 -0.28893134986E+02 -0.25193754948E+03  0.48692123682E+03  0.57498403537E+03  0.17090057921E+03 0.  0.
        -24    2    5    5    0    0 -0.58994481891E+02 -0.25620305301E+03  0.43979635574E+03  0.51870677511E+03  0.80718837668E+02 0.  0.
          5    1    3    3  501    0  0.29440028630E+02  0.11552339702E+03  0.86718244963E+01  0.11962299564E+03  0.47000000000E+01 0. -1.
        -13    1    4    4    0    0  0.34728261605E+02  0.54401704709E+02  0.86436789457E+02  0.10787453917E+03  0.00000000000E+00 0.  1.
         14    1    4    4    0    0 -0.35275155249E+02  0.82012447753E+02  0.10859069579E+03  0.14057850965E+03  0.00000000000E+00 0. -1.
         -5    1    5    5    0  502  0.30101346905E+02  0.42655035285E+01  0.47124881083E+02  0.56277260265E+02  0.47000000000E+01 0.  1.
         11    1    6    6    0    0  0.12961448054E+02 -0.53166005625E+01  0.21492306360E+02  0.25655108845E+02  0.00000000000E+00 0. -1.
        -12    1    6    6    0    0 -0.71955929944E+02 -0.25088645245E+03  0.41830404938E+03  0.49305166626E+03  0.00000000000E+00 0.  1.
</event>
<event>
12    1  0.8728348E-002  0.1778709E+03  0.7818608E-02  0.1170073E+00
         21   -1    0    0  503  502  0.00000000000E+00  0.00000000000E+00  0.34873420187E+03  0.34873420187E+03  0.00000000000E+00 0.  1.
         21   -1    0    0  501  503 -0.00000000000E+00 -0.00000000000E+00 -0.13604545190E+03  0.13604545190E+03  0.00000000000E+00 0.  1.
          6    2    1    2  501    0 -0.25274687922E+02 -0.34850177573E+02 -0.34330167950E+02  0.18038448218E+03  0.17177501638E+03 0.  0.
         24    2    3    3    0    0 -0.25366207816E+02  0.44526255528E+02 -0.64044072342E+01  0.96107767606E+02  0.81053406048E+02 0.  0.
         -6    2    1    2    0  502  0.25274687922E+02  0.34850177573E+02  0.24701891792E+03  0.30439517160E+03  0.17258253085E+03 0.  0.
        -24    2    5    5    0    0  0.24311072336E+02  0.38129665303E+02  0.26756267083E+03  0.28304524470E+03  0.80498000652E+02 0.  0.
          5    1    3    3  501    0  0.91519894169E-01 -0.79376433100E+02 -0.27925760716E+02  0.84276714573E+02  0.47000000000E+01 0. -1.
        -11    1    4    4    0    0 -0.52989689048E+02  0.18341295199E+02 -0.12789041862E+02  0.57514083899E+02  0.00000000000E+00 0.  1.
         12    1    4    4    0    0  0.27623481232E+02  0.26184960328E+02  0.63846346278E+01  0.38593683707E+02  0.00000000000E+00 0. -1.
         -5    1    5    5    0  502  0.96361558550E+00 -0.32794877307E+01 -0.20543752915E+02  0.21349926899E+02  0.47000000000E+01 0.  1.
         11    1    6    6    0    0 -0.11263354957E+02 -0.18233424970E+02  0.10826853828E+03  0.11036936772E+03  0.00000000000E+00 0. -1.
        -12    1    6    6    0    0  0.35574427294E+02  0.56363090273E+02  0.15929413256E+03  0.17267587698E+03  0.00000000000E+00 0.  1.
</event>
<event>
12    1  0.8728348E-002  0.1945347E+03  0.7818608E-02  0.1155101E+00
         21   -1    0    0  501  502  0.00000000000E+00  0.00000000000E+00  0.64272820814E+02  0.64272820814E+02  0.00000000000E+00 0.  1.
         21   -1    0    0  502  503 -0.00000000000E+00 -0.00000000000E+00 -0.12174434810E+04  0.12174434810E+04  0.00000000000E+00 0. -1.
         -6    2    1    2    0  503  0.88137063057E+02  0.21402377559E+02 -0.10382670547E+04  0.10557813406E+04  0.16866996975E+03 0.  0.
        -24    2    3    3    0    0  0.90046301198E+02  0.19644384121E+02 -0.39244372867E+03  0.40993569794E+03  0.74437612066E+02 0.  0.
          6    2    1    2  501    0 -0.88137063057E+02 -0.21402377559E+02 -0.11490360553E+03  0.22593496123E+03  0.17209754354E+03 0.  0.
         24    2    5    5    0    0 -0.11820389982E+03 -0.19678916351E+02 -0.12770927895E+03  0.19287349933E+03  0.80815253080E+02 0.  0.
          5    1    5    5  501    0  0.30066836767E+02 -0.17234612086E+01  0.12805673416E+02  0.33061461905E+02  0.47000000000E+01 0. -1.
        -13    1    6    6    0    0 -0.16490608771E+02 -0.21391060867E+02  0.30747881133E+01  0.27184039152E+02  0.00000000000E+00 0.  1.
         14    1    6    6    0    0 -0.10171329105E+03  0.17121445168E+01 -0.13078406706E+03  0.16568946017E+03  0.00000000000E+00 0. -1.
         -5    1    3    3    0  503 -0.19092381410E+01  0.17579934383E+01 -0.64582332600E+03  0.64584564265E+03  0.47000000000E+01 0.  1.
         13    1    4    4    0    0  0.44614521844E+02  0.24359391468E+02 -0.32194818125E+03  0.32593629273E+03  0.00000000000E+00 0. -1.
        -14    1    4    4    0    0  0.45431779354E+02 -0.47150073468E+01 -0.70495547424E+02  0.83999405213E+02  0.00000000000E+00 0.  1.
</event>
<event>
12    1  0.8728348E-002  0.1955295E+03  0.7818608E-02  0.1153961E+00
         21   -1    0    0  501  502  0.00000000000E+00  0.00000000000E+00  0.31906837535E+02  0.31906837535E+02  0.00000000000E+00 0.  1.
         21   -1    0    0  502  503 -0.00000000000E+00 -0.00000000000E+00 -0.22359767913E+04  0.22359767913E+04  0.00000000000E+00 0.  1.
         -6    2    1    2    0  503 -0.87614429656E+02  0.27024605634E+02 -0.18813580701E+04  0.18914914652E+04  0.17269961567E+03 0.  0.
        -24    2    3    3    0    0 -0.11221327173E+03 -0.94926496643E+00 -0.10078125655E+04  0.10171394313E+04  0.79333070784E+02 0.  0.
          6    2    1    2  501    0  0.87614429656E+02 -0.27024605634E+02 -0.32271188369E+03  0.37639216370E+03  0.17065017851E+03 0.  0.
         24    2    5    5    0    0  0.77305638254E+02 -0.81268931830E+02 -0.22560026414E+03  0.26458216971E+03  0.80792600900E+02 0.  0.
          5    1    5    5  501    0  0.10308791401E+02  0.54244326196E+02 -0.97111619551E+02  0.11180999399E+03  0.47000000000E+01 0. -1.
        -11    1    6    6    0    0  0.61710998928E+02 -0.36831342881E+02 -0.63910508432E+02  0.96173532196E+02  0.00000000000E+00 0.  1.
         12    1    6    6    0    0  0.15594639327E+02 -0.44437588949E+02 -0.16168975571E+03  0.16840863751E+03  0.00000000000E+00 0. -1.
         -5    1    3    3    0  503  0.24598842071E+02  0.27973870600E+02 -0.87354550460E+03  0.87435203384E+03  0.47000000000E+01 0.  1.
         11    1    4    4    0    0 -0.14464687922E+02 -0.26461757180E+02 -0.38576463626E+03  0.38694160590E+03  0.00000000000E+00 0. -1.
        -12    1    4    4    0    0 -0.97748583805E+02  0.25512492214E+02 -0.62204792926E+03  0.63019782544E+03  0.00000000000E+00 0.  1.
</event>
<event>
12    1  0.8728348E-002  0.1812864E+03  0.7818608E-02  0.1167256E+00
         21   -1    0    0  501  502  0.00000000000E+00  0.00000000000E+00  0.18732042036E+03  0.18732042036E+03  0.00000000000E+00 0.  1.
         21   -1    0    0  502  503 -0.00000000000E+00 -0.00000000000E+00 -0.19335371494E+03  0.19335371494E+03  0.00000000000E+00 0.  1.
         -6    2    1    2    0  503 -0.36086607217E+02 -0.45712976487E+02 -0.65262094604E+02  0.19267562692E+03  0.17167654697E+03 0.  0.
        -24    2    3    3    0    0 -0.56808041497E+02  0.37968522067E+01 -0.90461768154E+02  0.13319693727E+03  0.79476555881E+02 0.  0.
          6    2    1    2  501    0  0.36086607217E+02  0.45712976487E+02  0.59228800025E+02  0.18799850838E+03  0.16865191657E+03 0.  0.
         24    2    5    5    0    0  0.48517231127E+02  0.87194624206E+02  0.18624829512E+02  0.12845004132E+03  0.78712798414E+02 0.  0.
          5    1    5    5  501    0 -0.12430623910E+02 -0.41481647719E+02  0.40603970513E+02  0.59548467064E+02  0.47000000000E+01 0. -1.
        -11    1    6    6    0    0  0.20241773515E+02  0.94986739025E+02  0.19714555882E+02  0.99100321388E+02  0.00000000000E+00 0.  1.
         12    1    6    6    0    0  0.28275457612E+02 -0.77921148192E+01 -0.10897263694E+01  0.29349719932E+02  0.00000000000E+00 0. -1.
         -5    1    3    3    0  503  0.20721434280E+02 -0.49509828694E+02  0.25199673550E+02  0.59478689654E+02  0.47000000000E+01 0.  1.
         13    1    4    4    0    0 -0.21440886397E+02  0.37629276379E+02 -0.20759868390E+02  0.48027556527E+02  0.00000000000E+00 0. -1.
        -14    1    4    4    0    0 -0.35367155100E+02 -0.33832424172E+02 -0.69701899764E+02  0.85169380742E+02  0.00000000000E+00 0.  1.
</event>
<event>
12    1  0.8728348E-002  0.1856941E+03  0.7818608E-02  0.1163469E+00
         21   -1    0    0  501  502  0.00000000000E+00  0.00000000000E+00  0.33922408922E+03  0.33922408922E+03  0.00000000000E+00 0.  1.
         21   -1    0    0  502  503 -0.00000000000E+00 -0.00000000000E+00 -0.13804069947E+03  0.13804069947E+03  0.00000000000E+00 0.  1.
         -6    2    1    2    0  503  0.63931384245E+02 -0.24793124921E+02 -0.25112040907E+02  0.18738439093E+03  0.17256991172E+03 0.  0.
        -24    2    3    3    0    0  0.79252439556E+01  0.36992361145E+02  0.22899560820E+02  0.91044690187E+02  0.79583298818E+02 0.  0.
          6    2    1    2  501    0 -0.63931384245E+02  0.24793124921E+02  0.22629543065E+03  0.28988039776E+03  0.16768751336E+03 0.  0.
         24    2    5    5    0    0  0.14111349332E+02  0.35017833479E+02  0.85737648185E+02  0.12871652730E+03  0.88270160543E+02 0.  0.
          5    1    5    5  501    0 -0.78042733577E+02 -0.10224708558E+02  0.14055778247E+03  0.16116387046E+03  0.47000000000E+01 0. -1.
        -13    1    6    6    0    0 -0.87163738632E+01  0.24007656971E+01  0.88357306538E+02  0.88818649325E+02  0.00000000000E+00 0.  1.
         14    1    6    6    0    0  0.22827723195E+02  0.32617067782E+02 -0.26196583531E+01  0.39897877974E+02  0.00000000000E+00 0. -1.
         -5    1    3    3    0  503  0.56006140289E+02 -0.61785486066E+02 -0.48011601727E+02  0.96339700741E+02  0.47000000000E+01 0.  1.
         13    1    4    4    0    0 -0.86621280376E+01  0.23856151276E+02  0.50350555982E+02  0.56385520336E+02  0.00000000000E+00 0. -1.
        -14    1    4    4    0    0  0.16587371993E+02  0.13136209869E+02 -0.27450995162E+02  0.34659169851E+02  0.00000000000E+00 0.  1.
</event>
<event>
12    1  0.8728348E-002  0.2009380E+03  0.7818608E-02  0.1149439E+00
         21   -1    0    0  503  502  0.00000000000E+00  0.00000000000E+00  0.21536862473E+03  0.21536862473E+03  0.00000000000E+00 0. -1.
         21   -1    0    0  501  503 -0.00000000000E+00 -0.00000000000E+00 -0.26236490439E+03  0.26236490439E+03  0.00000000000E+00 0. -1.
          6    2    1    2  501    0 -0.49235049627E+02  0.90083489094E+02 -0.15303545318E+03  0.25257857638E+03  0.17273378998E+03 0.  0.
         24    2    3    3    0    0 -0.53224634019E+02 -0.15129360921E+02 -0.70344766979E+02  0.11861776056E+03  0.77846179423E+02 0.  0.
         -6    2    1    2    0  502  0.49235049627E+02 -0.90083489094E+02  0.10603917352E+03  0.22515495273E+03  0.17003329468E+03 0.  0.
        -24    2    5    5    0    0  0.90505081058E+02 -0.32736155437E+02  0.50304202997E+02  0.13504164012E+03  0.80267715526E+02 0.  0.
          5    1    3    3  501    0  0.39895843918E+01  0.10521285001E+03 -0.82690686200E+02  0.13396081582E+03  0.47000000000E+01 0. -1.
        -11    1    4    4    0    0 -0.72455074187E+02 -0.87056349092E+01 -0.64810983969E+02  0.97601175697E+02  0.00000000000E+00 0.  1.
         12    1    4    4    0    0  0.19230440168E+02 -0.64237260119E+01 -0.55337830101E+01  0.21016584863E+02  0.00000000000E+00 0. -1.
         -5    1    5    5    0  502 -0.41270031431E+02 -0.57347333657E+02  0.55734970521E+02  0.90113312617E+02  0.47000000000E+01 0.  1.
         11    1    6    6    0    0  0.70136767176E+02 -0.32083545779E+02  0.71833350663E+02  0.10539710758E+03  0.00000000000E+00 0. -1.
        -12    1    6    6    0    0  0.20368313882E+02 -0.65260965753E+00 -0.21529147666E+02  0.29644532531E+02  0.00000000000E+00 0.  1.
</event>
<event>
12    1  0.8728348E-002  0.2665526E+03  0.7818608E-02  0.1103332E+00
         21   -1    0    0  501  502  0.00000000000E+00  0.00000000000E+00  0.69578544565E+03  0.69578544565E+03  0.00000000000E+00 0.  1.
         21   -1    0    0  502  503 -0.00000000000E+00 -0.00000000000E+00 -0.18152002353E+03  0.18152002353E+03  0.00000000000E+00 0. -1.
         -6    2    1    2    0  503  0.16357600213E+03  0.12131400243E+03 -0.33175371556E+02  0.26860921705E+03  0.17197706402E+03 0.  0.
        -24    2    3    3    0    0  0.68837907533E+02  0.10948106567E+03 -0.69185656147E+02  0.16646150265E+03  0.78727476746E+02 0.  0.
          6    2    1    2  501    0 -0.16357600213E+03 -0.12131400243E+03  0.54744079368E+03  0.60869625213E+03  0.17130530965E+03 0.  0.
         24    2    5    5    0    0 -0.52347996561E+02 -0.57260058915E+02  0.39035453875E+03  0.40578553681E+03  0.79159389035E+02 0.  0.
          5    1    5    5  501    0 -0.11122800557E+03 -0.64053943513E+02  0.15708625493E+03  0.20291071532E+03  0.47000000000E+01 0. -1.
        -11    1    6    6    0    0 -0.61104677875E+02 -0.12302862772E+02  0.17951360237E+03  0.19002703894E+03  0.00000000000E+00 0.  1.
         12    1    6    6    0    0  0.87566813139E+01 -0.44957196143E+02  0.21084093638E+03  0.21575849787E+03  0.00000000000E+00 0. -1.
         -5    1    3    3    0  503  0.94738094599E+02  0.11832936759E+02  0.36010284591E+02  0.10214771440E+03  0.47000000000E+01 0.  1.
         11    1    4    4    0    0  0.27710529953E+02  0.10155675490E+03 -0.30886648467E+02  0.10970703254E+03  0.00000000000E+00 0. -1.
        -12    1    4    4    0    0  0.41127377580E+02  0.79243107688E+01 -0.38299007681E+02  0.56754470107E+02  0.00000000000E+00 0.  1.
</event>
<event>
12    1  0.8728348E-002  0.2980192E+03  0.7818608E-02  0.1086311E+00
         21   -1    0    0  501  502  0.00000000000E+00  0.00000000000E+00  0.11927306727E+03  0.11927306727E+03  0.00000000000E+00 0. -1.
         21   -1    0    0  502  503 -0.00000000000E+00 -0.00000000000E+00 -0.79163299289E+03  0.79163299289E+03  0.00000000000E+00 0.  1.
         -6    2    1    2    0  503  0.22422262425E+03  0.92476787916E+02 -0.44859676123E+03  0.53823270998E+03  0.17212685550E+03 0.  0.
        -24    2    3    3    0    0  0.23621707003E+03  0.10079216710E+03 -0.44874994266E+03  0.52289890012E+03  0.78033221037E+02 0.  0.
          6    2    1    2  501    0 -0.22422262425E+03 -0.92476787916E+02 -0.22376316440E+03  0.37267335017E+03  0.17316965860E+03 0.  0.
         24    2    5    5    0    0 -0.12530956443E+03 -0.63147689902E+01 -0.18284147018E+03  0.23518021592E+03  0.78334969835E+02 0.  0.
          5    1    5    5  501    0 -0.98913059823E+02 -0.86162018926E+02 -0.40921694219E+02  0.13749313425E+03  0.47000000000E+01 0. -1.
        -11    1    6    6    0    0  0.77880910948E+01 -0.12348646940E+02 -0.20458105581E+02  0.25133195740E+02  0.00000000000E+00 0.  1.
         12    1    6    6    0    0 -0.13309765552E+03  0.60338779495E+01 -0.16238336460E+03  0.21004702018E+03  0.00000000000E+00 0. -1.
         -5    1    3    3    0  503 -0.11994445776E+02 -0.83153791853E+01  0.15318143224E+00  0.15333809867E+02  0.47000000000E+01 0.  1.
         11    1    4    4    0    0  0.11473955739E+03  0.10549849587E+02 -0.16393431658E+03  0.20037695853E+03  0.00000000000E+00 0. -1.
        -12    1    4    4    0    0  0.12147751263E+03  0.90242317514E+02 -0.28481562608E+03  0.32252194159E+03  0.00000000000E+00 0.  1.
</event>
<event>
12    1  0.8728348E-002  0.2127910E+03  0.7818608E-02  0.1139509E+00
         21   -1    0    0  503  502  0.00000000000E+00  0.00000000000E+00  0.29287545065E+03  0.29287545065E+03  0.00000000000E+00 0.  1.
         21   -1    0    0  501  503 -0.00000000000E+00 -0.00000000000E+00 -0.19489795889E+03  0.19489795889E+03  0.00000000000E+00 0.  1.
          6    2    1    2  501    0  0.12187811573E+03 -0.23349616365E+02  0.16050501444E+03  0.26598589674E+03  0.17200917977E+03 0.  0.
         24    2    3    3    0    0  0.74857512298E+02 -0.35543078198E+02  0.17772392192E+03  0.21423458339E+03  0.86276918928E+02 0.  0.
         -6    2    1    2    0  502 -0.12187811573E+03  0.23349616365E+02 -0.62527522679E+02  0.22178751280E+03  0.17285985672E+03 0.  0.
        -24    2    5    5    0    0 -0.79080346758E+02  0.81355775745E+02 -0.32366594465E+02  0.14350510644E+03  0.81692445471E+02 0.  0.
          5    1    3    3  501    0  0.47020603432E+02  0.12193461833E+02 -0.17218907484E+02  0.51751313351E+02  0.47000000000E+01 0. -1.
        -11    1    4    4    0    0  0.76169449280E+01 -0.48848882462E+02  0.92333369793E+02  0.10473625134E+03  0.00000000000E+00 0.  1.
         12    1    4    4    0    0  0.67240567370E+02  0.13305804265E+02  0.85390552131E+02  0.10949833205E+03  0.00000000000E+00 0. -1.
         -5    1    5    5    0  502 -0.42797768972E+02 -0.58006159381E+02 -0.30160928214E+02  0.78282406362E+02  0.47000000000E+01 0.  1.
         13    1    6    6    0    0 -0.11101148920E+02 -0.86025118242E+01 -0.27223925412E+02  0.30633002332E+02  0.00000000000E+00 0. -1.
        -14    1    6    6    0    0 -0.67979197838E+02  0.89958287570E+02 -0.51426690529E+01  0.11287210411E+03  0.00000000000E+00 0.  1.
</event>
<event>
12    1  0.8728348E-002  0.2106960E+03  0.7818608E-02  0.1141096E+00
         21   -1    0    0  503  502  0.00000000000E+00  0.00000000000E+00  0.64163484874E+02  0.64163484874E+02  0.00000000000E+00 0. -1.
         21   -1    0    0  501  503 -0.00000000000E+00 -0.00000000000E+00 -0.83429171329E+03  0.83429171329E+03  0.00000000000E+00 0. -1.
          6    2    1    2  501    0 -0.24137165932E+02 -0.11724432717E+03 -0.19828993754E+03  0.28903592602E+03  0.17289890736E+03 0.  0.
         24    2    3    3    0    0 -0.31218332991E+02 -0.60897763382E+02 -0.26146341887E+02  0.10770587969E+03  0.78954438920E+02 0.  0.
         -6    2    1    2    0  502  0.24137165932E+02  0.11724432717E+03 -0.57183829087E+03  0.60941927214E+03  0.17338968631E+03 0.  0.
        -24    2    5    5    0    0 -0.50877387566E+02  0.65157184735E+02 -0.22446729445E+03  0.25021326886E+03  0.73397182133E+02 0.  0.
          5    1    3    3  501    0  0.70811670585E+01 -0.56346563791E+02 -0.17214359566E+03  0.18133004633E+03  0.47000000000E+01 0. -1.
        -13    1    4    4    0    0  0.12153655358E+02  0.12774042394E+02 -0.11282005456E+02  0.20932537943E+02  0.00000000000E+00 0.  1.
         14    1    4    4    0    0 -0.43371988348E+02 -0.73671805776E+02 -0.14864336431E+02  0.86773341743E+02  0.00000000000E+00 0. -1.
         -5    1    5    5    0  502  0.75014553499E+02  0.52087142438E+02 -0.34737099641E+03  0.35920600328E+03  0.47000000000E+01 0.  1.
         11    1    6    6    0    0 -0.10073576689E+02  0.52095471309E+02 -0.18319360318E+03  0.19072312740E+03  0.00000000000E+00 0. -1.
        -12    1    6    6    0    0 -0.40803810877E+02  0.13061713426E+02 -0.41273691276E+02  0.59490141463E+02  0.00000000000E+00 0.  1.
</event>
<event>
12    1  0.8728348E-002  0.2019089E+03  0.7818608E-02  0.1148187E+00
         21   -1    0    0  501  502  0.00000000000E+00  0.00000000000E+00  0.76179945203E+02  0.76179945203E+02  0.00000000000E+00 0.  1.
         21   -1    0    0  502  503 -0.00000000000E+00 -0.00000000000E+00 -0.56864964514E+03  0.56864964514E+03  0.00000000000E+00 0.  1.
         -6    2    1    2    0  503  0.10191254190E+03 -0.25855443518E+02 -0.32508136572E+03  0.38255860182E+03  0.17210031764E+03 0.  0.
        -24    2    3    3    0    0 -0.21816612654E+01 -0.14634871468E+02 -0.22661393010E+03  0.23875515872E+03  0.73696766481E+02 0.  0.
          6    2    1    2  501    0 -0.10191254190E+03  0.25855443518E+02 -0.16738833422E+03  0.26227098853E+03  0.17237327761E+03 0.  0.
         24    2    5    5    0    0 -0.13437838479E+03  0.35368808419E+02 -0.16136555691E+03  0.22758815542E+03  0.80305806895E+02 0.  0.
          5    1    5    5  501    0  0.32465842887E+02 -0.95133649004E+01 -0.60227773093E+01  0.34682833111E+02  0.47000000000E+01 0. -1.
        -13    1    6    6    0    0 -0.70576341516E+02  0.24468291988E+02 -0.14128886708E+03  0.15981946457E+03  0.00000000000E+00 0.  1.
         14    1    6    6    0    0 -0.63802043274E+02  0.10900516431E+02 -0.20076689829E+02  0.67768690845E+02  0.00000000000E+00 0. -1.
         -5    1    3    3    0  503  0.10409420317E+03 -0.11220572050E+02 -0.98467435619E+02  0.14380344310E+03  0.47000000000E+01 0.  1.
         13    1    4    4    0    0  0.11771276412E+02  0.21991135527E+02 -0.15610375633E+03  0.15808401479E+03  0.00000000000E+00 0. -1.
        -14    1    4    4    0    0 -0.13952937677E+02 -0.36626006995E+02 -0.70510173768E+02  0.80671143930E+02  0.00000000000E+00 0.  1.
</event>
<event>
12    1  0.8728348E-002  0.4811542E+03  0.7818608E-02  0.1018858E+00
         21   -1    0    0  501  502  0.00000000000E+00  0.00000000000E+00  0.52571737340E+03  0.52571737340E+03  0.00000000000E+00 0.  1.
         21   -1    0    0  502  503 -0.00000000000E+00 -0.00000000000E+00 -0.60722034589E+03  0.60722034589E+03  0.00000000000E+00 0. -1.
         -6    2    1    2    0  503  0.40401458948E+03 -0.19563906908E+03  0.25667146701E+03  0.54482950115E+03  0.17162898788E+03 0.  0.
        -24    2    3    3    0    0  0.27365289392E+03 -0.20466081031E+03  0.17911366314E+03  0.39280033808E+03  0.73745831333E+02 0.  0.
          6    2    1    2  501    0 -0.40401458948E+03  0.19563906908E+03 -0.33817443950E+03  0.58810821814E+03  0.17322497178E+03 0.  0.
         24    2    5    5    0    0 -0.13875836916E+03  0.57581401086E+02 -0.18724623628E+03  0.25311240527E+03  0.80219909865E+02 0.  0.
          5    1    5    5  501    0 -0.26525622032E+03  0.13805766799E+03 -0.15092820322E+03  0.33499581286E+03  0.47000000000E+01 0. -1.
        -13    1    6    6    0    0 -0.95346277831E+02  0.25323440080E+02 -0.61560297947E+02  0.11628353107E+03  0.00000000000E+00 0.  1.
         14    1    6    6    0    0 -0.43412091328E+02  0.32257961006E+02 -0.12568593834E+03  0.13682887421E+03  0.00000000000E+00 0. -1.
         -5    1    3    3    0  503  0.13036169555E+03  0.90217412320E+01  0.77557803869E+02  0.15202916307E+03  0.47000000000E+01 0.  1.
         13    1    4    4    0    0  0.27255802618E+02 -0.47383214354E+02  0.46692635777E+02  0.71890541900E+02  0.00000000000E+00 0. -1.
        -14    1    4    4    0    0  0.24639709131E+03 -0.15727759596E+03  0.13242102737E+03  0.32090979618E+03  0.00000000000E+00 0.  1.
</event>
<event>
12    1  0.8728348E-002  0.2323999E+03  0.7818608E-02  0.1125419E+00
         21   -1    0    0  503  502  0.00000000000E+00  0.00000000000E+00  0.15957332596E+03  0.15957332596E+03  0.00000000000E+00 0.  1.
         21   -1    0    0  501  503 -0.00000000000E+00 -0.00000000000E+00 -0.10152385009E+04  0.10152385009E+04  0.00000000000E+00 0.  1.
          6    2    1    2  501    0 -0.15107498916E+03  0.28710249794E+02 -0.90797270135E+03  0.93659808744E+03  0.17074431239E+03 0.  0.
         24    2    3    3    0    0 -0.10565646477E+02  0.40583661926E+02 -0.14420305930E+03  0.15990637935E+03  0.54925962402E+02 0.  0.
         -6    2    1    2    0  502  0.15107498916E+03 -0.28710249794E+02  0.52307526427E+02  0.23821373940E+03  0.17424631280E+03 0.  0.
        -24    2    5    5    0    0  0.66394427829E+02 -0.45537529894E+02 -0.32239346007E+02  0.11728310448E+03  0.78956092170E+02 0.  0.
          5    1    3    3  501    0 -0.14050934268E+03 -0.11873412133E+02 -0.76376964205E+03  0.77669170809E+03  0.47000000000E+01 0. -1.
        -11    1    4    4    0    0 -0.28287821361E+02  0.42077555575E+02 -0.11551879309E+03  0.12615590782E+03  0.00000000000E+00 0.  1.
         12    1    4    4    0    0  0.17722174884E+02 -0.14938936485E+01 -0.28684266205E+02  0.33750471532E+02  0.00000000000E+00 0. -1.
         -5    1    5    5    0  502  0.84680561328E+02  0.16827280100E+02  0.84546872434E+02  0.12093063491E+03  0.47000000000E+01 0.  1.
         11    1    6    6    0    0  0.32870096522E+01 -0.48707822385E+02 -0.20818425961E+02  0.53072245604E+02  0.00000000000E+00 0. -1.
        -12    1    6    6    0    0  0.63107418177E+02  0.31702924910E+01 -0.11420920045E+02  0.64210858880E+02  0.00000000000E+00 0.  1.
</event>
<event>
12    1  0.8728348E-002  0.5504914E+03  0.7818608E-02  0.1001391E+00
         21   -1    0    0  501  502  0.00000000000E+00  0.00000000000E+00  0.63549950439E+03  0.63549950439E+03  0.00000000000E+00 0.  1.
         21   -1    0    0  502  503 -0.00000000000E+00 -0.00000000000E+00 -0.55156836567E+03  0.55156836567E+03  0.00000000000E+00 0. -1.
         -6    2    1    2    0  503  0.42960575053E+03 -0.29788805654E+03  0.26065008445E+03  0.60890666623E+03  0.17184430900E+03 0.  0.
        -24    2    3    3    0    0  0.35507204819E+03 -0.29191291936E+03  0.18104581384E+03  0.49959104544E+03  0.74325729609E+02 0.  0.
          6    2    1    2  501    0 -0.42960575053E+03  0.29788805654E+03 -0.17671894573E+03  0.57816120383E+03  0.17245984088E+03 0.  0.
         24    2    5    5    0    0 -0.34999521606E+03  0.16462505543E+03 -0.13110598736E+03  0.41629861817E+03  0.80732270076E+02 0.  0.
          5    1    5    5  501    0 -0.79610534474E+02  0.13326300112E+03 -0.45612958376E+02  0.16186258566E+03  0.47000000000E+01 0. -1.
        -13    1    6    6    0    0 -0.29483555504E+03  0.16507509126E+03 -0.12701511423E+03  0.36098563616E+03  0.00000000000E+00 0.  1.
         14    1    6    6    0    0 -0.55159661019E+02 -0.45003583289E+00 -0.40908731229E+01  0.55312982011E+02  0.00000000000E+00 0. -1.
         -5    1    3    3    0  503  0.74533702346E+02 -0.59751371835E+01  0.79604270610E+02  0.10931562079E+03  0.47000000000E+01 0.  1.
         11    1    4    4    0    0  0.13842114785E+03 -0.10238792856E+03  0.30860188628E+02  0.17491727567E+03  0.00000000000E+00 0. -1.
        -12    1    4    4    0    0  0.21665090034E+03 -0.18952499080E+03  0.15018562521E+03  0.32467376977E+03  0.00000000000E+00 0.  1.
</event>
<event>
12    1  0.8728348E-002  0.2422286E+03  0.7818608E-02  0.1119440E+00
         21   -1    0    0  503  502  0.00000000000E+00  0.00000000000E+00  0.96315833254E+03  0.96315833254E+03  0.00000000000E+00 0. -1.
         21   -1    0    0  501  503 -0.00000000000E+00 -0.00000000000E+00 -0.60502435180E+02  0.60502435180E+02  0.00000000000E+00 0. -1.
          6    2    1    2  501    0  0.98405049422E+02  0.13721339743E+03  0.51904577168E+03  0.56997430142E+03  0.16416796580E+03 0.  0.
         24    2    3    3    0    0  0.13065709314E+03  0.11951873108E+03  0.37748078475E+03  0.42363213024E+03  0.74942883914E+02 0.  0.
         -6    2    1    2    0  502 -0.98405049422E+02 -0.13721339743E+03  0.38361012568E+03  0.45368646630E+03  0.17367674281E+03 0.  0.
        -24    2    5    5    0    0  0.15458516511E+01 -0.54110373163E+02  0.24138979256E+03  0.26095606283E+03  0.83058489247E+02 0.  0.
          5    1    3    3  501    0 -0.32252043720E+02  0.17694666349E+02  0.14156498693E+03  0.14634217118E+03  0.47000000000E+01 0. -1.
        -13    1    4    4    0    0  0.23517033424E+02 -0.63366663787E+01  0.76120919034E+02  0.79922453143E+02  0.00000000000E+00 0.  1.
         14    1    4    4    0    0  0.10714005972E+03  0.12585539746E+03  0.30135986572E+03  0.34370967710E+03  0.00000000000E+00 0. -1.
         -5    1    5    5    0  502 -0.99950901073E+02 -0.83103024267E+02  0.14222033312E+03  0.19273040347E+03  0.47000000000E+01 0.  1.
         13    1    6    6    0    0  0.18752823462E+02 -0.71066466777E+02  0.19937688710E+03  0.21249295093E+03  0.00000000000E+00 0. -1.
        -14    1    6    6    0    0 -0.17206971811E+02  0.16956093614E+02  0.42012905461E+02  0.48463111897E+02  0.00000000000E+00 0.  1.
</event>
<event>
12    1  0.8728348E-002  0.2042380E+03  0.7818608E-02  0.1148379E+00
         21   -1    0    0  503  502  0.00000000000E+00  0.00000000000E+00  0.18389463312E+03  0.18389463312E+03  0.00000000000E+00 0. -1.
         21   -1    0    0  501  503 -0.00000000000E+00 -0.00000000000E+00 -0.36293982360E+03  0.36293982360E+03  0.00000000000E+00 0. -1.
          6    2    1    2  501    0  0.11073053501E+03  0.45093549899E+01 -0.26234473467E+03  0.32626257459E+03  0.15918832276E+03 0.  0.
         24    2    3    3    0    0  0.13323330524E+03 -0.37174824224E+01 -0.16622029510E+03  0.22708569520E+03  0.78573488923E+02 0.  0.
         -6    2    1    2    0  502 -0.11073053501E+03 -0.45093549899E+01  0.83299544197E+02  0.22057188212E+03  0.17155627489E+03 0.  0.
        -24    2    5    5    0    0 -0.55707555401E+02 -0.69041508632E+02  0.60744541766E+02  0.13269273060E+03  0.77765029132E+02 0.  0.
          5    1    3    3  501    0 -0.22502770234E+02  0.82268374123E+01 -0.96124439575E+02  0.99176879391E+02  0.47000000000E+01 0. -1.
        -11    1    4    4    0    0 -0.97349824955E+01 -0.37856345808E+01 -0.49222223188E+01  0.11546825794E+02  0.00000000000E+00 0.  1.
         12    1    4    4    0    0  0.14296828773E+03  0.68152158342E-01 -0.16129807278E+03  0.21553886941E+03  0.00000000000E+00 0. -1.
         -5    1    5    5    0  502 -0.55022979604E+02  0.64532153642E+02  0.22555002431E+02  0.87879151526E+02  0.47000000000E+01 0.  1.
         11    1    6    6    0    0  0.13117233946E+02 -0.41788999302E+02  0.25822482825E+02  0.50844694003E+02  0.00000000000E+00 0. -1.
        -12    1    6    6    0    0 -0.68824789347E+02 -0.27252509330E+02  0.34922058941E+02  0.81848036593E+02  0.00000000000E+00 0.  1.
</event>
<event>
12    1  0.8728348E-002  0.1779708E+03  0.7818608E-02  0.1169858E+00
         21   -1    0    0  503  502  0.00000000000E+00  0.00000000000E+00  0.20137201002E+04  0.20137201002E+04  0.00000000000E+00 0.  1.
         21   -1    0    0  501  503 -0.00000000000E+00 -0.00000000000E+00 -0.19975105051E+02  0.19975105051E+02  0.00000000000E+00 0.  1.
          6    2    1    2  501    0  0.25216972625E+01 -0.45722627955E+02  0.52584528816E+03  0.55504610556E+03  0.17165661816E+03 0.  0.
         24    2    3    3    0    0  0.56741321206E+02 -0.47366067460E+02  0.41841530120E+03  0.43460624251E+03  0.91367936793E+02 0.  0.
         -6    2    1    2    0  502 -0.25216972625E+01  0.45722627955E+02  0.14678997070E+04  0.14786490997E+04  0.17197875612E+03 0.  0.
        -24    2    5    5    0    0 -0.32678037642E+02  0.34813825309E+01  0.36260543297E+03  0.37212695808E+03  0.76914229783E+02 0.  0.
          5    1    3    3  501    0 -0.54219623944E+02  0.16434395045E+01  0.10742998696E+03  0.12043986305E+03  0.47000000000E+01 0. -1.
        -13    1    4    4    0    0  0.30035062029E+02  0.16588066986E+02  0.56403378600E+02  0.66019770031E+02  0.00000000000E+00 0.  1.
         14    1    4    4    0    0  0.26706259177E+02 -0.63954134446E+02  0.36201192260E+03  0.36858647248E+03  0.00000000000E+00 0. -1.
         -5    1    5    5    0  502  0.30156340380E+02  0.42241245424E+02  0.11052942740E+04  0.11065221416E+04  0.47000000000E+01 0.  1.
         11    1    6    6    0    0 -0.10597769790E+02 -0.31747166796E+02  0.83766455287E+02  0.90205400922E+02  0.00000000000E+00 0. -1.
        -12    1    6    6    0    0 -0.22080267852E+02  0.35228549327E+02  0.27883897768E+03  0.28192155716E+03  0.00000000000E+00 0.  1.
</event>
<event>
12    1  0.8728348E-002  0.1904732E+03  0.7818608E-02  0.1158335E+00
         21   -1    0    0  501  502  0.00000000000E+00  0.00000000000E+00  0.65107042828E+03  0.65107042828E+03  0.00000000000E+00 0. -1.
         21   -1    0    0  502  503 -0.00000000000E+00 -0.00000000000E+00 -0.56501250428E+02  0.56501250428E+02  0.00000000000E+00 0. -1.
         -6    2    1    2    0  503 -0.27819519580E+02 -0.75297730886E+02  0.34707293823E+03  0.39526668204E+03  0.17126719340E+03 0.  0.
        -24    2    3    3    0    0 -0.91998401500E+01 -0.89761855104E+02  0.13385951047E+03  0.18070210172E+03  0.81197619007E+02 0.  0.
          6    2    1    2  501    0  0.27819519580E+02  0.75297730886E+02  0.24749623962E+03  0.31230499666E+03  0.17273201316E+03 0.  0.
         24    2    5    5    0    0  0.33793491810E+02 -0.23267857186E+02  0.10008993385E+03  0.13481817328E+03  0.80464599176E+02 0.  0.
          5    1    5    5  501    0 -0.59739722299E+01  0.98565588072E+02  0.14740630577E+03  0.17748682339E+03  0.47000000000E+01 0. -1.
        -13    1    6    6    0    0  0.14032776207E+02 -0.52862831969E+02  0.62633397441E+02  0.83152512210E+02  0.00000000000E+00 0.  1.
         14    1    6    6    0    0  0.19760715603E+02  0.29594974783E+02  0.37456536410E+02  0.51665661066E+02  0.00000000000E+00 0. -1.
         -5    1    3    3    0  503 -0.18619679430E+02  0.14464124218E+02  0.21321342776E+03  0.21456458032E+03  0.47000000000E+01 0.  1.
         13    1    4    4    0    0 -0.36850684587E+02 -0.36439102429E+02  0.27787936078E+02  0.58804341096E+02  0.00000000000E+00 0. -1.
        -14    1    4    4    0    0  0.27650844437E+02 -0.53322752676E+02  0.10607157440E+03  0.12189776063E+03  0.00000000000E+00 0.  1.
</event>
<event>
12    1  0.8728348E-002  0.1849422E+03  0.7818608E-02  0.1163269E+00
         21   -1    0    0  503  502  0.00000000000E+00  0.00000000000E+00  0.49590074779E+02  0.49590074779E+02  0.00000000000E+00 0.  1.
         21   -1    0    0  501  503 -0.00000000000E+00 -0.00000000000E+00 -0.88999618277E+03  0.88999618277E+03  0.00000000000E+00 0.  1.
          6    2    1    2  501    0  0.65280563147E+02 -0.10413138956E+02 -0.64512817031E+03  0.67111397429E+03  0.17272412968E+03 0.  0.
         24    2    3    3    0    0  0.76439227042E+02  0.50377737641E+02 -0.40079253618E+03  0.41903851225E+03  0.81103303326E+02 0.  0.
         -6    2    1    2    0  502 -0.65280563147E+02  0.10413138956E+02 -0.19527793768E+03  0.26847228325E+03  0.17197066187E+03 0.  0.
        -24    2    5    5    0    0 -0.41307251742E+02  0.78638266082E+01 -0.21711619754E+03  0.23560560945E+03  0.81255345368E+02 0.  0.
          5    1    3    3  501    0 -0.11158663896E+02 -0.60790876598E+02 -0.24433563414E+03  0.25207546205E+03  0.47000000000E+01 0. -1.
        -11    1    4    4    0    0  0.39640033823E+02 -0.14264253411E+02 -0.21152198923E+03  0.21567650112E+03  0.00000000000E+00 0.  1.
         12    1    4    4    0    0  0.36799193219E+02  0.64641991052E+02 -0.18927054695E+03  0.20336201113E+03  0.00000000000E+00 0. -1.
         -5    1    5    5    0  502 -0.23973311405E+02  0.25493123480E+01  0.21838259868E+02  0.32866673808E+02  0.47000000000E+01 0.  1.
         11    1    6    6    0    0 -0.34505297848E+02  0.43217997813E+02 -0.12408721847E+03  0.13585304083E+03  0.00000000000E+00 0. -1.
        -12    1    6    6    0    0 -0.68019538938E+01 -0.35354171204E+02 -0.93028979074E+02  0.99752568618E+02  0.00000000000E+00 0.  1.
</event>
<event>
12    1  0.8728348E-002  0.1874698E+03  0.7818608E-02  0.1160886E+00
         21   -1    0    0  503  502  0.00000000000E+00  0.00000000000E+00  0.45186553730E+02  0.45186553730E+02  0.00000000000E+00 0. -1.
         21   -1    0    0  501  503 -0.00000000000E+00 -0.00000000000E+00 -0.14388625039E+04  0.14388625039E+04  0.00000000000E+00 0. -1.
          6    2    1    2  501    0 -0.21248847630E+02 -0.70830569535E+02 -0.12001092575E+04  0.12145810701E+04  0.17168710752E+03 0.  0.
         24    2    3    3    0    0  0.20594726014E+02 -0.10089383919E+03 -0.66791388612E+03  0.67987677039E+03  0.74295047811E+02 0.  0.
         -6    2    1    2    0  502  0.21248847630E+02  0.70830569535E+02 -0.19356669271E+03  0.26946798753E+03  0.17226853651E+03 0.  0.
        -24    2    5    5    0    0  0.24442978920E+02  0.10972179468E+03 -0.10760631204E+03  0.17494811178E+03  0.79946181753E+02 0.  0.
          5    1    3    3  501    0 -0.41843573644E+02  0.30063269659E+02 -0.53219537137E+03  0.53470429973E+03  0.47000000000E+01 0. -1.
        -13    1    4    4    0    0 -0.22978230123E+02 -0.67875779042E+02 -0.41241846706E+03  0.41859779312E+03  0.00000000000E+00 0.  1.
         14    1    4    4    0    0  0.43572956137E+02 -0.33018060153E+02 -0.25549541906E+03  0.26127897727E+03  0.00000000000E+00 0. -1.
         -5    1    5    5    0  502 -0.31941312904E+01 -0.38891225147E+02 -0.85960380669E+02  0.94519875756E+02  0.47000000000E+01 0.  1.
         11    1    6    6    0    0 -0.22719139680E+02  0.71574927597E+02 -0.43909915412E+02  0.86989713414E+02  0.00000000000E+00 0. -1.
        -12    1    6    6    0    0  0.47162118601E+02  0.38146867085E+02 -0.63696396628E+02  0.87958398364E+02  0.00000000000E+00 0.  1.
</event>
<event>
12    1  0.8728348E-002  0.2217088E+03  0.7818608E-02  0.1132621E+00
         21   -1    0    0  501  502  0.00000000000E+00  0.00000000000E+00  0.22734631070E+02  0.22734631070E+02  0.00000000000E+00 0.  1.
         21   -1    0    0  502  503 -0.00000000000E+00 -0.00000000000E+00 -0.23182078647E+04  0.23182078647E+04  0.00000000000E+00 0.  1.
         -6    2    1    2    0  503 -0.13558482124E+03  0.34403218778E+02 -0.14516745809E+04  0.14685028496E+04  0.17197297782E+03 0.  0.
        -24    2    3    3    0    0 -0.12404433076E+03  0.45509569849E+02 -0.71468767161E+03  0.73132693539E+03  0.81255778475E+02 0.  0.
          6    2    1    2  501    0  0.13558482124E+03 -0.34403218778E+02 -0.84379865277E+03  0.87243964625E+03  0.17201146686E+03 0.  0.
         24    2    5    5    0    0  0.16515950654E+03 -0.50056936801E+02 -0.71211685252E+03  0.73649154066E+03  0.74337193209E+02 0.  0.
          5    1    5    5  501    0 -0.29574685303E+02  0.15653718024E+02 -0.13168180025E+03  0.13594810560E+03  0.47000000000E+01 0. -1.
        -13    1    6    6    0    0  0.34908528810E+02 -0.31859648820E+02 -0.10281020180E+03  0.11315290629E+03  0.00000000000E+00 0.  1.
         14    1    6    6    0    0  0.13025097773E+03 -0.18197287982E+02 -0.60930665072E+03  0.62333863437E+03  0.00000000000E+00 0. -1.
         -5    1    3    3    0  503 -0.11540490481E+02 -0.11106351072E+02 -0.73698690930E+03  0.73717591417E+03  0.47000000000E+01 0.  1.
         13    1    4    4    0    0  0.43194322484E+01 -0.10618770422E+02 -0.11127118106E+03  0.11186014266E+03  0.00000000000E+00 0. -1.
        -14    1    4    4    0    0 -0.12836376301E+03  0.56128340271E+02 -0.60341649054E+03  0.61946679273E+03  0.00000000000E+00 0.  1.
</event>
<event>
12    1  0.8728348E-002  0.1832357E+03  0.7818608E-02  0.1165932E+00
         21   -1    0    0  501  502  0.00000000000E+00  0.00000000000E+00  0.59017275375E+03  0.59017275375E+03  0.00000000000E+00 0. -1.
         21   -1    0    0  502  503 -0.00000000000E+00 -0.00000000000E+00 -0.90861472245E+02  0.90861472245E+02  0.00000000000E+00 0.  1.
         -6    2    1    2    0  503 -0.45504051853E+02  0.45642259682E+02  0.38839187612E+02  0.18730669449E+03  0.17152690955E+03 0.  0.
        -24    2    3    3    0    0 -0.87947331177E+02  0.63562137164E+02  0.38562204827E+02  0.14099556528E+03  0.81350030397E+02 0.  0.
          6    2    1    2  501    0  0.45504051853E+02 -0.45642259682E+02  0.46047209389E+03  0.49372753151E+03  0.16606773170E+03 0.  0.
         24    2    5    5    0    0 -0.12646941805E+01 -0.22217957247E+02  0.10624718866E+03  0.13563063535E+03  0.81314002930E+02 0.  0.
          5    1    5    5  501    0  0.46768746034E+02 -0.23424302436E+02  0.35422490523E+03  0.35809689616E+03  0.47000000000E+01 0. -1.
        -13    1    6    6    0    0  0.31171140628E+02 -0.36806248331E+02  0.68396715832E+02  0.83692596212E+02  0.00000000000E+00 0.  1.
         14    1    6    6    0    0 -0.32435834808E+02  0.14588291084E+02  0.37850472830E+02  0.51938039142E+02  0.00000000000E+00 0. -1.
         -5    1    3    3    0  503  0.42443279324E+02 -0.17919877482E+02  0.27698278541E+00  0.46311129205E+02  0.47000000000E+01 0.  1.
         11    1    4    4    0    0 -0.25504400033E+02  0.17003220173E+02  0.53525651615E+02  0.61681271859E+02  0.00000000000E+00 0. -1.
        -12    1    4    4    0    0 -0.62442931144E+02  0.46558916991E+02 -0.14963446788E+02  0.79314293422E+02  0.00000000000E+00 0.  1.
</event>
<event>
12    1  0.8728348E-002  0.2243297E+03  0.7818608E-02  0.1132779E+00
         21   -1    0    0  501  502  0.00000000000E+00  0.00000000000E+00  0.10182081233E+04  0.10182081233E+04  0.00000000000E+00 0.  1.
         21   -1    0    0  502  503 -0.00000000000E+00 -0.00000000000E+00 -0.49489412853E+02  0.49489412853E+02  0.00000000000E+00 0. -1.
         -6    2    1    2    0  503  0.92782475733E+02 -0.84762178126E+02  0.37631521394E+03  0.43810610185E+03  0.18582411467E+03 0.  0.
        -24    2    3    3    0    0  0.43226224934E+02 -0.12712037026E+03  0.29821266930E+03  0.33626241813E+03  0.78189018802E+02 0.  0.
          6    2    1    2  501    0 -0.92782475733E+02  0.84762178126E+02  0.59240349651E+03  0.62959143431E+03  0.17219249934E+03 0.  0.
         24    2    5    5    0    0 -0.61962396342E+02  0.95450141871E+02  0.57643607971E+03  0.59296960664E+03  0.79902016627E+02 0.  0.
          5    1    5    5  501    0 -0.30820079391E+02 -0.10687963745E+02  0.15967416805E+02  0.36621827673E+02  0.47000000000E+01 0. -1.
        -11    1    6    6    0    0 -0.68949971469E+02  0.35454746358E+02  0.36063927244E+03  0.36887914339E+03  0.00000000000E+00 0.  1.
         12    1    6    6    0    0  0.69875751273E+01  0.59995395513E+02  0.21579680727E+03  0.22409046324E+03  0.00000000000E+00 0. -1.
         -5    1    3    3    0  503  0.49556250798E+02  0.42358192132E+02  0.78102544644E+02  0.10184368372E+03  0.47000000000E+01 0.  1.
         13    1    4    4    0    0  0.49113231378E+01 -0.94566149251E+02  0.13090896476E+03  0.16156743092E+03  0.00000000000E+00 0. -1.
        -14    1    4    4    0    0  0.38314901797E+02 -0.32554221007E+02  0.16730370454E+03  0.17469498721E+03  0.00000000000E+00 0.  1.
</event>
<event>
12    1  0.8728348E-002  0.2285798E+03  0.7818608E-02  0.1127689E+00
         21   -1    0    0  503  502  0.00000000000E+00  0.00000000000E+00  0.89202974142E+02  0.89202974142E+02  0.00000000000E+00 0. -1.
         21   -1    0    0  501  503 -0.00000000000E+00 -0.00000000000E+00 -0.63015283522E+03  0.63015283522E+03  0.00000000000E+00 0. -1.
          6    2    1    2  501    0  0.20498633613E+02 -0.14865422003E+03 -0.36682771126E+03  0.43221674311E+03  0.17242526545E+03 0.  0.
         24    2    3    3    0    0 -0.22848906519E+02 -0.41895317432E+02 -0.24977030203E+03  0.26789693428E+03  0.84298715691E+02 0.  0.
         -6    2    1    2    0  502 -0.20498633613E+02  0.14865422003E+03 -0.17412214982E+03  0.28713906625E+03  0.17208151905E+03 0.  0.
        -24    2    5    5    0    0 -0.51123510610E+02  0.16513630738E+03 -0.13019102860E+03  0.23091117543E+03  0.80539764467E+02 0.  0.
          5    1    3    3  501    0  0.43347540132E+02 -0.10675890260E+03 -0.11705740922E+03  0.16431980883E+03  0.47000000000E+01 0. -1.
        -13    1    4    4    0    0  0.26344518135E+02  0.83198095797E+00 -0.37392779398E+02  0.45748724345E+02  0.00000000000E+00 0.  1.
         14    1    4    4    0    0 -0.49193424654E+02 -0.42727298390E+02 -0.21237752263E+03  0.22214820993E+03  0.00000000000E+00 0. -1.
         -5    1    5    5    0  502  0.30624876998E+02 -0.16482087346E+02 -0.43931121224E+02  0.56227890823E+02  0.47000000000E+01 0.  1.
         13    1    6    6    0    0 -0.18403556113E+02  0.14566209669E+03 -0.77842628344E+02  0.16617945744E+03  0.00000000000E+00 0. -1.
        -14    1    6    6    0    0 -0.32719954498E+02  0.19474210687E+02 -0.52348400252E+02  0.64731717984E+02  0.00000000000E+00 0.  1.
</event>
<event>
12    1  0.8728348E-002  0.2818937E+03  0.7818608E-02  0.1094750E+00
         21   -1    0    0  503  502  0.00000000000E+00  0.00000000000E+00  0.37361958834E+03  0.37361958834E+03  0.00000000000E+00 0.  1.
         21   -1    0    0  501  503 -0.00000000000E+00 -0.00000000000E+00 -0.29006814480E+03  0.29006814480E+03  0.00000000000E+00 0. -1.
          6    2    1    2  501    0  0.35122406318E+02 -0.22102026541E+03  0.21369606355E+03  0.35320154097E+03  0.17029908931E+03 0.  0.
         24    2    3    3    0    0  0.13581163118E+02 -0.23726524865E+03  0.17977601031E+03  0.30960584565E+03  0.84006663837E+02 0.  0.
         -6    2    1    2    0  502 -0.35122406318E+02  0.22102026541E+03 -0.13014462001E+03  0.31048619217E+03  0.17140744518E+03 0.  0.
        -24    2    5    5    0    0 -0.22100615146E+02  0.72058996377E+02  0.22218459089E+01  0.11073134738E+03  0.81089817764E+02 0.  0.
          5    1    3    3  501    0  0.21541243200E+02  0.16244983237E+02  0.33920053243E+02  0.43595695327E+02  0.47000000000E+01 0. -1.
        -11    1    4    4    0    0  0.39827785435E+02 -0.13317910718E+03  0.13343489138E+03  0.19268574758E+03  0.00000000000E+00 0.  1.
         12    1    4    4    0    0 -0.26246622317E+02 -0.10408614147E+03  0.46341118923E+02  0.11692009807E+03  0.00000000000E+00 0. -1.
         -5    1    5    5    0  502 -0.13021791172E+02  0.14896126903E+03 -0.13236646592E+03  0.19975484479E+03  0.47000000000E+01 0.  1.
         11    1    6    6    0    0 -0.21980727384E+02  0.84894541292E+02 -0.15291981284E+02  0.89017302864E+02  0.00000000000E+00 0. -1.
        -12    1    6    6    0    0 -0.11988776161E+00 -0.12835544915E+02  0.17513827193E+02  0.21714044517E+02  0.00000000000E+00 0.  1.
</event>
<event>
12    1  0.8728348E-002  0.1756983E+03  0.7818608E-02  0.1172849E+00
         21   -1    0    0  501  502  0.00000000000E+00  0.00000000000E+00  0.13551794981E+04  0.13551794981E+04  0.00000000000E+00 0.  1.
         21   -1    0    0  502  503 -0.00000000000E+00 -0.00000000000E+00 -0.24036753439E+02  0.24036753439E+02  0.00000000000E+00 0.  1.
         -6    2    1    2    0  503  0.45804967028E+01  0.20071398940E+02  0.48926558693E+03  0.51985643979E+03  0.17448799797E+03 0.  0.
        -24    2    3    3    0    0  0.27900772944E+02 -0.49387684602E+02  0.21563203757E+03  0.23654422879E+03  0.78983542745E+02 0.  0.
          6    2    1    2  501    0 -0.45804967028E+01 -0.20071398940E+02  0.84187715776E+03  0.85935981178E+03  0.17122586058E+03 0.  0.
         24    2    5    5    0    0 -0.63226165797E+01 -0.76725837424E+02  0.63385544974E+03  0.64370295149E+03  0.81571618711E+02 0.  0.
          5    1    5    5  501    0  0.17421198770E+01  0.56654438484E+02  0.20802170802E+03  0.21565686029E+03  0.47000000000E+01 0. -1.
        -13    1    6    6    0    0 -0.30975768898E+02 -0.52253467618E+02  0.54376558565E+03  0.54714800125E+03  0.00000000000E+00 0.  1.
         14    1    6    6    0    0  0.24653152318E+02 -0.24472369806E+02  0.90089864094E+02  0.96554950239E+02  0.00000000000E+00 0. -1.
         -5    1    3    3    0  503 -0.23320276241E+02  0.69459083541E+02  0.27363354936E+03  0.28331221100E+03  0.47000000000E+01 0.  1.
         13    1    4    4    0    0  0.32643264685E+02  0.12589688309E+02  0.82777451580E+02  0.89867621929E+02  0.00000000000E+00 0. -1.
        -14    1    4    4    0    0 -0.47424917407E+01 -0.61977372911E+02  0.13285458599E+03  0.14667660686E+03  0.00000000000E+00 0.  1.
</event>
<event>
12    1  0.8728348E-002  0.1837065E+03  0.7818608E-02  0.1165064E+00
         21   -1    0    0  501  502  0.00000000000E+00  0.00000000000E+00  0.38392337965E+03  0.38392337965E+03  0.00000000000E+00 0. -1.
         21   -1    0    0  502  503 -0.00000000000E+00 -0.00000000000E+00 -0.95326040657E+02  0.95326040657E+02  0.00000000000E+00 0. -1.
         -6    2    1    2    0  503  0.46510608020E+02 -0.44559552728E+02  0.21682164861E+03  0.28201899519E+03  0.16844671545E+03 0.  0.
        -24    2    3    3    0    0  0.85318257470E+02 -0.35916269673E+02  0.96776932008E+02  0.15547428380E+03  0.78976546326E+02 0.  0.
          6    2    1    2  501    0 -0.46510608020E+02  0.44559552728E+02  0.71775690385E+02  0.19723042511E+03  0.17204447234E+03 0.  0.
         24    2    5    5    0    0 -0.76249186624E+02 -0.20021105206E+01  0.54922072555E+01  0.11081305604E+03  0.80196147918E+02 0.  0.
          5    1    5    5  501    0  0.29738578604E+02  0.46561663248E+02  0.66283483129E+02  0.86417369074E+02  0.47000000000E+01 0. -1.
        -11    1    6    6    0    0  0.64372973094E+01  0.19568036061E+02 -0.11637220084E+02  0.23659495413E+02  0.00000000000E+00 0.  1.
         12    1    6    6    0    0 -0.82686483934E+02 -0.21570146582E+02  0.17129427339E+02  0.87153560626E+02  0.00000000000E+00 0. -1.
         -5    1    3    3    0  503 -0.38807649450E+02 -0.86432830549E+01  0.12004471660E+03  0.12654471139E+03  0.47000000000E+01 0.  1.
         13    1    4    4    0    0  0.31577074306E+02  0.27799638269E+01 -0.69102048929E+01  0.32443655038E+02  0.00000000000E+00 0. -1.
        -14    1    4    4    0    0  0.53741183164E+02 -0.38696233500E+02  0.10368713690E+03  0.12303062876E+03  0.00000000000E+00 0.  1.
</event>
<event>
12    1  0.8728348E-002  0.2838434E+03  0.7818608E-02  0.1093618E+00
         21   -1    0    0  503  502  0.00000000000E+00  0.00000000000E+00  0.12644972304E+03  0.12644972304E+03  0.00000000000E+00 0. -1.
         21   -1    0    0  501  503 -0.00000000000E+00 -0.00000000000E+00 -0.65095532000E+03  0.65095532000E+03  0.00000000000E+00 0.  1.
          6    2    1    2  501    0 -0.79086768921E+02 -0.21136130980E+03 -0.31917284691E+03  0.42707864042E+03  0.17203644556E+03 0.  0.
         24    2    3    3    0    0 -0.10092149639E+03 -0.20271960205E+03 -0.21955934655E+03  0.32462682789E+03  0.76784667997E+02 0.  0.
         -6    2    1    2    0  502  0.79086768921E+02  0.21136130980E+03 -0.20533275005E+03  0.35032640262E+03  0.17215902483E+03 0.  0.
        -24    2    5    5    0    0  0.90472659540E+02  0.14243635675E+03 -0.72337807692E+02  0.20002659440E+03  0.79400643551E+02 0.  0.
          5    1    3    3  501    0  0.21834727474E+02 -0.86417077482E+01 -0.99613500361E+02  0.10245181253E+03  0.47000000000E+01 0. -1.
        -13    1    4    4    0    0  0.87797818389E+00 -0.19500400898E+02 -0.54333612154E+02  0.57733680730E+02  0.00000000000E+00 0.  1.
         14    1    4    4    0    0 -0.10179947458E+03 -0.18321920115E+03 -0.16522573440E+03  0.26689314716E+03  0.00000000000E+00 0. -1.
         -5    1    5    5    0  502 -0.11385890620E+02  0.68924953046E+02 -0.13299494236E+03  0.15029980822E+03  0.47000000000E+01 0.  1.
         13    1    6    6    0    0  0.58341736285E+02  0.38431556344E+02 -0.56860312349E+02  0.90076844062E+02  0.00000000000E+00 0. -1.
        -14    1    6    6    0    0  0.32130923255E+02  0.10400480041E+03 -0.15477495344E+02  0.10994975034E+03  0.00000000000E+00 0.  1.
</event>
<event>
12    1  0.8728348E-002  0.1841857E+03  0.7818608E-02  0.1164856E+00
         21   -1    0    0  503  502  0.00000000000E+00  0.00000000000E+00  0.41844011572E+02  0.41844011572E+02  0.00000000000E+00 0. -1.
         21   -1    0    0  501  503 -0.00000000000E+00 -0.00000000000E+00 -0.28576934718E+04  0.28576934718E+04  0.00000000000E+00 0. -1.
          6    2    1    2  501    0  0.63777552129E+02  0.12272996422E+02 -0.26359418353E+04  0.26420668534E+04  0.16765946486E+03 0.  0.
         24    2    3    3    0    0  0.21665763627E+02  0.34683946903E+02 -0.74129532399E+03  0.74681406122E+03  0.80870904453E+02 0.  0.
         -6    2    1    2    0  502 -0.63777552129E+02 -0.12272996422E+02 -0.17990762486E+03  0.25747062990E+03  0.17235477708E+03 0.  0.
        -24    2    5    5    0    0  0.13144886567E+02 -0.16163385279E+02 -0.26834870257E+02  0.86048475845E+02  0.79058123346E+02 0.  0.
          5    1    3    3  501    0  0.42111788501E+02 -0.22410950480E+02 -0.18946465113E+04  0.18952527922E+04  0.47000000000E+01 0. -1.
        -11    1    4    4    0    0  0.51826430888E+01 -0.23264774301E+00 -0.72548749140E+00  0.52383438660E+01  0.00000000000E+00 0.  1.
         12    1    4    4    0    0  0.16483120539E+02  0.34916594646E+02 -0.74056983649E+03  0.74157571735E+03  0.00000000000E+00 0. -1.
         -5    1    5    5    0  502 -0.76922438696E+02  0.38903888571E+01 -0.15307275460E+03  0.17142215406E+03  0.47000000000E+01 0.  1.
         11    1    6    6    0    0 -0.11215612205E+02 -0.31785625267E+02  0.13581433195E+02  0.36339665084E+02  0.00000000000E+00 0. -1.
        -12    1    6    6    0    0  0.24360498772E+02  0.15622239988E+02 -0.40416303452E+02  0.49708810762E+02  0.00000000000E+00 0.  1.
</event>
<event>
12    1  0.8728348E-002  0.2087840E+03  0.7818608E-02  0.1143107E+00
         21   -1    0    0  501  502  0.00000000000E+00  0.00000000000E+00  0.28495758453E+03  0.28495758453E+03  0.00000000000E+00 0. -1.
         21   -1    0    0  502  503 -0.00000000000E+00 -0.00000000000E+00 -0.55769490100E+03  0.55769490100E+03  0.00000000000E+00 0.  1.
         -6    2    1    2    0  503  0.11422504955E+03  0.36343880495E+02 -0.49595675468E+03  0.53700944946E+03  0.16744493634E+03 0.  0.
        -24    2    3    3    0    0  0.67782970282E+02 -0.24854182293E+02 -0.39051054245E+03  0.40646036563E+03  0.86598404295E+02 0.  0.
          6    2    1    2  501    0 -0.11422504955E+03 -0.36343880495E+02  0.22321943821E+03  0.30564303607E+03  0.17094592218E+03 0.  0.
         24    2    5    5    0    0 -0.54633796769E+02  0.45825971240E+02  0.10309519651E+03  0.14830605572E+03  0.79253991887E+02 0.  0.
          5    1    5    5  501    0 -0.59591252780E+02 -0.82169851735E+02  0.12012424170E+03  0.15733698035E+03  0.47000000000E+01 0. -1.
        -13    1    6    6    0    0  0.52900548481E+01  0.39886054309E+02  0.18045724682E+02  0.44096827413E+02  0.00000000000E+00 0.  1.
         14    1    6    6    0    0 -0.59923851617E+02  0.59399169317E+01  0.85049471830E+02  0.10420922831E+03  0.00000000000E+00 0. -1.
         -5    1    3    3    0  503  0.46442079268E+02  0.61198062788E+02 -0.10544621223E+03  0.13054908383E+03  0.47000000000E+01 0.  1.
         13    1    4    4    0    0  0.65276175777E+02 -0.31015178776E+02 -0.15677926426E+03  0.17263446395E+03  0.00000000000E+00 0. -1.
        -14    1    4    4    0    0  0.25067945042E+01  0.61609964833E+01 -0.23373127819E+03  0.23382590169E+03  0.00000000000E+00 0.  1.
</event>
<event>
12    1  0.8728348E-002  0.1778071E+03  0.7818608E-02  0.1171235E+00
         21   -1    0    0  503  502  0.00000000000E+00  0.00000000000E+00  0.16167159585E+04  0.16167159585E+04  0.00000000000E+00 0. -1.
         21   -1    0    0  501  503 -0.00000000000E+00 -0.00000000000E+00 -0.19075446651E+02  0.19075446651E+02  0.00000000000E+00 0. -1.
          6    2    1    2  501    0 -0.96016004101E+01 -0.53197245092E+01  0.75594116083E+03  0.77657091512E+03  0.17746790518E+03 0.  0.
         24    2    3    3    0    0  0.90359355016E+01 -0.32803011996E+02  0.72702468356E+03  0.73228839606E+03  0.80769541165E+02 0.  0.
         -6    2    1    2    0  502  0.96016004101E+01  0.53197245092E+01  0.84169935106E+03  0.85922049008E+03  0.17228337933E+03 0.  0.
        -24    2    5    5    0    0  0.17244797725E+02  0.12342781044E+00  0.84436279694E+03  0.84851516858E+03  0.82049132668E+02 0.  0.
          5    1    3    3  501    0 -0.18637535912E+02  0.27483287486E+02  0.28916477276E+02  0.44282519056E+02  0.47000000000E+01 0. -1.
        -13    1    4    4    0    0 -0.28189101227E+02 -0.38433124855E+02  0.32058184861E+03  0.32410561885E+03  0.00000000000E+00 0.  1.
         14    1    4    4    0    0  0.37225036729E+02  0.56301128598E+01  0.40644283495E+03  0.40818277721E+03  0.00000000000E+00 0. -1.
         -5    1    5    5    0  502 -0.76431973144E+01  0.51962966988E+01 -0.26634458734E+01  0.10705321503E+02  0.47000000000E+01 0.  1.
         13    1    6    6    0    0  0.42933237113E+01 -0.39771715821E+02  0.32297195427E+03  0.32543986427E+03  0.00000000000E+00 0. -1.
        -14    1    6    6    0    0  0.12951474013E+02  0.39895143631E+02  0.52139084266E+03  0.52307530431E+03  0.00000000000E+00 0.  1.
</event>
<event>
12    1  0.8728348E-002  0.2129880E+03  0.7818608E-02  0.1140031E+00
         21   -1    0    0  503  502  0.00000000000E+00  0.00000000000E+00  0.25937020956E+03  0.25937020956E+03  0.00000000000E+00 0. -1.
         21   -1    0    0  501  503 -0.00000000000E+00 -0.00000000000E+00 -0.19677954913E+03  0.19677954913E+03  0.00000000000E+00 0.  1.
          6    2    1    2  501    0 -0.11804072683E+03 -0.84314020512E+01 -0.50661234693E+02  0.21492395100E+03  0.17210764737E+03 0.  0.
         24    2    3    3    0    0 -0.24512321406E+02 -0.54535994905E+02 -0.34336122891E+01  0.10035635340E+03  0.80526885774E+02 0.  0.
         -6    2    1    2    0  502  0.11804072683E+03  0.84314020512E+01  0.11325189512E+03  0.24122580769E+03  0.17708528119E+03 0.  0.
        -24    2    5    5    0    0  0.78114120888E+02 -0.28732264306E+02  0.14024216534E+03  0.18018617593E+03  0.76627894164E+02 0.  0.
          5    1    3    3  501    0 -0.93528405419E+02  0.46104592854E+02 -0.47227622404E+02  0.11456759760E+03  0.47000000000E+01 0. -1.
        -11    1    4    4    0    0 -0.54237284615E+02 -0.32196173765E+02 -0.35310647588E+01  0.63172344154E+02  0.00000000000E+00 0.  1.
         12    1    4    4    0    0  0.29724963209E+02 -0.22339821139E+02  0.97452469755E-01  0.37184009242E+02  0.00000000000E+00 0. -1.
         -5    1    5    5    0  502  0.39926605937E+02  0.37163666357E+02 -0.26990270213E+02  0.61039631756E+02  0.47000000000E+01 0.  1.
         11    1    6    6    0    0  0.22634821383E+02  0.86730137530E+01  0.98235698033E+02  0.10118205708E+03  0.00000000000E+00 0. -1.
        -12    1    6    6    0    0  0.55479299506E+02 -0.37405278059E+02  0.42006467303E+02  0.79004118852E+02  0.00000000000E+00 0.  1.
</event>
<event>
12    1  0.8728348E-002  0.1916780E+03  0.7818608E-02  0.1157351E+00
         21   -1    0    0  501  502  0.00000000000E+00  0.00000000000E+00  0.80334592555E+02  0.80334592555E+02  0.00000000000E+00 0.  1.
         21   -1    0    0  502  503 -0.00000000000E+00 -0.00000000000E+00 -0.65361558528E+03  0.65361558528E+03  0.00000000000E+00 0. -1.
         -6    2    1    2    0  503  0.77748787738E+02 -0.23266704748E+02 -0.49078690176E+03  0.52688919820E+03  0.17364973566E+03 0.  0.
        -24    2    3    3    0    0  0.55479848319E+02  0.28289347402E+02 -0.43822163098E+03  0.44982344791E+03  0.80153825098E+02 0.  0.
          6    2    1    2  501    0 -0.77748787738E+02  0.23266704748E+02 -0.82494090964E+02  0.20706097964E+03  0.17170544750E+03 0.  0.
         24    2    5    5    0    0 -0.21069756749E+02  0.63812388919E+02 -0.61468352940E+01  0.10358412953E+03  0.78587102494E+02 0.  0.
          5    1    5    5  501    0 -0.56679030989E+02 -0.40545684170E+02 -0.76347255670E+02  0.10347685010E+03  0.47000000000E+01 0. -1.
        -11    1    6    6    0    0 -0.43307529547E+02  0.26893060704E+02  0.18144071567E+02  0.54110869172E+02  0.00000000000E+00 0.  1.
         12    1    6    6    0    0  0.22237772798E+02  0.36919328214E+02 -0.24290906861E+02  0.49473260363E+02  0.00000000000E+00 0. -1.
         -5    1    3    3    0  503  0.22268939419E+02 -0.51556052151E+02 -0.52565270775E+02  0.77065750291E+02  0.47000000000E+01 0.  1.
         13    1    4    4    0    0 -0.20299433006E+02  0.54263127518E+01 -0.65422865339E+02  0.68714359196E+02  0.00000000000E+00 0. -1.
        -14    1    4    4    0    0  0.75779281325E+02  0.22863034651E+02 -0.37279876565E+03  0.38110908871E+03  0.00000000000E+00 0.  1.
</event>
<event>
12    1  0.8728348E-002  0.2047175E+03  0.7818608E-02  0.1147525E+00
         21   -1    0    0  503  502  0.00000000000E+00  0.00000000000E+00  0.36011304830E+02  0.36011304830E+02  0.00000000000E+00 0.  1.
         21   -1    0    0  501  503 -0.00000000000E+00 -0.00000000000E+00 -0.12432179559E+04  0.12432179559E+04  0.00000000000E+00 0.  1.
          6    2    1    2  501    0 -0.49264858978E+02 -0.10184125805E+03 -0.79563839966E+03  0.81955800152E+03  0.16073638873E+03 0.  0.
         24    2    3    3    0    0 -0.60485675739E+02 -0.79619937162E+02 -0.77908074057E+03  0.78929350243E+03  0.77585960588E+02 0.  0.
         -6    2    1    2    0  502  0.49264858978E+02  0.10184125805E+03 -0.41156825139E+03  0.45967125920E+03  0.17061820773E+03 0.  0.
        -24    2    5    5    0    0 -0.35665684556E+02  0.73538904371E+02 -0.23779119071E+03  0.26413410859E+03  0.80883653667E+02 0.  0.
          5    1    3    3  501    0  0.11220816762E+02 -0.22221320883E+02 -0.16557659092E+02  0.30264499091E+02  0.47000000000E+01 0. -1.
        -11    1    4    4    0    0 -0.22112613446E+02 -0.84747192755E+02 -0.51626562521E+03  0.52364229215E+03  0.00000000000E+00 0.  1.
         12    1    4    4    0    0 -0.38373062294E+02  0.51272555931E+01 -0.26281511536E+03  0.26565121027E+03  0.00000000000E+00 0. -1.
         -5    1    5    5    0  502  0.84930543534E+02  0.28302353674E+02 -0.17377706068E+03  0.19553715061E+03  0.47000000000E+01 0.  1.
         13    1    6    6    0    0  0.81178157507E+01  0.18365006238E+02 -0.46844022416E+01  0.20618341617E+02  0.00000000000E+00 0. -1.
        -14    1    6    6    0    0 -0.43783500307E+02  0.55173898133E+02 -0.23310678847E+03  0.24351576697E+03  0.00000000000E+00 0.  1.
</event>
<event>
12    1  0.8728348E-002  0.3182120E+03  0.7818608E-02  0.1076808E+00
         21   -1    0    0  501  502  0.00000000000E+00  0.00000000000E+00  0.87615505724E+03  0.87615505724E+03  0.00000000000E+00 0.  1.
         21   -1    0    0  502  503 -0.00000000000E+00 -0.00000000000E+00 -0.10341582243E+04  0.10341582243E+04  0.00000000000E+00 0. -1.
         -6    2    1    2    0  503 -0.54450915769E+02  0.25835628709E+03 -0.97975153475E+03  0.10301320090E+04  0.17761197277E+03 0.  0.
        -24    2    3    3    0    0 -0.10352657967E+03  0.19356641265E+03 -0.77693681614E+03  0.81158670777E+03  0.82803738750E+02 0.  0.
          6    2    1    2  501    0  0.54450915769E+02 -0.25835628709E+03  0.82174836766E+03  0.88018127254E+03  0.17244077088E+03 0.  0.
         24    2    5    5    0    0 -0.56689396652E+01 -0.23019045061E+03  0.56504912758E+03  0.61499397793E+03  0.76923961689E+02 0.  0.
          5    1    5    5  501    0  0.60119855434E+02 -0.28165836480E+02  0.25669924009E+03  0.26518729461E+03  0.47000000000E+01 0. -1.
        -13    1    6    6    0    0 -0.67088919117E+01 -0.84362415346E+01  0.91053156069E+02  0.91688912263E+02  0.00000000000E+00 0.  1.
         14    1    6    6    0    0  0.10399522465E+01 -0.22175420908E+03  0.47399597151E+03  0.52330506566E+03  0.00000000000E+00 0. -1.
         -5    1    3    3    0  503  0.49075663899E+02  0.64789874442E+02 -0.20281471861E+03  0.21854530126E+03  0.47000000000E+01 0.  1.
         13    1    4    4    0    0 -0.93365133131E+02  0.19057837124E+03 -0.64056469642E+03  0.67480389297E+03  0.00000000000E+00 0. -1.
        -14    1    4    4    0    0 -0.10161446536E+02  0.29880414083E+01 -0.13637211973E+03  0.13678281480E+03  0.00000000000E+00 0.  1.
</event>
<event>
12    1  0.8728348E-002  0.2607943E+03  0.7818608E-02  0.1107953E+00
         21   -1    0    0  501  502  0.00000000000E+00  0.00000000000E+00  0.71284937288E+03  0.71284937288E+03  0.00000000000E+00 0. -1.
         21   -1    0    0  502  503 -0.00000000000E+00 -0.00000000000E+00 -0.92466591426E+02  0.92466591426E+02  0.00000000000E+00 0.  1.
         -6    2    1    2    0  503  0.14548712233E+02  0.19584018397E+03  0.31963757066E+03  0.40724393130E+03  0.15847523564E+03 0.  0.
        -24    2    3    3    0    0  0.32118266962E+02  0.16029936445E+03  0.31751660267E+03  0.36726359099E+03  0.85663778703E+02 0.  0.
          6    2    1    2  501    0 -0.14548712233E+02 -0.19584018397E+03  0.30074521079E+03  0.39807203301E+03  0.17160599921E+03 0.  0.
         24    2    5    5    0    0 -0.19887146548E+02 -0.17838594959E+03  0.15304482886E+03  0.24917394034E+03  0.80298737807E+02 0.  0.
          5    1    5    5  501    0  0.53384343151E+01 -0.17454234381E+02  0.14770038193E+03  0.14889809267E+03  0.47000000000E+01 0. -1.
        -11    1    6    6    0    0 -0.21384302063E+02 -0.10001143798E+02  0.33103334020E+01  0.23838405132E+02  0.00000000000E+00 0.  1.
         12    1    6    6    0    0  0.14971555145E+01 -0.16838480579E+03  0.14973449546E+03  0.22533553520E+03  0.00000000000E+00 0. -1.
         -5    1    3    3    0  503 -0.17569554729E+02  0.35540819527E+02  0.21209679981E+01  0.39980340309E+02  0.47000000000E+01 0.  1.
         11    1    4    4    0    0 -0.13254383373E+02  0.11991307777E+03  0.24150967931E+03  0.26996620178E+03  0.00000000000E+00 0. -1.
        -12    1    4    4    0    0  0.45372650335E+02  0.40386286675E+02  0.76006923351E+02  0.97297389210E+02  0.00000000000E+00 0.  1.
</event>
<event>
12    1  0.8728348E-002  0.2114000E+03  0.7818608E-02  0.1140694E+00
         21   -1    0    0  501  502  0.00000000000E+00  0.00000000000E+00  0.19202660395E+03  0.19202660395E+03  0.00000000000E+00 0.  1.
         21   -1    0    0  502  503 -0.00000000000E+00 -0.00000000000E+00 -0.53529131232E+03  0.53529131232E+03  0.00000000000E+00 0.  1.
         -6    2    1    2    0  503  0.11871993810E+03 -0.25870818234E+02 -0.44582769236E+03  0.49340882897E+03  0.17299196020E+03 0.  0.
        -24    2    3    3    0    0  0.41781020046E+02 -0.72121611572E+02 -0.19235703852E+03  0.22446981107E+03  0.80238926458E+02 0.  0.
          6    2    1    2  501    0 -0.11871993810E+03  0.25870818234E+02  0.10256298400E+03  0.23390908729E+03  0.17155341003E+03 0.  0.
         24    2    5    5    0    0 -0.72933925925E+02  0.26528811318E+02  0.13724946316E+03  0.17627200112E+03  0.78811597233E+02 0.  0.
          5    1    5    5  501    0 -0.45786012176E+02 -0.65799308359E+00 -0.34686479165E+02  0.57637086175E+02  0.47000000000E+01 0. -1.
        -11    1    6    6    0    0 -0.57709080078E+02 -0.13146486566E+02  0.43856711119E+02  0.73665318452E+02  0.00000000000E+00 0.  1.
         12    1    6    6    0    0 -0.15224845847E+02  0.39675297884E+02  0.93392752042E+02  0.10260668266E+03  0.00000000000E+00 0. -1.
         -5    1    3    3    0  503  0.76938918055E+02  0.46250793337E+02 -0.25347065384E+03  0.26893901791E+03  0.47000000000E+01 0.  1.
         13    1    4    4    0    0  0.60043176796E+02 -0.65905106679E+02 -0.11944916322E+03  0.14905290591E+03  0.00000000000E+00 0. -1.
        -14    1    4    4    0    0 -0.18262156751E+02 -0.62165048930E+01 -0.72907875301E+02  0.75416905155E+02  0.00000000000E+00 0.  1.
</event>
<event>
12    1  0.8728348E-002  0.1805103E+03  0.7818608E-02  0.1167424E+00
         21   -1    0    0  503  502  0.00000000000E+00  0.00000000000E+00  0.40019353144E+03  0.40019353144E+03  0.00000000000E+00 0.  1.
         21   -1    0    0  501  503 -0.00000000000E+00 -0.00000000000E+00 -0.94353954759E+02  0.94353954759E+02  0.00000000000E+00 0.  1.
          6    2    1    2  501    0 -0.51020535254E+02 -0.12121407469E+02  0.24504748224E+03  0.30407533447E+03  0.17223099879E+03 0.  0.
         24    2    3    3    0    0 -0.66038883397E+02  0.49493508075E+02  0.17775774409E+03  0.21149052223E+03  0.79496439828E+02 0.  0.
         -6    2    1    2    0  502  0.51020535254E+02  0.12121407469E+02  0.60792094441E+02  0.19047215173E+03  0.17272503669E+03 0.  0.
        -24    2    5    5    0    0  0.11644792023E+02 -0.11303197389E+02  0.10142561475E+03  0.12905282056E+03  0.78128814875E+02 0.  0.
          5    1    3    3  501    0  0.15018348142E+02 -0.61614915544E+02  0.67289738144E+02  0.92584812242E+02  0.47000000000E+01 0. -1.
        -11    1    4    4    0    0 -0.31232246559E+02  0.30337756125E+02  0.16362961471E+03  0.16932360581E+03  0.00000000000E+00 0.  1.
         12    1    4    4    0    0 -0.34806636837E+02  0.19155751951E+02  0.14128129378E+02  0.42166916421E+02  0.00000000000E+00 0. -1.
         -5    1    5    5    0  502  0.39375743231E+02  0.23424604858E+02 -0.40633520313E+02  0.61419331165E+02  0.47000000000E+01 0.  1.
         11    1    6    6    0    0  0.36714929975E+01  0.33038999358E+02  0.31029448259E+02  0.45473970562E+02  0.00000000000E+00 0. -1.
        -12    1    6    6    0    0  0.79732990258E+01 -0.44342196748E+02  0.70396166495E+02  0.83578849998E+02  0.00000000000E+00 0.  1.
</event>
<event>
12    1  0.8728348E-002  0.1999499E+03  0.7818608E-02  0.1150120E+00
         21   -1    0    0  501  502  0.00000000000E+00  0.00000000000E+00  0.14443036741E+03  0.14443036741E+03  0.00000000000E+00 0.  1.
         21   -1    0    0  502  503 -0.00000000000E+00 -0.00000000000E+00 -0.10771490941E+04  0.10771490941E+04  0.00000000000E+00 0.  1.
         -6    2    1    2    0  503 -0.81920757322E+02 -0.59188232691E+02 -0.99405283724E+03  0.10139630101E+04  0.17252734656E+03 0.  0.
        -24    2    3    3    0    0 -0.43214515506E+02 -0.83962541033E+02 -0.41808390430E+03  0.43614449085E+03  0.80688680837E+02 0.  0.
          6    2    1    2  501    0  0.81920757322E+02  0.59188232691E+02  0.61334110516E+02  0.20761645141E+03  0.17067061965E+03 0.  0.
         24    2    5    5    0    0  0.69474505826E+02  0.99655464975E+02  0.15466679002E+02  0.14501918838E+03  0.77675145184E+02 0.  0.
          5    1    5    5  501    0  0.12446251496E+02 -0.40467232284E+02  0.45867431514E+02  0.62597263029E+02  0.47000000000E+01 0. -1.
        -13    1    6    6    0    0  0.24454027218E+02  0.94457297897E+02  0.19568520283E+02  0.99514358558E+02  0.00000000000E+00 0.  1.
         14    1    6    6    0    0  0.45020478608E+02  0.51981670777E+01 -0.41018412811E+01  0.45504829820E+02  0.00000000000E+00 0. -1.
         -5    1    3    3    0  503 -0.38706241816E+02  0.24774308342E+02 -0.57596893294E+03  0.57781851928E+03  0.47000000000E+01 0.  1.
         13    1    4    4    0    0  0.52513315553E+01 -0.74650042015E+02 -0.24790114000E+03  0.25895015055E+03  0.00000000000E+00 0. -1.
        -14    1    4    4    0    0 -0.48465847061E+02 -0.93124990182E+01 -0.17018276430E+03  0.17719434030E+03  0.00000000000E+00 0.  1.
</event>
<event>
12    1  0.8728348E-002  0.1815845E+03  0.7818608E-02  0.1168457E+00
         21   -1    0    0  503  502  0.00000000000E+00  0.00000000000E+00  0.32598004642E+03  0.32598004642E+03  0.00000000000E+00 0. -1.
         21   -1    0    0  501  503 -0.00000000000E+00 -0.00000000000E+00 -0.96325837819E+02  0.96325837819E+02  0.00000000000E+00 0. -1.
          6    2    1    2  501    0 -0.48036472799E+02  0.16459352554E+02  0.11267352420E+03  0.21370134796E+03  0.17434027091E+03 0.  0.
         24    2    3    3    0    0  0.32673753800E+02 -0.22351727061E+02  0.39519703890E+02  0.97968846024E+02  0.80429558658E+02 0.  0.
         -6    2    1    2    0  502  0.48036472799E+02 -0.16459352554E+02  0.11698068440E+03  0.20860453628E+03  0.16508470259E+03 0.  0.
        -24    2    5    5    0    0  0.23365819285E+02 -0.65741334398E+02  0.11673988184E+03  0.15329176320E+03  0.70726798988E+02 0.  0.
          5    1    3    3  501    0 -0.80710226599E+02  0.38811079614E+02  0.73153820315E+02  0.11573250194E+03  0.47000000000E+01 0. -1.
        -13    1    4    4    0    0 -0.16215431518E+02 -0.34593176895E+02  0.97301989558E+01  0.39424673477E+02  0.00000000000E+00 0.  1.
         14    1    4    4    0    0  0.48889185318E+02  0.12241449835E+02  0.29789504934E+02  0.58544172548E+02  0.00000000000E+00 0. -1.
         -5    1    5    5    0  502  0.24670653515E+02  0.49281981844E+02  0.24080256052E+00  0.55312773074E+02  0.47000000000E+01 0.  1.
         11    1    6    6    0    0 -0.20352550364E+02 -0.22176551590E+02  0.13452961393E+02  0.32969803108E+02  0.00000000000E+00 0. -1.
        -12    1    6    6    0    0  0.43718369649E+02 -0.43564782807E+02  0.10328692045E+03  0.12032196010E+03  0.00000000000E+00 0.  1.
</event>
<event>
12    1  0.8728348E-002  0.2035943E+03  0.7818608E-02  0.1147222E+00
         21   -1    0    0  503  502  0.00000000000E+00  0.00000000000E+00  0.53990887287E+03  0.53990887287E+03  0.00000000000E+00 0.  1.
         21   -1    0    0  501  503 -0.00000000000E+00 -0.00000000000E+00 -0.97514694436E+02  0.97514694436E+02  0.00000000000E+00 0.  1.
          6    2    1    2  501    0  0.84386807814E+02 -0.65245620850E+02  0.70170348168E+02  0.21315804696E+03  0.17068787552E+03 0.  0.
         24    2    3    3    0    0  0.43382284308E+02  0.22654714362E+02  0.21897508633E+01  0.94619903364E+02  0.80949814263E+02 0.  0.
         -6    2    1    2    0  502 -0.84386807814E+02  0.65245620850E+02  0.37222383027E+03  0.42426552034E+03  0.17341432340E+03 0.  0.
        -24    2    5    5    0    0 -0.18589588773E+02 -0.24646385338E+02  0.10418408080E+03  0.13396008790E+03  0.78345167929E+02 0.  0.
          5    1    3    3  501    0  0.41004523506E+02 -0.87900335212E+02  0.67980597305E+02  0.11853814360E+03  0.47000000000E+01 0. -1.
        -11    1    4    4    0    0  0.37147483215E+02  0.25980476854E+02 -0.34682206829E+02  0.57076931919E+02  0.00000000000E+00 0.  1.
         12    1    4    4    0    0  0.62348010927E+01 -0.33257624918E+01  0.36871957693E+02  0.37542971445E+02  0.00000000000E+00 0. -1.
         -5    1    5    5    0  502 -0.65797219041E+02  0.89892006188E+02  0.26803974947E+03  0.29030543244E+03  0.47000000000E+01 0.  1.
         13    1    6    6    0    0 -0.36686813751E+02 -0.30921477717E+02  0.28317793654E+02  0.55713171915E+02  0.00000000000E+00 0. -1.
        -14    1    6    6    0    0  0.18097224978E+02  0.62750923794E+01  0.75866287147E+02  0.78246915989E+02  0.00000000000E+00 0.  1.
</event>
<event>
12    1  0.8728348E-002  0.2085340E+03  0.7818608E-02  0.1144202E+00
         21   -1    0    0  501  502  0.00000000000E+00  0.00000000000E+00  0.51305059857E+02  0.51305059857E+02  0.00000000000E+00 0.  1.
         21   -1    0    0  502  503 -0.00000000000E+00 -0.00000000000E+00 -0.11634517977E+04  0.11634517977E+04  0.00000000000E+00 0. -1.
         -6    2    1    2    0  503 -0.32816044484E+02 -0.10173055845E+03 -0.21850284064E+03  0.29710450485E+03  0.17059189939E+03 0.  0.
        -24    2    3    3    0    0  0.39356249084E+02 -0.27945253809E+02 -0.13723133112E+03  0.16565010440E+03  0.79231731598E+02 0.  0.
          6    2    1    2  501    0  0.32816044484E+02  0.10173055845E+03 -0.89364389721E+03  0.91765235271E+03  0.17905425468E+03 0.  0.
         24    2    5    5    0    0  0.30388484343E+02 -0.15966046148E+02 -0.29288870412E+03  0.30545363023E+03  0.79622563447E+02 0.  0.
          5    1    5    5  501    0  0.24275601416E+01  0.11769660460E+03 -0.60075519309E+03  0.61219872248E+03  0.47000000000E+01 0. -1.
        -11    1    6    6    0    0  0.48223453941E+01 -0.46420068875E+02 -0.14596830213E+03  0.15324758738E+03  0.00000000000E+00 0.  1.
         12    1    6    6    0    0  0.25566138949E+02  0.30454022727E+02 -0.14692040198E+03  0.15220604285E+03  0.00000000000E+00 0. -1.
         -5    1    3    3    0  503 -0.72172293568E+02 -0.73785304642E+02 -0.81271509515E+02  0.13145440045E+03  0.47000000000E+01 0.  1.
         11    1    4    4    0    0  0.16458670486E+02  0.17631601823E+02 -0.99030011575E+02  0.10192499404E+03  0.00000000000E+00 0. -1.
        -12    1    4    4    0    0  0.22897578598E+02 -0.45576855632E+02 -0.38201319549E+02  0.63725110359E+02  0.00000000000E+00 0.  1.
</event>
<event>
12    1  0.8728348E-002  0.2211369E+03  0.7818608E-02  0.1133144E+00
         21   -1    0    0  501  502  0.00000000000E+00  0.00000000000E+00  0.46425275066E+03  0.46425275066E+03  0.00000000000E+00 0.  1.
         21   -1    0    0  502  503 -0.00000000000E+00 -0.00000000000E+00 -0.11112093271E+03  0.11112093271E+03  0.00000000000E+00 0.  1.
         -6    2    1    2    0  503  0.13279092392E+03  0.38211938354E+02  0.24395104222E+03  0.32926225887E+03  0.17264976806E+03 0.  0.
        -24    2    3    3    0    0  0.73319040498E+02 -0.43417216146E+02  0.11261823315E+03  0.16351962549E+03  0.82432185012E+02 0.  0.
          6    2    1    2  501    0 -0.13279092392E+03 -0.38211938354E+02  0.10918077574E+03  0.24611142449E+03  0.17192094046E+03 0.  0.
         24    2    5    5    0    0 -0.33125685444E+02  0.25998077024E+02  0.80138029019E+01  0.90185377192E+02  0.79347149774E+02 0.  0.
          5    1    5    5  501    0 -0.99665238471E+02 -0.64210015378E+02  0.10116697283E+03  0.15592604730E+03  0.47000000000E+01 0. -1.
        -11    1    6    6    0    0 -0.96191642940E+00 -0.25744975557E+02 -0.83830564413E+01  0.27092520830E+02  0.00000000000E+00 0.  1.
         12    1    6    6    0    0 -0.32163769014E+02  0.51743052581E+02  0.16396859343E+02  0.63092856362E+02  0.00000000000E+00 0. -1.
         -5    1    3    3    0  503  0.59471883417E+02  0.81629154500E+02  0.13133280906E+03  0.16574263337E+03  0.47000000000E+01 0.  1.
         11    1    4    4    0    0  0.54654328058E+01 -0.18530567725E+02 -0.95675322379E+01  0.21559002043E+02  0.00000000000E+00 0. -1.
        -12    1    4    4    0    0  0.67853607692E+02 -0.24886648421E+02  0.12218576539E+03  0.14196062345E+03  0.00000000000E+00 0.  1.
</event>
<event>
12    1  0.8728348E-002  0.1865956E+03  0.7818608E-02  0.1161626E+00
         21   -1    0    0  503  502  0.00000000000E+00  0.00000000000E+00  0.13810212905E+03  0.13810212905E+03  0.00000000000E+00 0. -1.
         21   -1    0    0  501  503 -0.00000000000E+00 -0.00000000000E+00 -0.29603850789E+03  0.29603850789E+03  0.00000000000E+00 0. -1.
          6    2    1    2  501    0  0.12806851669E+02 -0.68803973882E+02 -0.16294836837E+03  0.24772986209E+03  0.17297373079E+03 0.  0.
         24    2    3    3    0    0  0.37030931651E+02 -0.11016579351E+03 -0.10599549644E+03  0.17314215670E+03  0.72355851197E+02 0.  0.
         -6    2    1    2    0  502 -0.12806851669E+02  0.68803973882E+02  0.50119895274E+01  0.18641077485E+03  0.17270163482E+03 0.  0.
        -24    2    5    5    0    0 -0.67303097939E+02  0.40296272545E+02 -0.30803395192E+02  0.11508503143E+03  0.78372308436E+02 0.  0.
          5    1    3    3  501    0 -0.24224079982E+02  0.41361819626E+02 -0.56952871929E+02  0.74587705385E+02  0.47000000000E+01 0. -1.
        -11    1    4    4    0    0  0.13100391194E+02 -0.42696978023E+02 -0.88981738482E+02  0.99561046424E+02  0.00000000000E+00 0.  1.
         12    1    4    4    0    0  0.23930540457E+02 -0.67468815485E+02 -0.17013757961E+02  0.73581110276E+02  0.00000000000E+00 0. -1.
         -5    1    5    5    0  502  0.54496246270E+02  0.28507701337E+02  0.35815384719E+02  0.71325743428E+02  0.47000000000E+01 0.  1.
         11    1    6    6    0    0 -0.58305942732E+02  0.62366991662E+02 -0.32108941420E+02  0.91215178156E+02  0.00000000000E+00 0. -1.
        -12    1    6    6    0    0 -0.89971552064E+01 -0.22070719117E+02  0.13055462284E+01  0.23869853269E+02  0.00000000000E+00 0.  1.
</event>
<event>
12    1  0.8728348E-002  0.2285802E+03  0.7818608E-02  0.1127772E+00
         21   -1    0    0  503  502  0.00000000000E+00  0.00000000000E+00  0.66172130699E+02  0.66172130699E+02  0.00000000000E+00 0.  1.
         21   -1    0    0  501  503 -0.00000000000E+00 -0.00000000000E+00 -0.83644981370E+03  0.83644981370E+03  0.00000000000E+00 0. -1.
          6    2    1    2  501    0  0.49150433038E+01  0.15071476311E+03 -0.49420550635E+03  0.54420213692E+03  0.17081506329E+03 0.  0.
         24    2    3    3    0    0  0.11373767257E+02  0.25622996584E+02 -0.31099810800E+03  0.32221856550E+03  0.79492642669E+02 0.  0.
         -6    2    1    2    0  502 -0.49150433038E+01 -0.15071476311E+03 -0.27607217666E+03  0.35841980749E+03  0.17178420825E+03 0.  0.
        -24    2    5    5    0    0 -0.18556566812E+02 -0.65255182769E+02 -0.24332774445E+03  0.26577144605E+03  0.82604390125E+02 0.  0.
          5    1    3    3  501    0 -0.64587239529E+01  0.12509176653E+03 -0.18320739835E+03  0.22198357142E+03  0.47000000000E+01 0. -1.
        -11    1    4    4    0    0  0.43215821779E+02  0.22349797705E+02 -0.23071884772E+03  0.23579293331E+03  0.00000000000E+00 0.  1.
         12    1    4    4    0    0 -0.31842054523E+02  0.32731988789E+01 -0.80279260280E+02  0.86425632183E+02  0.00000000000E+00 0. -1.
         -5    1    5    5    0  502  0.13641523508E+02 -0.85459580344E+02 -0.32744432211E+02  0.92648361438E+02  0.47000000000E+01 0.  1.
         13    1    6    6    0    0 -0.22757437530E+02 -0.84302348140E+02 -0.20246049486E+03  0.22048818300E+03  0.00000000000E+00 0. -1.
        -14    1    6    6    0    0  0.42008707175E+01  0.19047165371E+02 -0.40867249583E+02  0.45283263045E+02  0.00000000000E+00 0.  1.
</event>
<event>
12    1  0.8728348E-002  0.2180201E+03  0.7818608E-02  0.1135529E+00
         21   -1    0    0  503  502  0.00000000000E+00  0.00000000000E+00  0.50529693120E+02  0.50529693120E+02  0.00000000000E+00 0.  1.
         21   -1    0    0  501  503 -0.00000000000E+00 -0.00000000000E+00 -0.97073835421E+03  0.97073835421E+03  0.00000000000E+00 0. -1.
          6    2    1    2  501    0  0.59396772087E+02  0.11880641114E+03 -0.36580971187E+03  0.42585150138E+03  0.17288671454E+03 0.  0.
         24    2    3    3    0    0 -0.34612071943E+02  0.74862038809E+02 -0.20420276541E+03  0.23373782212E+03  0.78308873745E+02 0.  0.
         -6    2    1    2    0  502 -0.59396772087E+02 -0.11880641114E+03 -0.55439894922E+03  0.59541654595E+03  0.17181306247E+03 0.  0.
        -24    2    5    5    0    0  0.14723348150E+02 -0.36872262572E+02 -0.36838736090E+03  0.37901553414E+03  0.79794653446E+02 0.  0.
          5    1    3    3  501    0  0.94008844030E+02  0.43944372330E+02 -0.16160694646E+03  0.19211367926E+03  0.47000000000E+01 0. -1.
        -11    1    4    4    0    0 -0.22660962372E+02  0.45648420939E+02 -0.35503465426E+02  0.62111139155E+02  0.00000000000E+00 0.  1.
         12    1    4    4    0    0 -0.11951109571E+02  0.29213617870E+02 -0.16869929998E+03  0.17162668296E+03  0.00000000000E+00 0. -1.
         -5    1    5    5    0  502 -0.74120120237E+02 -0.81934148567E+02 -0.18601158832E+03  0.21640101182E+03  0.47000000000E+01 0.  1.
         13    1    6    6    0    0 -0.16631202422E+02  0.18857772583E+02 -0.99072578493E+02  0.10221344476E+03  0.00000000000E+00 0. -1.
        -14    1    6    6    0    0  0.31354550572E+02 -0.55730035154E+02 -0.26931478241E+03  0.27680208937E+03  0.00000000000E+00 0.  1.
</event>
<event>
12    1  0.8728348E-002  0.2588460E+03  0.7818608E-02  0.1107941E+00
         21   -1    0    0  501  502  0.00000000000E+00  0.00000000000E+00  0.88039371243E+03  0.88039371243E+03  0.00000000000E+00 0. -1.
         21   -1    0    0  502  503 -0.00000000000E+00 -0.00000000000E+00 -0.19905034130E+03  0.19905034130E+03  0.00000000000E+00 0.  1.
         -6    2    1    2    0  503 -0.17208700043E+03  0.86304889527E+02 -0.83678479992E+02  0.27203550740E+03  0.17302820464E+03 0.  0.
        -24    2    3    3    0    0 -0.74469541360E+02  0.98875301367E+02 -0.83183279432E+01  0.14798541233E+03  0.80674964352E+02 0.  0.
          6    2    1    2  501    0  0.17208700043E+03 -0.86304889527E+02  0.76502185112E+03  0.80740854634E+03  0.17201063436E+03 0.  0.
         24    2    5    5    0    0  0.33198656583E+02 -0.21274747517E+02  0.42428496961E+03  0.43372070355E+03  0.80877361292E+02 0.  0.
          5    1    5    5  501    0  0.13888834384E+03 -0.65030142010E+02  0.34073688151E+03  0.37368784278E+03  0.47000000000E+01 0. -1.
        -11    1    6    6    0    0  0.47596860287E+02  0.14139184409E+02  0.19229322054E+03  0.19860025255E+03  0.00000000000E+00 0.  1.
         12    1    6    6    0    0 -0.14398203704E+02 -0.35413931926E+02  0.23199174907E+03  0.23512045101E+03  0.00000000000E+00 0. -1.
         -5    1    3    3    0  503 -0.97617459066E+02 -0.12570411840E+02 -0.75360152049E+02  0.12405009506E+03  0.47000000000E+01 0.  1.
         11    1    4    4    0    0 -0.91911426300E+02  0.79295698258E+02 -0.43744943367E+01  0.12146873774E+03  0.00000000000E+00 0. -1.
        -12    1    4    4    0    0  0.17441884940E+02  0.19579603109E+02 -0.39438336066E+01  0.26516674597E+02  0.00000000000E+00 0.  1.
</event>
<event>
12    1  0.8728348E-002  0.1970745E+03  0.7818608E-02  0.1152255E+00
         21   -1    0    0  501  502  0.00000000000E+00  0.00000000000E+00  0.29951648614E+03  0.29951648614E+03  0.00000000000E+00 0.  1.
         21   -1    0    0  502  503 -0.00000000000E+00 -0.00000000000E+00 -0.13533508839E+03  0.13533508839E+03  0.00000000000E+00 0.  1.
         -6    2    1    2    0  503  0.66549189093E+02  0.68646619077E+02  0.37300968141E+02  0.20046511984E+03  0.17220263984E+03 0.  0.
        -24    2    3    3    0    0  0.27220425858E+02 -0.25108726288E+02  0.46951739835E+02  0.98229882288E+02  0.77931021942E+02 0.  0.
          6    2    1    2  501    0 -0.66549189093E+02 -0.68646619077E+02  0.12688042961E+03  0.23438645469E+03  0.17232879575E+03 0.  0.
         24    2    5    5    0    0 -0.24215831576E+02 -0.54689062829E+02  0.24053593321E+01  0.10208732523E+03  0.82696651245E+02 0.  0.
          5    1    5    5  501    0 -0.42333357517E+02 -0.13957556248E+02  0.12447507027E+03  0.13229912946E+03  0.47000000000E+01 0. -1.
        -11    1    6    6    0    0 -0.79123309721E+01  0.13914852527E+01  0.34516645506E+02  0.35439244202E+02  0.00000000000E+00 0.  1.
         12    1    6    6    0    0 -0.16303500604E+02 -0.56080548082E+02 -0.32111286174E+02  0.66648081029E+02  0.00000000000E+00 0. -1.
         -5    1    3    3    0  503  0.39328763235E+02  0.93755345365E+02 -0.96507716947E+01  0.10223523755E+03  0.47000000000E+01 0.  1.
         13    1    4    4    0    0 -0.10739984362E+02 -0.24209503890E+02  0.53501511721E+02  0.59698066125E+02  0.00000000000E+00 0. -1.
        -14    1    4    4    0    0  0.37960410220E+02 -0.89922239835E+00 -0.65497718855E+01  0.38531816162E+02  0.00000000000E+00 0.  1.
</event>
<event>
12    1  0.8728348E-002  0.1906474E+03  0.7818608E-02  0.1158175E+00
         21   -1    0    0  503  502  0.00000000000E+00  0.00000000000E+00  0.11636612745E+03  0.11636612745E+03  0.00000000000E+00 0. -1.
         21   -1    0    0  501  503 -0.00000000000E+00 -0.00000000000E+00 -0.40670947207E+03  0.40670947207E+03  0.00000000000E+00 0. -1.
          6    2    1    2  501    0 -0.47888170069E+02  0.69146539859E+02 -0.18151384616E+02  0.19150954299E+03  0.17109036059E+03 0.  0.
         24    2    3    3    0    0 -0.31650546903E+02  0.89778016134E+02 -0.60571442327E+02  0.14140096573E+03  0.85226076895E+02 0.  0.
         -6    2    1    2    0  502  0.47888170069E+02 -0.69146539859E+02 -0.27219196000E+03  0.33156605653E+03  0.16962625371E+03 0.  0.
        -24    2    5    5    0    0  0.77779551482E+02 -0.41585921899E+02 -0.11247835487E+03  0.16669153451E+03  0.85765026884E+02 0.  0.
          5    1    3    3  501    0 -0.16237623167E+02 -0.20631476276E+02  0.42420057711E+02  0.50108577266E+02  0.47000000000E+01 0. -1.
        -11    1    4    4    0    0 -0.35098190453E+02  0.32485112035E+01  0.80616533922E+00  0.35257420505E+02  0.00000000000E+00 0.  1.
         12    1    4    4    0    0  0.34476435506E+01  0.86529504931E+02 -0.61377607666E+02  0.10614354522E+03  0.00000000000E+00 0. -1.
         -5    1    5    5    0  502 -0.29891381412E+02 -0.27560617960E+02 -0.15971360513E+03  0.16487452201E+03  0.47000000000E+01 0.  1.
         13    1    6    6    0    0  0.49077683295E+02 -0.30041182192E+01 -0.55921428383E+01  0.49486521250E+02  0.00000000000E+00 0. -1.
        -14    1    6    6    0    0  0.28701868187E+02 -0.38581803680E+02 -0.10688621203E+03  0.11720501327E+03  0.00000000000E+00 0.  1.
</event>
<event>
12    1  0.8728348E-002  0.2021544E+03  0.7818608E-02  0.1148370E+00
         21   -1    0    0  501  502  0.00000000000E+00  0.00000000000E+00  0.13017961524E+03  0.13017961524E+03  0.00000000000E+00 0. -1.
         21   -1    0    0  502  503 -0.00000000000E+00 -0.00000000000E+00 -0.32710999685E+03  0.32710999685E+03  0.00000000000E+00 0. -1.
         -6    2    1    2    0  503 -0.95224461804E+02  0.43649588020E+02 -0.47729430738E+02  0.20771257980E+03  0.17289717345E+03 0.  0.
        -24    2    3    3    0    0 -0.69619446697E+02  0.87136687060E+02 -0.69989579499E+02  0.15235601917E+03  0.76642975859E+02 0.  0.
          6    2    1    2  501    0  0.95224461804E+02 -0.43649588020E+02 -0.14920095087E+03  0.24957703229E+03  0.17045464689E+03 0.  0.
         24    2    5    5    0    0  0.36866449565E+02  0.15816381606E+02 -0.11255145962E+03  0.15843355011E+03  0.10403877020E+03 0.  0.
          5    1    5    5  501    0  0.58358012239E+02 -0.59465969626E+02 -0.36649491246E+02  0.91143482184E+02  0.47000000000E+01 0. -1.
        -13    1    6    6    0    0  0.19738009220E+02 -0.36669288017E+02 -0.11368165343E+02  0.43167822217E+02  0.00000000000E+00 0.  1.
         14    1    6    6    0    0  0.17128440344E+02  0.52485669624E+02 -0.10118329428E+03  0.11526572789E+03  0.00000000000E+00 0. -1.
         -5    1    3    3    0  503 -0.25605015106E+02 -0.43487099040E+02  0.22260148761E+02  0.55356560626E+02  0.47000000000E+01 0.  1.
         11    1    4    4    0    0 -0.12644553680E+02  0.16413219354E+01  0.14520291631E+02  0.19324014710E+02  0.00000000000E+00 0. -1.
        -12    1    4    4    0    0 -0.56974893017E+02  0.85495365125E+02 -0.84509871130E+02  0.13303200446E+03  0.00000000000E+00 0.  1.
</event>
<event>
12    1  0.8728348E-002  0.1891847E+03  0.7818608E-02  0.1159200E+00
         21   -1    0    0  503  502  0.00000000000E+00  0.00000000000E+00  0.60479888365E+03  0.60479888365E+03  0.00000000000E+00 0.  1.
         21   -1    0    0  501  503 -0.00000000000E+00 -0.00000000000E+00 -0.64177139592E+02  0.64177139592E+02  0.00000000000E+00 0.  1.
          6    2    1    2  501    0  0.54936149949E+02 -0.55227634505E+02  0.17694024232E+03  0.25903079802E+03  0.17239789090E+03 0.  0.
         24    2    3    3    0    0  0.36388729147E+02 -0.94477200259E+02  0.79525605380E+02  0.15227764012E+03  0.81326974571E+02 0.  0.
         -6    2    1    2    0  502 -0.54936149949E+02  0.55227634505E+02  0.36368150174E+03  0.40994522522E+03  0.17240296051E+03 0.  0.
        -24    2    5    5    0    0 -0.70003572451E+02 -0.10627284800E+02  0.14039698649E+03  0.17661721069E+03  0.80429384913E+02 0.  0.
          5    1    3    3  501    0  0.18547420802E+02  0.39249565755E+02  0.97414636937E+02  0.10675315789E+03  0.47000000000E+01 0. -1.
        -11    1    4    4    0    0  0.61211450078E+02 -0.78824687428E+02  0.54510887312E+02  0.11371723618E+03  0.00000000000E+00 0.  1.
         12    1    4    4    0    0 -0.24822720931E+02 -0.15652512832E+02  0.25014718068E+02  0.38560403945E+02  0.00000000000E+00 0. -1.
         -5    1    5    5    0  502  0.15067422503E+02  0.65854919305E+02  0.22328451525E+03  0.23332801454E+03  0.47000000000E+01 0.  1.
         13    1    6    6    0    0 -0.20510736855E+02  0.14832104963E+02 -0.29810234485E+00  0.25313445617E+02  0.00000000000E+00 0. -1.
        -14    1    6    6    0    0 -0.49492835596E+02 -0.25459389763E+02  0.14069508883E+03  0.15130376507E+03  0.00000000000E+00 0.  1.
</event>
<event>
12    1  0.8728348E-002  0.1776899E+03  0.7818608E-02  0.1170189E+00
         21   -1    0    0  503  502  0.00000000000E+00  0.00000000000E+00  0.15745987058E+03  0.15745987058E+03  0.00000000000E+00 0.  1.
         21   -1    0    0  501  503 -0.00000000000E+00 -0.00000000000E+00 -0.25638468776E+03  0.25638468776E+03  0.00000000000E+00 0.  1.
          6    2    1    2  501    0 -0.36662780659E+02 -0.25005600130E+02 -0.14663024208E+03  0.23037823759E+03  0.17205889961E+03 0.  0.
         24    2    3    3    0    0 -0.65977876472E+02  0.21416897595E+02 -0.50702132124E+02  0.11974950977E+03  0.83411481237E+02 0.  0.
         -6    2    1    2    0  502  0.36662780659E+02  0.25005600130E+02  0.47705424903E+02  0.18346632075E+03  0.17150697875E+03 0.  0.
        -24    2    5    5    0    0 -0.34681342632E+02 -0.25030752854E+02  0.35828744981E+02  0.95393816102E+02  0.77375364739E+02 0.  0.
          5    1    3    3  501    0  0.29315095813E+02 -0.46422497725E+02 -0.95928109959E+02  0.11062872781E+03  0.47000000000E+01 0. -1.
        -13    1    4    4    0    0 -0.29646158549E+02 -0.28840458163E+02 -0.38581891076E+02  0.56561727898E+02  0.00000000000E+00 0.  1.
         14    1    4    4    0    0 -0.36331717923E+02  0.50257355758E+02 -0.12120241048E+02  0.63187781874E+02  0.00000000000E+00 0. -1.
         -5    1    5    5    0  502  0.71344123291E+02  0.50036352985E+02  0.11876679922E+02  0.88072504644E+02  0.47000000000E+01 0.  1.
         13    1    6    6    0    0 -0.49920757822E+02 -0.51278197298E+01 -0.17588506632E+01  0.50214242525E+02  0.00000000000E+00 0. -1.
        -14    1    6    6    0    0  0.15239415190E+02 -0.19902933125E+02  0.37587595644E+02  0.45179573577E+02  0.00000000000E+00 0.  1.
</event>
<event>
12    1  0.8728348E-002  0.2120167E+03  0.7818608E-02  0.1139993E+00
         21   -1    0    0  503  502  0.00000000000E+00  0.00000000000E+00  0.89841776116E+03  0.89841776116E+03  0.00000000000E+00 0. -1.
         21   -1    0    0  501  503 -0.00000000000E+00 -0.00000000000E+00 -0.17371139277E+03  0.17371139277E+03  0.00000000000E+00 0. -1.
          6    2    1    2  501    0  0.64846350437E+02 -0.10547743893E+03 -0.89983822032E+02  0.23032187513E+03  0.17210618423E+03 0.  0.
         24    2    3    3    0    0  0.51520792983E+02  0.10985810022E+02 -0.45047459748E+02  0.10469295532E+03  0.78461845076E+02 0.  0.
         -6    2    1    2    0  502 -0.64846350437E+02  0.10547743893E+03  0.81469019042E+03  0.84180727879E+03  0.17201409524E+03 0.  0.
        -24    2    5    5    0    0 -0.10883894924E+03  0.90934369188E+02  0.68398754015E+03  0.70305526109E+03  0.79578694994E+02 0.  0.
          5    1    3    3  501    0  0.13325557454E+02 -0.11646324895E+03 -0.44936362284E+02  0.12562891981E+03  0.47000000000E+01 0. -1.
        -13    1    4    4    0    0  0.48512869821E+02 -0.13351478440E+01  0.88428971942E+01  0.49330294838E+02  0.00000000000E+00 0.  1.
         14    1    4    4    0    0  0.30079231623E+01  0.12320957866E+02 -0.53890356942E+02  0.55362660484E+02  0.00000000000E+00 0. -1.
         -5    1    5    5    0  502  0.43992598799E+02  0.14543069741E+02  0.13070265028E+03  0.13875201770E+03  0.47000000000E+01 0.  1.
         13    1    6    6    0    0 -0.64984344791E+02  0.55092416507E+02  0.22504778661E+03  0.24063384152E+03  0.00000000000E+00 0. -1.
        -14    1    6    6    0    0 -0.43854604445E+02  0.35841952681E+02  0.45893975353E+03  0.46242141957E+03  0.00000000000E+00 0.  1.
</event>
<event>
12    1  0.8728348E-002  0.2314763E+03  0.7818608E-02  0.1125709E+00
         21   -1    0    0  503  502  0.00000000000E+00  0.00000000000E+00  0.58582218729E+03  0.58582218729E+03  0.00000000000E+00 0. -1.
         21   -1    0    0  501  503 -0.00000000000E+00 -0.00000000000E+00 -0.42158681371E+03  0.42158681371E+03  0.00000000000E+00 0.  1.
          6    2    1    2  501    0  0.15225486793E+03 -0.22689981221E+02 -0.36374666331E+03  0.43115301645E+03  0.17287252085E+03 0.  0.
         24    2    3    3    0    0  0.18065163549E+03 -0.17938059351E+02 -0.33845026631E+03  0.39254013168E+03  0.81131897750E+02 0.  0.
         -6    2    1    2    0  502 -0.15225486793E+03  0.22689981221E+02  0.52798203689E+03  0.57625598455E+03  0.17207425256E+03 0.  0.
        -24    2    5    5    0    0 -0.23300858991E+02  0.34139789230E+01  0.10531822516E+03  0.13391280507E+03  0.79285090207E+02 0.  0.
          5    1    3    3  501    0 -0.28396767556E+02 -0.47519218703E+01 -0.25296397002E+02  0.38612884771E+02  0.47000000000E+01 0. -1.
        -11    1    4    4    0    0  0.11442304235E+03 -0.51772170105E+01 -0.28274292711E+03  0.30506228712E+03  0.00000000000E+00 0.  1.
         12    1    4    4    0    0  0.66228593137E+02 -0.12760842340E+02 -0.55707339205E+02  0.87477844552E+02  0.00000000000E+00 0. -1.
         -5    1    5    5    0  502 -0.12895400894E+03  0.19276002298E+02  0.42266381173E+03  0.44234317948E+03  0.47000000000E+01 0.  1.
         13    1    6    6    0    0 -0.33715743824E+02  0.21527237291E+02  0.10569904775E+03  0.11301531765E+03  0.00000000000E+00 0. -1.
        -14    1    6    6    0    0  0.10414884833E+02 -0.18113258368E+02 -0.38082259139E+00  0.20897487424E+02  0.00000000000E+00 0.  1.
</event>
<event>
12    1  0.8728348E-002  0.1925535E+03  0.7818608E-02  0.1156555E+00
         21   -1    0    0  503  502  0.00000000000E+00  0.00000000000E+00  0.46937470426E+03  0.46937470426E+03  0.00000000000E+00 0.  1.
         21   -1    0    0  501  503 -0.00000000000E+00 -0.00000000000E+00 -0.93642608770E+02  0.93642608770E+02  0.00000000000E+00 0.  1.
          6    2    1    2  501    0  0.51287114947E+02 -0.64792581491E+02  0.30250989919E+03  0.35859322342E+03  0.17392071182E+03 0.  0.
         24    2    3    3    0    0 -0.25810387256E+02 -0.57591674351E+02  0.23680014666E+03  0.25692838443E+03  0.77168051820E+02 0.  0.
         -6    2    1    2    0  502 -0.51287114947E+02  0.64792581491E+02  0.73222196303E+02  0.20442408961E+03  0.17204438848E+03 0.  0.
        -24    2    5    5    0    0 -0.61602377221E+02  0.70461777030E+01 -0.10592649180E+02  0.10201281040E+03  0.80311317820E+02 0.  0.
          5    1    3    3  501    0  0.77097502203E+02 -0.72009071400E+01  0.65709752528E+02  0.10166483899E+03  0.47000000000E+01 0. -1.
        -11    1    4    4    0    0 -0.44159326099E+01 -0.33891063273E+02  0.24039167166E+02  0.41784999564E+02  0.00000000000E+00 0.  1.
         12    1    4    4    0    0 -0.21394454646E+02 -0.23700611078E+02  0.21276097950E+03  0.21514338486E+03  0.00000000000E+00 0. -1.
         -5    1    5    5    0  502  0.10315262274E+02  0.57746403788E+02  0.83814845484E+02  0.10241127921E+03  0.47000000000E+01 0.  1.
         11    1    6    6    0    0 -0.21998151033E+02 -0.28584652310E+02  0.19318190506E+02  0.40916909475E+02  0.00000000000E+00 0. -1.
        -12    1    6    6    0    0 -0.39604226188E+02  0.35630830013E+02 -0.29910839686E+02  0.61095900927E+02  0.00000000000E+00 0.  1.
</event>
<event>
12    1  0.8728348E-002  0.2155414E+03  0.7818608E-02  0.1139508E+00
         21   -1    0    0  503  502  0.00000000000E+00  0.00000000000E+00  0.62054204744E+02  0.62054204744E+02  0.00000000000E+00 0.  1.
         21   -1    0    0  501  503 -0.00000000000E+00 -0.00000000000E+00 -0.72867800102E+03  0.72867800102E+03  0.00000000000E+00 0. -1.
          6    2    1    2  501    0  0.72295513027E+02 -0.79678255445E+02 -0.38869446507E+03  0.43901813568E+03  0.17343088157E+03 0.  0.
         24    2    3    3    0    0  0.27174587890E+02  0.13332644469E+02 -0.11618692976E+03  0.14752307193E+03  0.85717188878E+02 0.  0.
         -6    2    1    2    0  502 -0.72295513027E+02  0.79678255445E+02 -0.27792933120E+03  0.35171407008E+03  0.18676939888E+03 0.  0.
        -24    2    5    5    0    0  0.18048437628E+02  0.37696768218E+02 -0.48091637618E+02  0.10117080020E+03  0.78587103079E+02 0.  0.
          5    1    3    3  501    0  0.45120925137E+02 -0.93010899914E+02 -0.27250753531E+03  0.29149506375E+03  0.47000000000E+01 0. -1.
        -11    1    4    4    0    0  0.26274211640E+02 -0.33133059607E+02 -0.39572149986E+02  0.57914496378E+02  0.00000000000E+00 0.  1.
         12    1    4    4    0    0  0.90037624957E+00  0.46465704076E+02 -0.76614779778E+02  0.89608575555E+02  0.00000000000E+00 0. -1.
         -5    1    5    5    0  502 -0.90343950655E+02  0.41981487227E+02 -0.22983769358E+03  0.25054326988E+03  0.47000000000E+01 0.  1.
         11    1    6    6    0    0  0.16660075005E+02 -0.14239359809E+02 -0.43876343375E+02  0.49045397082E+02  0.00000000000E+00 0. -1.
        -12    1    6    6    0    0  0.13883626229E+01  0.51936128027E+02 -0.42152942430E+01  0.52125403123E+02  0.00000000000E+00 0.  1.
</event>
<event>
12    1  0.8728348E-002  0.1780252E+03  0.7818608E-02  0.1169910E+00
         21   -1    0    0  501  502  0.00000000000E+00  0.00000000000E+00  0.15371829915E+03  0.15371829915E+03  0.00000000000E+00 0. -1.
         21   -1    0    0  502  503 -0.00000000000E+00 -0.00000000000E+00 -0.39047794208E+03  0.39047794208E+03  0.00000000000E+00 0. -1.
         -6    2    1    2    0  503 -0.15705000932E+02  0.40698340311E+02 -0.30587841328E+03  0.35391325632E+03  0.17259776166E+03 0.  0.
        -24    2    3    3    0    0 -0.24878141456E+02  0.88918482720E+02 -0.25598878381E+03  0.28376773779E+03  0.80426693848E+02 0.  0.
          6    2    1    2  501    0  0.15705000932E+02 -0.40698340311E+02  0.69118770345E+02  0.19028298491E+03  0.17183482759E+03 0.  0.
         24    2    5    5    0    0  0.29755873631E+02 -0.10521936743E+02 -0.20150073302E+02  0.94893998113E+02  0.87193590678E+02 0.  0.
          5    1    5    5  501    0 -0.14050872699E+02 -0.30176403568E+02  0.89268843647E+02  0.95388986796E+02  0.47000000000E+01 0. -1.
        -13    1    6    6    0    0  0.34854398480E+02  0.33161478204E+02 -0.49585459583E+01  0.48364242040E+02  0.00000000000E+00 0.  1.
         14    1    6    6    0    0 -0.50985248491E+01 -0.43683414947E+02 -0.15191527344E+02  0.46529756072E+02  0.00000000000E+00 0. -1.
         -5    1    3    3    0  503  0.91731405241E+01 -0.48220142409E+02 -0.49889629472E+02  0.70145518530E+02  0.47000000000E+01 0.  1.
         13    1    4    4    0    0  0.16909720586E+01 -0.11417606021E+02 -0.68502286370E+02  0.69467865605E+02  0.00000000000E+00 0. -1.
        -14    1    4    4    0    0 -0.26569113515E+02  0.10033608874E+03 -0.18748649744E+03  0.21429987218E+03  0.00000000000E+00 0.  1.
</event>
<event>
12    1  0.8728348E-002  0.2219949E+03  0.7818608E-02  0.1132602E+00
         21   -1    0    0  501  502  0.00000000000E+00  0.00000000000E+00  0.63191672089E+03  0.63191672089E+03  0.00000000000E+00 0. -1.
         21   -1    0    0  502  503 -0.00000000000E+00 -0.00000000000E+00 -0.90584138523E+02  0.90584138523E+02  0.00000000000E+00 0. -1.
         -6    2    1    2    0  503  0.10828341562E+03 -0.90320467104E+02  0.40681015732E+03  0.46292806990E+03  0.17007295176E+03 0.  0.
        -24    2    3    3    0    0  0.16187187125E+02 -0.63860834948E+01  0.24543604523E+03  0.25899084889E+03  0.80836875406E+02 0.  0.
          6    2    1    2  501    0 -0.10828341562E+03  0.90320467104E+02  0.13452242504E+03  0.25957278951E+03  0.17146039000E+03 0.  0.
         24    2    5    5    0    0 -0.10160315596E+03  0.94888737821E+01  0.38420551795E+02  0.13373149109E+03  0.77425660349E+02 0.  0.
          5    1    5    5  501    0 -0.66802596613E+01  0.80831593322E+02  0.96101873246E+02  0.12584129843E+03  0.47000000000E+01 0. -1.
        -13    1    6    6    0    0 -0.68162092710E+02  0.15517998267E+02 -0.13967764656E+02  0.71287990590E+02  0.00000000000E+00 0.  1.
         14    1    6    6    0    0 -0.33441063252E+02 -0.60291244852E+01  0.52388316452E+02  0.62443500496E+02  0.00000000000E+00 0. -1.
         -5    1    3    3    0  503  0.92096228499E+02 -0.83934383609E+02  0.16137411209E+03  0.20393722100E+03  0.47000000000E+01 0.  1.
         11    1    4    4    0    0  0.29121684523E+02 -0.37905252874E+02  0.16081418749E+03  0.16776794570E+03  0.00000000000E+00 0. -1.
        -12    1    4    4    0    0 -0.12934497398E+02  0.31519169379E+02  0.84621857735E+02  0.91222903198E+02  0.00000000000E+00 0.  1.
</event>
<event>
12    1  0.8728348E-002  0.2130803E+03  0.7818608E-02  0.1140187E+00
         21   -1    0    0  501  502  0.00000000000E+00  0.00000000000E+00  0.28492481265E+03  0.28492481265E+03  0.00000000000E+00 0.  1.
         21   -1    0    0  502  503 -0.00000000000E+00 -0.00000000000E+00 -0.16386841056E+03  0.16386841056E+03  0.00000000000E+00 0.  1.
         -6    2    1    2    0  503 -0.11344225476E+03  0.25491210603E+02  0.89117685896E+01  0.20800359594E+03  0.17224148548E+03 0.  0.
        -24    2    3    3    0    0  0.16282967190E+02  0.12092151739E+00 -0.17352255828E+02  0.73154889022E+02  0.69176494296E+02 0.  0.
          6    2    1    2  501    0  0.11344225476E+03 -0.25491210603E+02  0.11214463350E+03  0.24078962726E+03  0.17856169464E+03 0.  0.
         24    2    5    5    0    0  0.12803937743E+03 -0.32449874109E+02  0.13993928507E+03  0.20829144818E+03  0.79719805421E+02 0.  0.
          5    1    5    5  501    0 -0.14597122669E+02  0.69586635057E+01 -0.27794651569E+02  0.32498179085E+02  0.47000000000E+01 0. -1.
        -11    1    6    6    0    0  0.13614502110E+02 -0.33233755986E+02  0.55397686470E+02  0.66020760908E+02  0.00000000000E+00 0.  1.
         12    1    6    6    0    0  0.11442487532E+03  0.78388187683E+00  0.84541598600E+02  0.14227068727E+03  0.00000000000E+00 0. -1.
         -5    1    3    3    0  503 -0.12972522195E+03  0.25370289086E+02  0.26264024418E+02  0.13484870692E+03  0.47000000000E+01 0.  1.
         13    1    4    4    0    0  0.16839512736E+02  0.27633697482E+02  0.10480415786E+02  0.34015136936E+02  0.00000000000E+00 0. -1.
        -14    1    4    4    0    0 -0.55654554626E+00 -0.27512775964E+02 -0.27832671615E+02  0.39139752087E+02  0.00000000000E+00 0.  1.
</event>
<event>
12    1  0.8728348E-002  0.2041834E+03  0.7818608E-02  0.1146326E+00
         21   -1    0    0  501  502  0.00000000000E+00  0.00000000000E+00  0.19327936649E+04  0.19327936649E+04  0.00000000000E+00 0. -1.
         21   -1    0    0  502  503 -0.00000000000E+00 -0.00000000000E+00 -0.70866553933E+02  0.70866553933E+02  0.00000000000E+00 0. -1.
         -6    2    1    2    0  503  0.57568013603E+02 -0.92372136337E+02  0.95329733695E+02  0.22534107837E+03  0.17275461126E+03 0.  0.
        -24    2    3    3    0    0  0.81592651360E+02 -0.29137447754E+02  0.12101933017E+02  0.11798761608E+03  0.79172401428E+02 0.  0.
          6    2    1    2  501    0 -0.57568013603E+02  0.92372136337E+02  0.17665973773E+04  0.17783191405E+04  0.17235424044E+03 0.  0.
         24    2    5    5    0    0  0.33552303694E+02  0.31539466268E+02  0.62624041591E+03  0.63270157107E+03  0.77548207615E+02 0.  0.
          5    1    5    5  501    0 -0.91120317297E+02  0.60832670069E+02  0.11403569614E+04  0.11456175694E+04  0.47000000000E+01 0. -1.
        -11    1    6    6    0    0  0.11393375066E+02  0.54843110389E+02  0.45828031030E+03  0.46169082572E+03  0.00000000000E+00 0.  1.
         12    1    6    6    0    0  0.22158928628E+02 -0.23303644121E+02  0.16796010561E+03  0.17101074535E+03  0.00000000000E+00 0. -1.
         -5    1    3    3    0  503 -0.24024637757E+02 -0.63234688583E+02  0.83227800678E+02  0.10735346229E+03  0.47000000000E+01 0.  1.
         11    1    4    4    0    0  0.59723226486E+02 -0.22834901406E+02 -0.29615676612E+02  0.70465486625E+02  0.00000000000E+00 0. -1.
        -12    1    4    4    0    0  0.21869424873E+02 -0.63025463480E+01  0.41717609629E+02  0.47522129455E+02  0.00000000000E+00 0.  1.
</event>
<event>
12    1  0.8728348E-002  0.2006888E+03  0.7818608E-02  0.1150933E+00
         21   -1    0    0  501  502  0.00000000000E+00  0.00000000000E+00  0.28124259799E+03  0.28124259799E+03  0.00000000000E+00 0.  1.
         21   -1    0    0  502  503 -0.00000000000E+00 -0.00000000000E+00 -0.19051294756E+03  0.19051294756E+03  0.00000000000E+00 0.  1.
         -6    2    1    2    0  503  0.70894632198E+02 -0.35249341886E+02 -0.79876087300E+02  0.20835030115E+03  0.17538840808E+03 0.  0.
        -24    2    3    3    0    0  0.10982620880E+03  0.20520703276E+01 -0.34873005666E+02  0.13796258655E+03  0.75838918972E+02 0.  0.
          6    2    1    2  501    0 -0.70894632198E+02  0.35249341886E+02  0.17060573774E+03  0.26340524440E+03  0.18441106272E+03 0.  0.
         24    2    5    5    0    0 -0.59752654412E+02  0.94242025585E+02  0.68209416911E+02  0.14461392773E+03  0.61714864025E+02 0.  0.
          5    1    5    5  501    0 -0.11141977786E+02 -0.58992683699E+02  0.10239632083E+03  0.11879131668E+03  0.47000000000E+01 0. -1.
        -13    1    6    6    0    0 -0.56051237867E+02  0.48953663755E+02  0.65425520838E+02  0.99089359865E+02  0.00000000000E+00 0.  1.
         14    1    6    6    0    0 -0.37014165453E+01  0.45288361830E+02  0.27838960723E+01  0.45524567862E+02  0.00000000000E+00 0. -1.
         -5    1    3    3    0  503 -0.38931576601E+02 -0.37301412214E+02 -0.45003081634E+02  0.70387714598E+02  0.47000000000E+01 0.  1.
         13    1    4    4    0    0  0.79500520915E+02  0.28646444642E+02 -0.45875970315E+02  0.96153815674E+02  0.00000000000E+00 0. -1.
        -14    1    4    4    0    0  0.30325687884E+02 -0.26594374315E+02  0.11002964649E+02  0.41808770873E+02  0.00000000000E+00 0.  1.
</event>
<event>
12    1  0.8728348E-002  0.2483709E+03  0.7818608E-02  0.1114427E+00
         21   -1    0    0  503  502  0.00000000000E+00  0.00000000000E+00  0.18689152132E+04  0.18689152132E+04  0.00000000000E+00 0.  1.
         21   -1    0    0  501  503 -0.00000000000E+00 -0.00000000000E+00 -0.33774370155E+02  0.33774370155E+02  0.00000000000E+00 0. -1.
          6    2    1    2  501    0  0.16225016317E+03  0.76582312278E+02  0.76850109072E+03  0.80763977958E+03  0.17175017065E+03 0.  0.
         24    2    3    3    0    0  0.93528704650E+01  0.22495598440E+02  0.20484100448E+03  0.22109247752E+03  0.79551985299E+02 0.  0.
         -6    2    1    2    0  502 -0.16225016317E+03 -0.76582312278E+02  0.10666397523E+04  0.10950498038E+04  0.17094954081E+03 0.  0.
        -24    2    5    5    0    0 -0.14854413467E+03 -0.11521262886E+03  0.92409138112E+03  0.94665073131E+03  0.82845739961E+02 0.  0.
          5    1    3    3  501    0  0.15289729271E+03  0.54086713838E+02  0.56366008624E+03  0.58654730206E+03  0.47000000000E+01 0. -1.
        -13    1    4    4    0    0  0.29305621587E+02  0.44524039738E+02  0.13824970979E+03  0.14816946996E+03  0.00000000000E+00 0.  1.
         14    1    4    4    0    0 -0.19952751122E+02 -0.22028441297E+02  0.66591294684E+02  0.72923007556E+02  0.00000000000E+00 0. -1.
         -5    1    5    5    0  502 -0.13706028508E+02  0.38630316578E+02  0.14254837121E+03  0.14839907247E+03  0.47000000000E+01 0.  1.
         13    1    6    6    0    0 -0.16177559995E+02 -0.14382098295E+02  0.28800402053E+02  0.36028063467E+02  0.00000000000E+00 0. -1.
        -14    1    6    6    0    0 -0.13236657467E+03 -0.10083053056E+03  0.89529097907E+03  0.91062266784E+03  0.00000000000E+00 0.  1.
</event>
<event>
12    1  0.8728348E-002  0.2099771E+03  0.7818608E-02  0.1141806E+00
         21   -1    0    0  503  502  0.00000000000E+00  0.00000000000E+00  0.28143789343E+03  0.28143789343E+03  0.00000000000E+00 0. -1.
         21   -1    0    0  501  503 -0.00000000000E+00 -0.00000000000E+00 -0.17219781259E+03  0.17219781259E+03  0.00000000000E+00 0. -1.
          6    2    1    2  501    0 -0.88054010323E+02  0.81404284754E+02 -0.15440822038E+02  0.20943150242E+03  0.17100575695E+03 0.  0.
         24    2    3    3    0    0 -0.40137168202E+02 -0.19390609798E+02 -0.29505305355E+02  0.96845827412E+02  0.80756196192E+02 0.  0.
         -6    2    1    2    0  502  0.88054010323E+02 -0.81404284754E+02  0.12468090288E+03  0.24420420360E+03  0.17236646774E+03 0.  0.
        -24    2    5    5    0    0  0.32312880813E+02 -0.11515740245E+03  0.88966042015E+02  0.16974624392E+03  0.81200253001E+02 0.  0.
          5    1    3    3  501    0 -0.47916842121E+02  0.10079489455E+03  0.14064483317E+02  0.11258567501E+03  0.47000000000E+01 0. -1.
        -11    1    4    4    0    0 -0.55828093207E+01 -0.14063563060E+01  0.27336952133E+02  0.27936616651E+02  0.00000000000E+00 0.  1.
         12    1    4    4    0    0 -0.34554358882E+02 -0.17984253492E+02 -0.56842257488E+02  0.68909210761E+02  0.00000000000E+00 0. -1.
         -5    1    5    5    0  502  0.55741129510E+02  0.33753117692E+02  0.35714860866E+02  0.74457959680E+02  0.47000000000E+01 0.  1.
         11    1    6    6    0    0  0.54751387564E+02 -0.54394107339E+02  0.64233703721E+02  0.10041116495E+03  0.00000000000E+00 0. -1.
        -12    1    6    6    0    0 -0.22438506751E+02 -0.60763295108E+02  0.24732338294E+02  0.69335078965E+02  0.00000000000E+00 0.  1.
</event>
<event>
12    1  0.8728348E-002  0.1864659E+03  0.7818608E-02  0.1162533E+00
         21   -1    0    0  503  502  0.00000000000E+00  0.00000000000E+00  0.30161860654E+03  0.30161860654E+03  0.00000000000E+00 0. -1.
         21   -1    0    0  501  503 -0.00000000000E+00 -0.00000000000E+00 -0.11658193902E+03  0.11658193902E+03  0.00000000000E+00 0. -1.
          6    2    1    2  501    0 -0.32106180709E+02  0.62573144831E+02  0.57010458251E+02  0.19498650934E+03  0.17269435770E+03 0.  0.
         24    2    3    3    0    0  0.56621699978E+02  0.43811716085E+02  0.21341725416E+02  0.97421266959E+02  0.62529598092E+02 0.  0.
         -6    2    1    2    0  502  0.32106180709E+02 -0.62573144831E+02  0.12802620926E+03  0.22321403621E+03  0.16878267212E+03 0.  0.
        -24    2    5    5    0    0 -0.31434806064E+02 -0.70954481069E+02  0.47137311888E+02  0.11990475533E+03  0.78310527787E+02 0.  0.
          5    1    3    3  501    0 -0.88727880687E+02  0.18761428747E+02  0.35668732835E+02  0.97565242386E+02  0.47000000000E+01 0. -1.
        -11    1    4    4    0    0  0.48654385917E+02 -0.11041048110E+01  0.17198811960E+02  0.51616542399E+02  0.00000000000E+00 0.  1.
         12    1    4    4    0    0  0.79673140603E+01  0.44915820896E+02  0.41429134564E+01  0.45804724560E+02  0.00000000000E+00 0. -1.
         -5    1    5    5    0  502  0.63540986773E+02  0.83813362378E+01  0.80888897377E+02  0.10330928088E+03  0.47000000000E+01 0.  1.
         11    1    6    6    0    0 -0.21123564423E+01 -0.72850775991E+02  0.52778016865E+02  0.89984535762E+02  0.00000000000E+00 0. -1.
        -12    1    6    6    0    0 -0.29322449622E+02  0.18962949213E+01 -0.56407049771E+01  0.29920219567E+02  0.00000000000E+00 0.  1.
</event>
<event>
12    1  0.8728348E-002  0.2049188E+03  0.7818608E-02  0.1145681E+00
         21   -1    0    0  501  502  0.00000000000E+00  0.00000000000E+00  0.14607156551E+04  0.14607156551E+04  0.00000000000E+00 0.  1.
         21   -1    0    0  502  503 -0.00000000000E+00 -0.00000000000E+00 -0.32862921341E+02  0.32862921341E+02  0.00000000000E+00 0. -1.
         -6    2    1    2    0  503  0.10181369876E+03 -0.43818944066E+02  0.44925637416E+03  0.49378435566E+03  0.17235304192E+03 0.  0.
        -24    2    3    3    0    0 -0.45563380935E+01 -0.23355900702E+02  0.10839813533E+03  0.13609769130E+03  0.78779232792E+02 0.  0.
          6    2    1    2  501    0 -0.10181369876E+03  0.43818944066E+02  0.97859635965E+03  0.99979422083E+03  0.17219616654E+03 0.  0.
         24    2    5    5    0    0 -0.84378489013E+02  0.93829254189E+02  0.63908210460E+03  0.65614172624E+03  0.78564433048E+02 0.  0.
          5    1    5    5  501    0 -0.17435209751E+02 -0.50010310124E+02  0.33951425505E+03  0.34365249459E+03  0.47000000000E+01 0. -1.
        -11    1    6    6    0    0  0.72031289705E+01  0.14938589590E+02  0.20119684228E+03  0.20187921109E+03  0.00000000000E+00 0.  1.
         12    1    6    6    0    0 -0.91581617984E+02  0.78890664599E+02  0.43788526232E+03  0.45426251515E+03  0.00000000000E+00 0. -1.
         -5    1    3    3    0  503  0.10637003686E+03 -0.20463043364E+02  0.34085823883E+03  0.35768666436E+03  0.47000000000E+01 0.  1.
         13    1    4    4    0    0  0.10659189466E+02 -0.33682082364E+02  0.11032829472E+02  0.37011137764E+02  0.00000000000E+00 0. -1.
        -14    1    4    4    0    0 -0.15215527560E+02  0.10326181662E+02  0.97365305855E+02  0.99086553532E+02  0.00000000000E+00 0.  1.
</event>
<event>
12    1  0.8728348E-002  0.1895742E+03  0.7818608E-02  0.1159219E+00
         21   -1    0    0  503  502  0.00000000000E+00  0.00000000000E+00  0.84720710005E+03  0.84720710005E+03  0.00000000000E+00 0. -1.
         21   -1    0    0  501  503 -0.00000000000E+00 -0.00000000000E+00 -0.58680090204E+02  0.58680090204E+02  0.00000000000E+00 0. -1.
          6    2    1    2  501    0 -0.69251701809E+02 -0.34499469990E+02  0.63413631449E+03  0.66139822084E+03  0.17126800502E+03 0.  0.
         24    2    3    3    0    0  0.50617384802E+01  0.44772069427E+02  0.23935919299E+03  0.25191375224E+03  0.64323836169E+02 0.  0.
         -6    2    1    2    0  502  0.69251701809E+02  0.34499469990E+02  0.15439069535E+03  0.24448896941E+03  0.17306749469E+03 0.  0.
        -24    2    5    5    0    0  0.14427289219E+02  0.61751453647E+02  0.33355151944E+02  0.10876837555E+03  0.81832784731E+02 0.  0.
          5    1    3    3  501    0 -0.74313440290E+02 -0.79271539417E+02  0.39477712150E+03  0.40948446861E+03  0.47000000000E+01 0. -1.
        -13    1    4    4    0    0  0.34570790929E+02  0.21288757462E+02  0.13352844860E+03  0.13956431265E+03  0.00000000000E+00 0.  1.
         14    1    4    4    0    0 -0.29509052449E+02  0.23483311965E+02  0.10583074439E+03  0.11234943958E+03  0.00000000000E+00 0. -1.
         -5    1    5    5    0  502  0.54824412591E+02 -0.27251983656E+02  0.12103554341E+03  0.13572059386E+03  0.47000000000E+01 0.  1.
         13    1    6    6    0    0  0.23551474306E+02  0.73868398505E+02  0.63456983468E+01  0.77791259967E+02  0.00000000000E+00 0. -1.
        -14    1    6    6    0    0 -0.91241850873E+01 -0.12116944859E+02  0.27009453597E+02  0.30977115583E+02  0.00000000000E+00 0.  1.
</event>
<event>
12    1  0.8728348E-002  0.2994228E+03  0.7818608E-02  0.1085699E+00
         21   -1    0    0  503  502  0.00000000000E+00  0.00000000000E+00  0.88914069446E+03  0.88914069446E+03  0.00000000000E+00 0.  1.
         21   -1    0    0  501  503 -0.00000000000E+00 -0.00000000000E+00 -0.10141322198E+03  0.10141322198E+03  0.00000000000E+00 0. -1.
          6    2    1    2  501    0  0.24402140734E+03 -0.47888183565E+01  0.34472112709E+03  0.45660340103E+03  0.17344921547E+03 0.  0.
         24    2    3    3    0    0  0.20320287333E+03 -0.24894569056E+02  0.17582709957E+03  0.28162432667E+03  0.80535365736E+02 0.  0.
         -6    2    1    2    0  502 -0.24402140734E+03  0.47888183565E+01  0.44300634539E+03  0.53395051541E+03  0.17111151577E+03 0.  0.
        -24    2    5    5    0    0 -0.21803829213E+03 -0.45261079018E+02  0.31495403613E+03  0.39395194967E+03  0.80080157735E+02 0.  0.
          5    1    3    3  501    0  0.40818534009E+02  0.20105750699E+02  0.16889402752E+03  0.17497907435E+03  0.47000000000E+01 0. -1.
        -13    1    4    4    0    0  0.54025399458E+01 -0.47861779044E+01  0.40455002408E+02  0.41093821392E+02  0.00000000000E+00 0.  1.
         14    1    4    4    0    0  0.19780033338E+03 -0.20108391152E+02  0.13537209716E+03  0.24053050528E+03  0.00000000000E+00 0. -1.
         -5    1    5    5    0  502 -0.25983115207E+02  0.50049897374E+02  0.12805230926E+03  0.13999856574E+03  0.47000000000E+01 0.  1.
         11    1    6    6    0    0 -0.18149884186E+03 -0.10711469369E+02  0.21137939546E+03  0.27881501753E+03  0.00000000000E+00 0. -1.
        -12    1    6    6    0    0 -0.36539450269E+02 -0.34549609649E+02  0.10357464067E+03  0.11513693214E+03  0.00000000000E+00 0.  1.
</event>
<event>
12    1  0.8728348E-002  0.1832139E+03  0.7818608E-02  0.1167888E+00
         21   -1    0    0  501  502  0.00000000000E+00  0.00000000000E+00  0.16807824245E+03  0.16807824245E+03  0.00000000000E+00 0. -1.
         21   -1    0    0  502  503 -0.00000000000E+00 -0.00000000000E+00 -0.20251171249E+03  0.20251171249E+03  0.00000000000E+00 0. -1.
         -6    2    1    2    0  503 -0.45658075963E+02  0.44085335827E+02  0.36319151604E+02  0.17418914689E+03  0.15809681017E+03 0.  0.
        -24    2    3    3    0    0 -0.39145994877E+02 -0.26746567154E+02 -0.33359133086E+01  0.92615990437E+02  0.79490915189E+02 0.  0.
          6    2    1    2  501    0  0.45658075963E+02 -0.44085335827E+02 -0.70752621645E+02  0.19640080806E+03  0.17186962268E+03 0.  0.
         24    2    5    5    0    0  0.40243117501E+02  0.27983523386E+02 -0.79565194437E+02  0.12344195882E+03  0.80651788225E+02 0.  0.
          5    1    5    5  501    0  0.54149584623E+01 -0.72068859212E+02  0.88125727923E+01  0.72958849241E+02  0.47000000000E+01 0. -1.
        -13    1    6    6    0    0 -0.99586848088E+01  0.16238278622E+02  0.89185453165E+01  0.21033248591E+02  0.00000000000E+00 0.  1.
         14    1    6    6    0    0  0.50201802310E+02  0.11745244763E+02 -0.88483739754E+02  0.10240871023E+03  0.00000000000E+00 0. -1.
         -5    1    3    3    0  503 -0.65120810861E+01  0.70831902981E+02  0.39655064912E+02  0.81573156450E+02  0.47000000000E+01 0.  1.
         11    1    4    4    0    0 -0.52920766763E+02 -0.12866579207E+02  0.23578770108E+02  0.59347407821E+02  0.00000000000E+00 0. -1.
        -12    1    4    4    0    0  0.13774771886E+02 -0.13879987948E+02 -0.26914683416E+02  0.33268582617E+02  0.00000000000E+00 0.  1.
</event>
<event>
12    1  0.8728348E-002  0.2175603E+03  0.7818608E-02  0.1136051E+00
         21   -1    0    0  501  502  0.00000000000E+00  0.00000000000E+00  0.19026109514E+03  0.19026109514E+03  0.00000000000E+00 0. -1.
         21   -1    0    0  502  503 -0.00000000000E+00 -0.00000000000E+00 -0.25027033038E+03  0.25027033038E+03  0.00000000000E+00 0. -1.
         -6    2    1    2    0  503  0.12240639277E+03  0.52578714261E+02 -0.56225998183E+02  0.22470833255E+03  0.17200181877E+03 0.  0.
        -24    2    3    3    0    0  0.43146570749E+02  0.88951341257E+02 -0.55295756647E+02  0.13736966568E+03  0.77709952178E+02 0.  0.
          6    2    1    2  501    0 -0.12240639277E+03 -0.52578714261E+02 -0.37832370615E+01  0.21582309298E+03  0.16975702753E+03 0.  0.
         24    2    5    5    0    0 -0.42365046770E+02  0.25816429744E+02  0.29472308493E+02  0.98859692792E+02  0.80270397150E+02 0.  0.
          5    1    5    5  501    0 -0.80041345997E+02 -0.78395144006E+02 -0.33255545554E+02  0.11696340018E+03  0.47000000000E+01 0. -1.
        -11    1    6    6    0    0 -0.21369964329E+02  0.34313764146E+02 -0.19516201216E+02  0.44888661099E+02  0.00000000000E+00 0.  1.
         12    1    6    6    0    0 -0.20995082440E+02 -0.84973344018E+01  0.48988509709E+02  0.53971031694E+02  0.00000000000E+00 0. -1.
         -5    1    3    3    0  503  0.79259822018E+02 -0.36372626995E+02 -0.93024153602E+00  0.87338666867E+02  0.47000000000E+01 0.  1.
         11    1    4    4    0    0  0.18352251741E+02  0.26253612904E+02  0.18838931253E+02  0.37161306022E+02  0.00000000000E+00 0. -1.
        -12    1    4    4    0    0  0.24794319008E+02  0.62697728353E+02 -0.74134687900E+02  0.10020835966E+03  0.00000000000E+00 0.  1.
</event>
<event>
12    1  0.8728348E-002  0.2199204E+03  0.7818608E-02  0.1134551E+00
         21   -1    0    0  503  502  0.00000000000E+00  0.00000000000E+00  0.14816830825E+02  0.14816830825E+02  0.00000000000E+00 0. -1.
         21   -1    0    0  501  503 -0.00000000000E+00 -0.00000000000E+00 -0.32442115187E+04  0.32442115187E+04  0.00000000000E+00 0.  1.
          6    2    1    2  501    0 -0.13071020026E+03  0.16496393035E+02 -0.14517916144E+04  0.14678729528E+04  0.17203146973E+03 0.  0.
         24    2    3    3    0    0 -0.14105599026E+03 -0.12578243962E+02 -0.13815625489E+04  0.13910186652E+04  0.78503794630E+02 0.  0.
         -6    2    1    2    0  502  0.13071020026E+03 -0.16496393035E+02 -0.17776030735E+04  0.17911553967E+04  0.17608997940E+03 0.  0.
        -24    2    5    5    0    0  0.14332362509E+03 -0.39510036090E+02 -0.10950447720E+04  0.11080765937E+04  0.81289484287E+02 0.  0.
          5    1    3    3  501    0  0.10345790008E+02  0.29074636997E+02 -0.70229065458E+02  0.76854287600E+02  0.47000000000E+01 0. -1.
        -13    1    4    4    0    0 -0.13462296907E+03  0.13665475651E+01 -0.98490197055E+03  0.99406091506E+03  0.00000000000E+00 0.  1.
         14    1    4    4    0    0 -0.64330211980E+01 -0.13944791527E+02 -0.39666057835E+03  0.39695775013E+03  0.00000000000E+00 0. -1.
         -5    1    5    5    0  502 -0.12613424834E+02  0.23013643055E+02 -0.68255830150E+03  0.68307880307E+03  0.47000000000E+01 0.  1.
         11    1    6    6    0    0  0.50335876477E+02 -0.85913696686E+01 -0.16095992568E+03  0.16886565597E+03  0.00000000000E+00 0. -1.
        -12    1    6    6    0    0  0.92987748612E+02 -0.30918666422E+02 -0.93408484633E+03  0.93921093768E+03  0.00000000000E+00 0.  1.
</event>
<event>
12    1  0.8728348E-002  0.1739058E+03  0.7818608E-02  0.1174592E+00
         21   -1    0    0  501  502  0.00000000000E+00  0.00000000000E+00  0.40828085356E+03  0.40828085356E+03  0.00000000000E+00 0.  1.
         21   -1    0    0  502  503 -0.00000000000E+00 -0.00000000000E+00 -0.10242447358E+03  0.10242447358E+03  0.00000000000E+00 0.  1.
         -6    2    1    2    0  503 -0.24615650766E+02  0.13876590159E+02  0.14708045324E+02  0.17157321634E+03  0.16858989279E+03 0.  0.
        -24    2    3    3    0    0  0.45311318332E+02  0.27131250398E+02  0.21989353797E+02  0.99875416664E+02  0.81867862169E+02 0.  0.
          6    2    1    2  501    0  0.24615650766E+02 -0.13876590159E+02  0.29114833465E+03  0.33913211080E+03  0.17159471376E+03 0.  0.
         24    2    5    5    0    0  0.64191688365E+02 -0.59124618914E+02  0.17892997157E+03  0.21174020419E+03  0.72122714364E+02 0.  0.
          5    1    5    5  501    0 -0.39576037599E+02  0.45248028755E+02  0.11221836308E+03  0.12739190661E+03  0.47000000000E+01 0. -1.
        -11    1    6    6    0    0  0.22694852027E+02 -0.31731658369E+02  0.14828807819E+03  0.15333397727E+03  0.00000000000E+00 0.  1.
         12    1    6    6    0    0  0.41496836337E+02 -0.27392960544E+02  0.30641893382E+02  0.58406226923E+02  0.00000000000E+00 0. -1.
         -5    1    3    3    0  503 -0.69926969098E+02 -0.13254660240E+02 -0.72813084726E+01  0.71697799676E+02  0.47000000000E+01 0.  1.
         11    1    4    4    0    0  0.24299849019E+02 -0.13474456987E+02 -0.22747187422E+02  0.35909305048E+02  0.00000000000E+00 0. -1.
        -12    1    4    4    0    0  0.21011469313E+02  0.40605707386E+02  0.44736541219E+02  0.63966111615E+02  0.00000000000E+00 0.  1.
</event>
<event>
12    1  0.8728348E-002  0.1999335E+03  0.7818608E-02  0.1149804E+00
         21   -1    0    0  503  502  0.00000000000E+00  0.00000000000E+00  0.17211854781E+03  0.17211854781E+03  0.00000000000E+00 0.  1.
         21   -1    0    0  501  503 -0.00000000000E+00 -0.00000000000E+00 -0.24248111775E+03  0.24248111775E+03  0.00000000000E+00 0.  1.
          6    2    1    2  501    0  0.54177741919E+02 -0.85629413160E+02 -0.77877321357E+02  0.21456535030E+03  0.17235367199E+03 0.  0.
         24    2    3    3    0    0 -0.82529261557E+01 -0.31811305504E+02  0.19661320162E+02  0.86777034647E+02  0.77869225524E+02 0.  0.
         -6    2    1    2    0  502 -0.54177741919E+02  0.85629413160E+02  0.75147514159E+01  0.20003431525E+03  0.17230679520E+03 0.  0.
        -24    2    5    5    0    0 -0.10244002012E+03  0.48773542047E+02 -0.12365885091E+01  0.13850157045E+03  0.79425057370E+02 0.  0.
          5    1    3    3  501    0  0.62430668074E+02 -0.53818107656E+02 -0.97538641518E+02  0.12778831565E+03  0.47000000000E+01 0. -1.
        -11    1    4    4    0    0 -0.31787026350E+02 -0.28953064209E+02 -0.14341919671E+02  0.45325331010E+02  0.00000000000E+00 0.  1.
         12    1    4    4    0    0  0.23534100195E+02 -0.28582412945E+01  0.34003239833E+02  0.41451703637E+02  0.00000000000E+00 0. -1.
         -5    1    5    5    0  502  0.48262278204E+02  0.36855871113E+02  0.87513399249E+01  0.61532744807E+02  0.47000000000E+01 0.  1.
         13    1    6    6    0    0 -0.24727397235E+02 -0.77358608811E+01 -0.28604175526E+02  0.38593867066E+02  0.00000000000E+00 0. -1.
        -14    1    6    6    0    0 -0.77712622888E+02  0.56509402928E+02  0.27367587017E+02  0.99907703379E+02  0.00000000000E+00 0.  1.
</event>
<event>
12    1  0.8728348E-002  0.1853727E+03  0.7818608E-02  0.1162901E+00
         21   -1    0    0  503  502  0.00000000000E+00  0.00000000000E+00  0.27670995595E+03  0.27670995595E+03  0.00000000000E+00 0.  1.
         21   -1    0    0  501  503 -0.00000000000E+00 -0.00000000000E+00 -0.12648662686E+03  0.12648662686E+03  0.00000000000E+00 0.  1.
          6    2    1    2  501    0  0.58732000476E+02 -0.34175277108E+02  0.44907508562E+02  0.19073471049E+03  0.17246926687E+03 0.  0.
         24    2    3    3    0    0 -0.13477793872E+02  0.39204684716E+01  0.69052491125E+02  0.10546683603E+03  0.78472835881E+02 0.  0.
         -6    2    1    2    0  502 -0.58732000476E+02  0.34175277108E+02  0.10531582052E+03  0.21246187232E+03  0.17155531963E+03 0.  0.
        -24    2    5    5    0    0  0.12055255991E+02 -0.55935642504E+01 -0.74687241635E+00  0.78806415069E+02  0.77674166101E+02 0.  0.
          5    1    3    3  501    0  0.72209794349E+02 -0.38095745580E+02 -0.24144982563E+02  0.85267874455E+02  0.47000000000E+01 0. -1.
        -11    1    4    4    0    0  0.17058530100E+02 -0.25253424098E+02  0.51269586442E+02  0.59643099951E+02  0.00000000000E+00 0.  1.
         12    1    4    4    0    0 -0.30536323972E+02  0.29173892570E+02  0.17782904683E+02  0.45823736080E+02  0.00000000000E+00 0. -1.
         -5    1    5    5    0  502 -0.70787256468E+02  0.39768841358E+02  0.10606269294E+03  0.13365545725E+03  0.47000000000E+01 0.  1.
         13    1    6    6    0    0  0.44758042405E+01 -0.57120177269E+01  0.38325014045E+02  0.39005982511E+02  0.00000000000E+00 0. -1.
        -14    1    6    6    0    0  0.75794517507E+01  0.11845347654E+00 -0.39071886462E+02  0.39800432557E+02  0.00000000000E+00 0.  1.
</event>
<event>
12    1  0.8728348E-002  0.1830835E+03  0.7818608E-02  0.1165323E+00
         21   -1    0    0  503  502  0.00000000000E+00  0.00000000000E+00  0.20933821735E+03  0.20933821735E+03  0.00000000000E+00 0.  1.
         21   -1    0    0  501  503 -0.00000000000E+00 -0.00000000000E+00 -0.17640212597E+03  0.17640212597E+03  0.00000000000E+00 0.  1.
          6    2    1    2  501    0  0.55809726786E+02  0.11237898972E+02 -0.45070240652E+02  0.18854949333E+03  0.17400738164E+03 0.  0.
         24    2    3    3    0    0  0.84691502956E+02 -0.11872476357E+01 -0.79568100063E+02  0.14163751654E+03  0.80969397388E+02 0.  0.
         -6    2    1    2    0  502 -0.55809726786E+02 -0.11237898972E+02  0.78006332031E+02  0.19719084998E+03  0.17192506362E+03 0.  0.
        -24    2    5    5    0    0 -0.12812412822E+02 -0.38024253744E+02 -0.20945360431E+02  0.85926276773E+02  0.73038449609E+02 0.  0.
          5    1    3    3  501    0 -0.28881776170E+02  0.12425146607E+02  0.34497859410E+02  0.46911976795E+02  0.47000000000E+01 0. -1.
        -11    1    4    4    0    0  0.47153975664E+02  0.27428023006E+02 -0.77002439240E+02  0.94367205723E+02  0.00000000000E+00 0.  1.
         12    1    4    4    0    0  0.37537527291E+02 -0.28615270641E+02 -0.25656608225E+01  0.47270310814E+02  0.00000000000E+00 0. -1.
         -5    1    5    5    0  502 -0.42997313963E+02  0.26786354773E+02  0.98951692462E+02  0.11126457321E+03  0.47000000000E+01 0.  1.
         11    1    6    6    0    0 -0.27170517170E+02 -0.51788110134E+02 -0.27977018717E+02  0.64830231612E+02  0.00000000000E+00 0. -1.
        -12    1    6    6    0    0  0.14358104348E+02  0.13763856389E+02  0.70316582864E+01  0.21096045161E+02  0.00000000000E+00 0.  1.
</event>
<event>
12    1  0.8728348E-002  0.2727046E+03  0.7818608E-02  0.1099766E+00
         21   -1    0    0  501  502  0.00000000000E+00  0.00000000000E+00  0.35600447217E+03  0.35600447217E+03  0.00000000000E+00 0. -1.
         21   -1    0    0  502  503 -0.00000000000E+00 -0.00000000000E+00 -0.26076802308E+03  0.26076802308E+03  0.00000000000E+00 0.  1.
         -6    2    1    2    0  503  0.15088807213E+02 -0.21140185822E+03 -0.90085164774E+02  0.28719880461E+03  0.17160827105E+03 0.  0.
        -24    2    3    3    0    0  0.59109022180E+02 -0.17108149204E+03 -0.24563338317E+02  0.19843670122E+03  0.77530725409E+02 0.  0.
          6    2    1    2  501    0 -0.15088807213E+02  0.21140185822E+03  0.18532161387E+03  0.32957369064E+03  0.17133680058E+03 0.  0.
         24    2    5    5    0    0 -0.68659543012E+02  0.15311304465E+03  0.16457715613E+03  0.24759910892E+03  0.77858468570E+02 0.  0.
          5    1    5    5  501    0  0.53570735799E+02  0.58288813569E+02  0.20744457736E+02  0.81974581720E+02  0.47000000000E+01 0. -1.
        -13    1    6    6    0    0 -0.46504723859E+02  0.36737969926E+02  0.24461297177E+02  0.64114918974E+02  0.00000000000E+00 0.  1.
         14    1    6    6    0    0 -0.22154819152E+02  0.11637507472E+03  0.14011585895E+03  0.18348418994E+03  0.00000000000E+00 0. -1.
         -5    1    3    3    0  503 -0.44020214967E+02 -0.40320366183E+02 -0.65521826456E+02  0.88762103383E+02  0.47000000000E+01 0.  1.
         11    1    4    4    0    0  0.69812383725E+02 -0.99568828502E+02 -0.32003958219E+02  0.12574567139E+03  0.00000000000E+00 0. -1.
        -12    1    4    4    0    0 -0.10703361546E+02 -0.71512663534E+02  0.74406199022E+01  0.72691029837E+02  0.00000000000E+00 0.  1.
</event>
<event>
12    1  0.8728348E-002  0.2082398E+03  0.7818608E-02  0.1143177E+00
         21   -1    0    0  503  502  0.00000000000E+00  0.00000000000E+00  0.90121066713E+03  0.90121066713E+03  0.00000000000E+00 0. -1.
         21   -1    0    0  501  503 -0.00000000000E+00 -0.00000000000E+00 -0.55845240462E+02  0.55845240462E+02  0.00000000000E+00 0. -1.
          6    2    1    2  501    0 -0.25329672353E+02  0.11160668447E+03  0.24282732174E+03  0.31988895036E+03  0.17397180249E+03 0.  0.
         24    2    3    3    0    0  0.51327752743E+02  0.77566151938E+02  0.12105009716E+03  0.17194672818E+03  0.79129673212E+02 0.  0.
         -6    2    1    2    0  502  0.25329672353E+02 -0.11160668447E+03  0.60253810493E+03  0.63716695723E+03  0.17271919168E+03 0.  0.
        -24    2    5    5    0    0 -0.33180308019E+02 -0.35579577991E+02  0.17014640068E+03  0.19423556906E+03  0.80067592779E+02 0.  0.
          5    1    3    3  501    0 -0.76657425096E+02  0.34040532530E+02  0.12177722458E+03  0.14794222218E+03  0.47000000000E+01 0. -1.
        -13    1    4    4    0    0  0.70978546675E+01  0.15192956628E+02  0.86375486124E+02  0.87988238277E+02  0.00000000000E+00 0.  1.
         14    1    4    4    0    0  0.44229898075E+02  0.62373195310E+02  0.34674611036E+02  0.83958489907E+02  0.00000000000E+00 0. -1.
         -5    1    5    5    0  502  0.58509980372E+02 -0.76027106476E+02  0.43239170425E+03  0.44293138817E+03  0.47000000000E+01 0.  1.
         11    1    6    6    0    0 -0.35298959172E+02 -0.37040111479E+02  0.17839880092E+03  0.18559126743E+03  0.00000000000E+00 0. -1.
        -12    1    6    6    0    0  0.21186511530E+01  0.14605334883E+01 -0.82524002446E+01  0.86443016245E+01  0.00000000000E+00 0.  1.
</event>
<event>
12    1  0.8728348E-002  0.1949332E+03  0.7818608E-02  0.1154225E+00
         21   -1    0    0  501  502  0.00000000000E+00  0.00000000000E+00  0.80983420945E+02  0.80983420945E+02  0.00000000000E+00 0. -1.
         21   -1    0    0  502  503 -0.00000000000E+00 -0.00000000000E+00 -0.68194680310E+03  0.68194680310E+03  0.00000000000E+00 0. -1.
         -6    2    1    2    0  503  0.64500648717E+02  0.62904612376E+02 -0.51396578865E+03  0.54946469931E+03  0.17214325413E+03 0.  0.
        -24    2    3    3    0    0  0.20399797454E+02  0.10039302074E+03 -0.41612548790E+03  0.43568825054E+03  0.78542470228E+02 0.  0.
          6    2    1    2  501    0 -0.64500648717E+02 -0.62904612376E+02 -0.86997593503E+02  0.21346552473E+03  0.17286302390E+03 0.  0.
         24    2    5    5    0    0  0.16611008535E+02 -0.61723124557E+02 -0.84096073200E+02  0.13215743365E+03  0.79421458255E+02 0.  0.
          5    1    5    5  501    0 -0.81111657252E+02 -0.11814878185E+01 -0.29015203029E+01  0.81308091083E+02  0.47000000000E+01 0. -1.
        -13    1    6    6    0    0  0.16664786420E+02  0.16622410467E+02 -0.17467335082E+02  0.29310875644E+02  0.00000000000E+00 0.  1.
         14    1    6    6    0    0 -0.53777884968E-01 -0.78345535024E+02 -0.66628738118E+02  0.10284655800E+03  0.00000000000E+00 0. -1.
         -5    1    3    3    0  503  0.44100851263E+02 -0.37488408366E+02 -0.97840300745E+02  0.11377644877E+03  0.47000000000E+01 0.  1.
         13    1    4    4    0    0  0.47286516656E+02  0.86824380046E+02 -0.31131255521E+03  0.32663434397E+03  0.00000000000E+00 0. -1.
        -14    1    4    4    0    0 -0.26886719202E+02  0.13568640696E+02 -0.10481293269E+03  0.10905390657E+03  0.00000000000E+00 0.  1.
</event>
<event>
12    1  0.8728348E-002  0.1919223E+03  0.7818608E-02  0.1157329E+00
         21   -1    0    0  501  502  0.00000000000E+00  0.00000000000E+00  0.14946758204E+04  0.14946758204E+04  0.00000000000E+00 0. -1.
         21   -1    0    0  502  503 -0.00000000000E+00 -0.00000000000E+00 -0.38086804148E+02  0.38086804148E+02  0.00000000000E+00 0.  1.
         -6    2    1    2    0  503  0.80616437745E+02  0.38042811406E+01  0.11924784452E+04  0.12078240792E+04  0.17412834773E+03 0.  0.
        -24    2    3    3    0    0  0.89675309815E+01  0.42079593813E+02  0.90488667365E+03  0.90894336311E+03  0.74209408813E+02 0.  0.
          6    2    1    2  501    0 -0.80616437745E+02 -0.38042811406E+01  0.26411057102E+03  0.32493854530E+03  0.17122260921E+03 0.  0.
         24    2    5    5    0    0 -0.60236533749E+02  0.23903588042E+02  0.57314637320E+02  0.11524897785E+03  0.76141563715E+02 0.  0.
          5    1    5    5  501    0 -0.20379903996E+02 -0.27707869182E+02  0.20679593370E+03  0.20968956745E+03  0.47000000000E+01 0. -1.
        -11    1    6    6    0    0 -0.36801502773E+02  0.40595376031E+02  0.65441186349E+02  0.85351532103E+02  0.00000000000E+00 0.  1.
         12    1    6    6    0    0 -0.23435030976E+02 -0.16691787990E+02 -0.81265490283E+01  0.29897445748E+02  0.00000000000E+00 0. -1.
         -5    1    3    3    0  503  0.71648906763E+02 -0.38275312672E+02  0.28759177154E+03  0.29888071611E+03  0.47000000000E+01 0.  1.
         11    1    4    4    0    0  0.23122106158E+02  0.53836815391E+02  0.81973125589E+03  0.82182258814E+03  0.00000000000E+00 0. -1.
        -12    1    4    4    0    0 -0.14154575177E+02 -0.11757221578E+02  0.85155417759E+02  0.87120774970E+02  0.00000000000E+00 0.  1.
</event>
<event>
12    1  0.8728348E-002  0.1834291E+03  0.7818608E-02  0.1164713E+00
         21   -1    0    0  503  502  0.00000000000E+00  0.00000000000E+00  0.13600421825E+03  0.13600421825E+03  0.00000000000E+00 0.  1.
         21   -1    0    0  501  503 -0.00000000000E+00 -0.00000000000E+00 -0.36693291898E+03  0.36693291898E+03  0.00000000000E+00 0.  1.
          6    2    1    2  501    0 -0.16639847392E+02  0.57706887370E+02 -0.25980806321E+03  0.31803532563E+03  0.17331840429E+03 0.  0.
         24    2    3    3    0    0  0.30444183173E+01  0.10292054928E+03 -0.17730920765E+03  0.22180696853E+03  0.84604185630E+02 0.  0.
         -6    2    1    2    0  502  0.16639847392E+02 -0.57706887370E+02  0.28879362488E+02  0.18490181160E+03  0.17247519527E+03 0.  0.
        -24    2    5    5    0    0 -0.85583380386E-01 -0.13911481399E+02 -0.56349730854E+02  0.87516669149E+02  0.65500676122E+02 0.  0.
          5    1    3    3  501    0 -0.19684265709E+02 -0.45213661908E+02 -0.82498855564E+02  0.96228357094E+02  0.47000000000E+01 0. -1.
        -11    1    4    4    0    0  0.41570762271E+02  0.46465593525E+02 -0.10639547237E+03  0.12331737995E+03  0.00000000000E+00 0.  1.
         12    1    4    4    0    0 -0.38526343954E+02  0.56454955753E+02 -0.70913735276E+02  0.98489588578E+02  0.00000000000E+00 0. -1.
         -5    1    5    5    0  502  0.16725430772E+02 -0.43795405971E+02  0.85229093342E+02  0.97385142453E+02  0.47000000000E+01 0.  1.
         11    1    6    6    0    0  0.18442466907E+01  0.99897883468E+01 -0.62044525421E+02  0.62870662887E+02  0.00000000000E+00 0. -1.
        -12    1    6    6    0    0 -0.19298300711E+01 -0.23901269746E+02  0.56947945666E+01  0.24646006263E+02  0.00000000000E+00 0.  1.
</event>
<event>
12    1  0.8728348E-002  0.1923633E+03  0.7818608E-02  0.1156385E+00
         21   -1    0    0  501  502  0.00000000000E+00  0.00000000000E+00  0.99118549623E+02  0.99118549623E+02  0.00000000000E+00 0.  1.
         21   -1    0    0  502  503 -0.00000000000E+00 -0.00000000000E+00 -0.37322468719E+03  0.37322468719E+03  0.00000000000E+00 0.  1.
         -6    2    1    2    0  503  0.41365355832E+02  0.75269524138E+02 -0.13121189191E+03  0.23285229139E+03  0.17212505657E+03 0.  0.
        -24    2    3    3    0    0  0.83346754272E+02  0.12577461957E+02 -0.89680796401E+02  0.14659886033E+03  0.79647389214E+02 0.  0.
          6    2    1    2  501    0 -0.41365355832E+02 -0.75269524138E+02 -0.14289424566E+03  0.23949094543E+03  0.17193182827E+03 0.  0.
         24    2    5    5    0    0 -0.11196612921E+02 -0.32038010054E+02 -0.16106158589E+03  0.18353329081E+03  0.81190123532E+02 0.  0.
          5    1    5    5  501    0 -0.30168742911E+02 -0.43231514084E+02  0.18167340232E+02  0.55957654614E+02  0.47000000000E+01 0. -1.
        -11    1    6    6    0    0  0.16742518397E+02 -0.50639740649E+02 -0.84322126603E+02  0.99774326808E+02  0.00000000000E+00 0.  1.
         12    1    6    6    0    0 -0.27939131318E+02  0.18601730594E+02 -0.76739459286E+02  0.83758964007E+02  0.00000000000E+00 0. -1.
         -5    1    3    3    0  503 -0.41981398440E+02  0.62692062181E+02 -0.41531095512E+02  0.86253431062E+02  0.47000000000E+01 0.  1.
         11    1    4    4    0    0  0.63571344410E+02 -0.28616960876E+02 -0.61105847177E+02  0.92704750898E+02  0.00000000000E+00 0. -1.
        -12    1    4    4    0    0  0.19775409863E+02  0.41194422833E+02 -0.28574949224E+02  0.53894109427E+02  0.00000000000E+00 0.  1.
</event>
<event>
12    1  0.8728348E-002  0.1845610E+03  0.7818608E-02  0.1163636E+00
         21   -1    0    0  501  502  0.00000000000E+00  0.00000000000E+00  0.15438316192E+03  0.15438316192E+03  0.00000000000E+00 0. -1.
         21   -1    0    0  502  503 -0.00000000000E+00 -0.00000000000E+00 -0.23217717909E+03  0.23217717909E+03  0.00000000000E+00 0. -1.
         -6    2    1    2    0  503  0.66128569307E+02  0.57683462535E+01 -0.83694037023E+02  0.20265110776E+03  0.17221067954E+03 0.  0.
        -24    2    3    3    0    0 -0.11794934470E+02  0.10347480195E+02 -0.10857801499E+03  0.12058806329E+03  0.50061011217E+02 0.  0.
          6    2    1    2  501    0 -0.66128569307E+02 -0.57683462535E+01  0.59000198476E+01  0.18390923325E+03  0.17141042658E+03 0.  0.
         24    2    5    5    0    0 -0.57577401823E+02 -0.59055172462E+01 -0.61472417521E+02  0.11583371196E+03  0.79300431122E+02 0.  0.
          5    1    5    5  501    0 -0.85511674837E+01  0.13717099270E+00  0.67372437368E+02  0.68075521285E+02  0.47000000000E+01 0. -1.
        -11    1    6    6    0    0 -0.76150337979E+02 -0.18808192325E+01 -0.36539420169E+02  0.84483967009E+02  0.00000000000E+00 0.  1.
         12    1    6    6    0    0  0.18572936156E+02 -0.40246980137E+01 -0.24932997352E+02  0.31349744951E+02  0.00000000000E+00 0. -1.
         -5    1    3    3    0  503  0.77923503777E+02 -0.45791339415E+01  0.24883977967E+02  0.82063044472E+02  0.47000000000E+01 0.  1.
         11    1    4    4    0    0 -0.22158896509E+02  0.21050308110E+02 -0.97054459232E+02  0.10175313373E+03  0.00000000000E+00 0. -1.
        -12    1    4    4    0    0  0.10363962039E+02 -0.10702827915E+02 -0.11523555758E+02  0.18834929568E+02  0.00000000000E+00 0.  1.
</event>
<event>
12    1  0.8728348E-002  0.1787610E+03  0.7818608E-02  0.1169491E+00
         21   -1    0    0  503  502  0.00000000000E+00  0.00000000000E+00  0.29917371913E+02  0.29917371913E+02  0.00000000000E+00 0.  1.
         21   -1    0    0  501  503 -0.00000000000E+00 -0.00000000000E+00 -0.13295704868E+04  0.13295704868E+04  0.00000000000E+00 0.  1.
          6    2    1    2  501    0  0.42666047459E+02 -0.27117261916E+02 -0.96078623843E+03  0.97727461753E+03  0.17146353728E+03 0.  0.
         24    2    3    3    0    0  0.62128119507E+02 -0.18865416061E+02 -0.94486623473E+03  0.95039708554E+03  0.79161932129E+02 0.  0.
         -6    2    1    2    0  502 -0.42666047459E+02  0.27117261916E+02 -0.33886687650E+03  0.38221324122E+03  0.16941211373E+03 0.  0.
        -24    2    5    5    0    0  0.34787680741E+02  0.41279079152E+02 -0.20980347881E+03  0.23095489368E+03  0.80053220333E+02 0.  0.
          5    1    3    3  501    0 -0.19462072048E+02 -0.82518458549E+01 -0.15920003693E+02  0.26877531993E+02  0.47000000000E+01 0. -1.
        -13    1    4    4    0    0 -0.41724903213E+01 -0.11154200898E+02 -0.53491370576E+03  0.53504625826E+03  0.00000000000E+00 0.  1.
         14    1    4    4    0    0  0.66300609828E+02 -0.77112151626E+01 -0.40995252898E+03  0.41535082728E+03  0.00000000000E+00 0. -1.
         -5    1    5    5    0  502 -0.77453728200E+02 -0.14161817236E+02 -0.12906339768E+03  0.15125834754E+03  0.47000000000E+01 0.  1.
         13    1    6    6    0    0  0.17858143181E+02  0.63059654328E+02 -0.17271498151E+03  0.18473196290E+03  0.00000000000E+00 0. -1.
        -14    1    6    6    0    0  0.16929537560E+02 -0.21780575177E+02 -0.37088497309E+02  0.46222930777E+02  0.00000000000E+00 0.  1.
</event>
<event>
12    1  0.8728348E-002  0.2558317E+03  0.7818608E-02  0.1109949E+00
         21   -1    0    0  503  502  0.00000000000E+00  0.00000000000E+00  0.10427177957E+03  0.10427177957E+03  0.00000000000E+00 0.  1.
         21   -1    0    0  501  503 -0.00000000000E+00 -0.00000000000E+00 -0.73057903831E+03  0.73057903831E+03  0.00000000000E+00 0. -1.
          6    2    1    2  501    0  0.18114379506E+03 -0.46479677495E+02 -0.47217110181E+03  0.53617404734E+03  0.17194075941E+03 0.  0.
         24    2    3    3    0    0  0.52275425133E+02 -0.31957358698E+02 -0.66682339074E+02  0.11042625672E+03  0.63193599210E+02 0.  0.
         -6    2    1    2    0  502 -0.18114379506E+03  0.46479677495E+02 -0.15413615692E+03  0.29867677054E+03  0.17457497954E+03 0.  0.
        -24    2    5    5    0    0 -0.34298856536E+02  0.32241603414E+02 -0.10789954630E+03  0.14399621945E+03  0.82925668980E+02 0.  0.
          5    1    3    3  501    0  0.12886836992E+03 -0.14522318797E+02 -0.40548876274E+03  0.42574779062E+03  0.47000000000E+01 0. -1.
        -11    1    4    4    0    0  0.64729502500E+02 -0.25759349602E+02 -0.39995111049E+02  0.80330949786E+02  0.00000000000E+00 0.  1.
         12    1    4    4    0    0 -0.12454077366E+02 -0.61980090962E+01 -0.26687228025E+02  0.30095306934E+02  0.00000000000E+00 0. -1.
         -5    1    5    5    0  502 -0.14684493852E+03  0.14238074081E+02 -0.46236610627E+02  0.15468055109E+03  0.47000000000E+01 0.  1.
         11    1    6    6    0    0 -0.53440165430E+01 -0.27720810061E+02 -0.25387966635E+02  0.37967758337E+02  0.00000000000E+00 0. -1.
        -12    1    6    6    0    0 -0.28954839993E+02  0.59962413475E+02 -0.82511579662E+02  0.10602846112E+03  0.00000000000E+00 0.  1.
</event>
<event>
12    1  0.8728348E-002  0.1843481E+03  0.7818608E-02  0.1165372E+00
         21   -1    0    0  503  502  0.00000000000E+00  0.00000000000E+00  0.95726828994E+03  0.95726828994E+03  0.00000000000E+00 0.  1.
         21   -1    0    0  501  503 -0.00000000000E+00 -0.00000000000E+00 -0.34490127143E+02  0.34490127143E+02  0.00000000000E+00 0.  1.
          6    2    1    2  501    0  0.75054737415E+01 -0.66372570896E+02  0.40229140794E+03  0.43958935450E+03  0.16413035484E+03 0.  0.
         24    2    3    3    0    0  0.60828020878E+02 -0.29885250826E+02  0.30469779288E+03  0.32245173347E+03  0.80877679807E+02 0.  0.
         -6    2    1    2    0  502 -0.75054737415E+01  0.66372570896E+02  0.52048675485E+03  0.55216906258E+03  0.17182130658E+03 0.  0.
        -24    2    5    5    0    0 -0.93530434846E+01 -0.71692247893E+01  0.41888446356E+03  0.42664247248E+03  0.80129447188E+02 0.  0.
          5    1    3    3  501    0 -0.53322547136E+02 -0.36487320071E+02  0.97593615066E+02  0.11713762103E+03  0.47000000000E+01 0. -1.
        -13    1    4    4    0    0 -0.21410022840E+01 -0.34904334397E+02  0.17156774445E+03  0.17509536654E+03  0.00000000000E+00 0.  1.
         14    1    4    4    0    0  0.62969023162E+02  0.50190835718E+01  0.13313004843E+03  0.14735636693E+03  0.00000000000E+00 0. -1.
         -5    1    5    5    0  502  0.18475697431E+01  0.73541795685E+02  0.10160229129E+03  0.12552659010E+03  0.47000000000E+01 0.  1.
         13    1    6    6    0    0  0.29376937129E+02 -0.21932681205E+02  0.14120445116E+03  0.14588606502E+03  0.00000000000E+00 0. -1.
        -14    1    6    6    0    0 -0.38729980613E+02  0.14763456416E+02  0.27768001240E+03  0.28075640746E+03  0.00000000000E+00 0.  1.
</event>
<event>
12    1  0.8728348E-002  0.1779053E+03  0.7818608E-02  0.1170535E+00
         21   -1    0    0  501  502  0.00000000000E+00  0.00000000000E+00  0.29841541467E+03  0.29841541467E+03  0.00000000000E+00 0. -1.
         21   -1    0    0  502  503 -0.00000000000E+00 -0.00000000000E+00 -0.19991709664E+03  0.19991709664E+03  0.00000000000E+00 0. -1.
         -6    2    1    2    0  503  0.26559118256E+01 -0.45474135279E+02 -0.12317059083E+03  0.21410125255E+03  0.16909583393E+03 0.  0.
        -24    2    3    3    0    0  0.28405505782E+02 -0.76920807701E+02 -0.40297435305E+02  0.12167839444E+03  0.80362086619E+02 0.  0.
          6    2    1    2  501    0 -0.26559118256E+01  0.45474135279E+02  0.22166890886E+03  0.28423125876E+03  0.17197485995E+03 0.  0.
         24    2    5    5    0    0 -0.59329723555E+02 -0.32079878007E+01  0.15960865524E+03  0.18699219705E+03  0.77206551830E+02 0.  0.
          5    1    5    5  501    0  0.56673811729E+02  0.48682123080E+02  0.62060253619E+02  0.97239061713E+02  0.47000000000E+01 0. -1.
        -13    1    6    6    0    0 -0.44441913717E+01 -0.29895731747E+02  0.87227424300E+02  0.92315378804E+02  0.00000000000E+00 0.  1.
         14    1    6    6    0    0 -0.54885532183E+02  0.26687743946E+02  0.72381230940E+02  0.94676818242E+02  0.00000000000E+00 0. -1.
         -5    1    3    3    0  503 -0.25749593957E+02  0.31446672422E+02 -0.82873155522E+02  0.92422858112E+02  0.47000000000E+01 0.  1.
         13    1    4    4    0    0  0.29089106673E+02 -0.18435446445E+01 -0.36214265898E+02  0.46487071734E+02  0.00000000000E+00 0. -1.
        -14    1    4    4    0    0 -0.68360089059E+00 -0.75077263057E+02 -0.40831694078E+01  0.75191322709E+02  0.00000000000E+00 0.  1.
</event>
<event>
12    1  0.8728348E-002  0.1797606E+03  0.7818608E-02  0.1168134E+00
         21   -1    0    0  501  502  0.00000000000E+00  0.00000000000E+00  0.45884219825E+03  0.45884219825E+03  0.00000000000E+00 0.  1.
         21   -1    0    0  502  503 -0.00000000000E+00 -0.00000000000E+00 -0.71494663788E+02  0.71494663788E+02  0.00000000000E+00 0.  1.
         -6    2    1    2    0  503 -0.28094973902E+02  0.47619045832E+02  0.22824313419E+03  0.29027838542E+03  0.17061568408E+03 0.  0.
        -24    2    3    3    0    0  0.44310160521E+02  0.65843915247E+01  0.15161095096E+03  0.17704884929E+03  0.79709911859E+02 0.  0.
          6    2    1    2  501    0  0.28094973902E+02 -0.47619045832E+02  0.15910440027E+03  0.24005847662E+03  0.17104666301E+03 0.  0.
         24    2    5    5    0    0  0.67500262772E+02 -0.58229283067E+02  0.61057350221E+02  0.13375387677E+03  0.78836315578E+02 0.  0.
          5    1    5    5  501    0 -0.39405288870E+02  0.10610237235E+02  0.98047050052E+02  0.10630459985E+03  0.47000000000E+01 0. -1.
        -11    1    6    6    0    0 -0.15376318441E+02  0.11648398301E+00 -0.10070354805E+00  0.15377089403E+02  0.00000000000E+00 0.  1.
         12    1    6    6    0    0  0.82876581213E+02 -0.58345767050E+02  0.61158053769E+02  0.11837678737E+03  0.00000000000E+00 0. -1.
         -5    1    3    3    0  503 -0.72405134423E+02  0.41034654307E+02  0.76632183231E+02  0.11322953613E+03  0.47000000000E+01 0.  1.
         13    1    4    4    0    0  0.12064835932E+02  0.37138675134E+02  0.35667356880E+02  0.52886688340E+02  0.00000000000E+00 0. -1.
        -14    1    4    4    0    0  0.32245324589E+02 -0.30554283610E+02  0.11594359408E+03  0.12416216095E+03  0.00000000000E+00 0.  1.
</event>
<event>
12    1  0.8728348E-002  0.1726424E+03  0.7818608E-02  0.1177116E+00
         21   -1    0    0  503  502  0.00000000000E+00  0.00000000000E+00  0.73472876190E+02  0.73472876190E+02  0.00000000000E+00 0. -1.
         21   -1    0    0  501  503 -0.00000000000E+00 -0.00000000000E+00 -0.49326976614E+03  0.49326976614E+03  0.00000000000E+00 0. -1.
          6    2    1    2  501    0 -0.29037878911E+01 -0.21009585699E+01 -0.33708483455E+03  0.37530941569E+03  0.16497916781E+03 0.  0.
         24    2    3    3    0    0  0.41586421222E+02  0.40547165303E+02 -0.16249282720E+03  0.19009953418E+03  0.79752184681E+02 0.  0.
         -6    2    1    2    0  502  0.29037878911E+01  0.21009585699E+01 -0.82712055407E+02  0.19143322665E+03  0.17260518574E+03 0.  0.
        -24    2    5    5    0    0  0.95115401892E+01  0.60336235745E+02 -0.86595653513E+02  0.13250800087E+03  0.79552701699E+02 0.  0.
          5    1    3    3  501    0 -0.44490209113E+02 -0.42648123873E+02 -0.17459200735E+03  0.18520988151E+03  0.47000000000E+01 0. -1.
        -13    1    4    4    0    0  0.31417926078E+02  0.64983010287E+02 -0.11746645838E+03  0.13787039765E+03  0.00000000000E+00 0.  1.
         14    1    4    4    0    0  0.10168495144E+02 -0.24435844984E+02 -0.45026368821E+02  0.52229136531E+02  0.00000000000E+00 0. -1.
         -5    1    5    5    0  502 -0.66077522981E+01 -0.58235277175E+02  0.38835981058E+01  0.58925225773E+02  0.47000000000E+01 0.  1.
         13    1    6    6    0    0  0.41318591201E+02  0.17727365420E+02 -0.53475498248E+02  0.69864972458E+02  0.00000000000E+00 0. -1.
        -14    1    6    6    0    0 -0.31807051012E+02  0.42608870325E+02 -0.33120155265E+02  0.62643028416E+02  0.00000000000E+00 0.  1.
</event>
<event>
12    1  0.8728348E-002  0.1835639E+03  0.7818608E-02  0.1166901E+00
         21   -1    0    0  503  502  0.00000000000E+00  0.00000000000E+00  0.21530313408E+03  0.21530313408E+03  0.00000000000E+00 0.  1.
         21   -1    0    0  501  503 -0.00000000000E+00 -0.00000000000E+00 -0.14904648970E+03  0.14904648970E+03  0.00000000000E+00 0.  1.
          6    2    1    2  501    0  0.18559062369E+02  0.17374733548E+01  0.17781080404E+02  0.18442309437E+03  0.18261504129E+03 0.  0.
         24    2    3    3    0    0  0.66906470724E+02  0.39587741822E+01  0.60057540844E+02  0.11998866895E+03  0.79361355493E+02 0.  0.
         -6    2    1    2    0  502 -0.18559062369E+02 -0.17374733548E+01  0.48475563969E+02  0.17992652941E+03  0.17226786721E+03 0.  0.
        -24    2    5    5    0    0  0.31335430961E+02 -0.54071417538E+02  0.30531405435E+02  0.10527812016E+03  0.79029668089E+02 0.  0.
          5    1    3    3  501    0 -0.48347408355E+02 -0.22213008274E+01 -0.42276460440E+02  0.64434425421E+02  0.47000000000E+01 0. -1.
        -13    1    4    4    0    0  0.77077897146E+02 -0.91783303103E+01  0.25600387930E+02  0.81735083275E+02  0.00000000000E+00 0.  1.
         14    1    4    4    0    0 -0.10171426422E+02  0.13137104493E+02  0.34457152914E+02  0.38253585673E+02  0.00000000000E+00 0. -1.
         -5    1    5    5    0  502 -0.49894493330E+02  0.52333944183E+02  0.17944158534E+02  0.74648409252E+02  0.47000000000E+01 0.  1.
         11    1    6    6    0    0  0.29272165104E+02 -0.74396285086E+02  0.27918374005E+02  0.84682362340E+02  0.00000000000E+00 0. -1.
        -12    1    6    6    0    0  0.20632658564E+01  0.20324867548E+02  0.26130314299E+01  0.20595757818E+02  0.00000000000E+00 0.  1.
</event>
<event>
12    1  0.8728348E-002  0.1927803E+03  0.7818608E-02  0.1156368E+00
         21   -1    0    0  503  502  0.00000000000E+00  0.00000000000E+00  0.62599489359E+02  0.62599489359E+02  0.00000000000E+00 0. -1.
         21   -1    0    0  501  503 -0.00000000000E+00 -0.00000000000E+00 -0.66209228483E+03  0.66209228483E+03  0.00000000000E+00 0. -1.
          6    2    1    2  501    0  0.24788629708E+02 -0.80938298463E+02 -0.17998635087E+03  0.26374102391E+03  0.17320149211E+03 0.  0.
         24    2    3    3    0    0  0.27673275826E+02 -0.11604803363E+03 -0.17723186197E+03  0.22809425834E+03  0.79893062800E+02 0.  0.
         -6    2    1    2    0  502 -0.24788629708E+02  0.80938298463E+02 -0.41950644459E+03  0.46095075028E+03  0.17124384020E+03 0.  0.
        -24    2    5    5    0    0 -0.21929187045E+02 -0.24189202815E+02 -0.19581584374E+03  0.21372708061E+03  0.79179628356E+02 0.  0.
          5    1    3    3  501    0 -0.28846461179E+01  0.35109735165E+02 -0.27544889004E+01  0.35646765571E+02  0.47000000000E+01 0. -1.
        -13    1    4    4    0    0  0.15307776939E+02  0.62856121911E+01 -0.42925074683E+02  0.46004336665E+02  0.00000000000E+00 0.  1.
         14    1    4    4    0    0  0.12365498888E+02 -0.12233364582E+03 -0.13430678729E+03  0.18208992167E+03  0.00000000000E+00 0. -1.
         -5    1    5    5    0  502 -0.28594426630E+01  0.10512750128E+03 -0.22369060085E+03  0.24722366967E+03  0.47000000000E+01 0.  1.
         11    1    6    6    0    0 -0.29226637039E+02  0.83172493088E+01 -0.16680647894E+03  0.16955168641E+03  0.00000000000E+00 0. -1.
        -12    1    6    6    0    0  0.72974499935E+01 -0.32506452124E+02 -0.29009364805E+02  0.44175394197E+02  0.00000000000E+00 0.  1.
</event>
<event>
12    1  0.8728348E-002  0.2717699E+03  0.7818608E-02  0.1101017E+00
         21   -1    0    0  501  502  0.00000000000E+00  0.00000000000E+00  0.11857225201E+03  0.11857225201E+03  0.00000000000E+00 0.  1.
         21   -1    0    0  502  503 -0.00000000000E+00 -0.00000000000E+00 -0.61189356235E+03  0.61189356235E+03  0.00000000000E+00 0.  1.
         -6    2    1    2    0  503  0.15933749847E+03  0.12698472646E+03 -0.23536134219E+03  0.35951891185E+03  0.17984806756E+03 0.  0.
        -24    2    3    3    0    0  0.34122494652E+02  0.42831531295E+02 -0.27635143956E+02  0.10274504077E+03  0.82425466370E+02 0.  0.
          6    2    1    2  501    0 -0.15933749847E+03 -0.12698472646E+03 -0.25795996816E+03  0.37094690251E+03  0.17188571825E+03 0.  0.
         24    2    5    5    0    0 -0.49935131289E+02 -0.13469507086E+02 -0.38640028305E+02  0.10080266513E+03  0.77415635062E+02 0.  0.
          5    1    5    5  501    0 -0.10940236718E+03 -0.11351521938E+03 -0.21931993985E+03  0.27014423738E+03  0.47000000000E+01 0. -1.
        -13    1    6    6    0    0 -0.46085135239E+02 -0.41533970576E+02 -0.37415688608E+02  0.72448907210E+02  0.00000000000E+00 0.  1.
         14    1    6    6    0    0 -0.38499960499E+01  0.28064463490E+02 -0.12243396973E+01  0.28353757921E+02  0.00000000000E+00 0. -1.
         -5    1    3    3    0  503  0.12521500382E+03  0.84153195166E+02 -0.20772619823E+03  0.25677387108E+03  0.47000000000E+01 0.  1.
         11    1    4    4    0    0  0.16319152475E+02 -0.24211956583E+02 -0.40480490425E+01  0.29477453759E+02  0.00000000000E+00 0. -1.
        -12    1    4    4    0    0  0.17803342177E+02  0.67043487878E+02 -0.23587094914E+02  0.73267587008E+02  0.00000000000E+00 0.  1.
</event>
<event>
12    1  0.8728348E-002  0.2063613E+03  0.7818608E-02  0.1145562E+00
         21   -1    0    0  503  502  0.00000000000E+00  0.00000000000E+00  0.16180867533E+04  0.16180867533E+04  0.00000000000E+00 0.  1.
         21   -1    0    0  501  503 -0.00000000000E+00 -0.00000000000E+00 -0.28588257408E+02  0.28588257408E+02  0.00000000000E+00 0.  1.
          6    2    1    2  501    0  0.92393099985E+02 -0.55264345746E+02  0.54006660351E+03  0.57814957173E+03  0.17605214636E+03 0.  0.
         24    2    3    3    0    0  0.77405254905E+02 -0.90470557843E+02  0.27630003875E+03  0.31158062465E+03  0.81020237693E+02 0.  0.
         -6    2    1    2    0  502 -0.92393099985E+02  0.55264345746E+02  0.10494318924E+04  0.10685254390E+04  0.16984900395E+03 0.  0.
        -24    2    5    5    0    0 -0.12904571298E+02  0.41266207887E+02  0.27535406845E+03  0.29023696960E+03  0.80920996257E+02 0.  0.
          5    1    3    3  501    0  0.14987845080E+02  0.35206212097E+02  0.26376656475E+03  0.26656894709E+03  0.47000000000E+01 0. -1.
        -11    1    4    4    0    0  0.58625398312E+02 -0.10482623828E+03  0.22340489022E+03  0.25364388921E+03  0.00000000000E+00 0.  1.
         12    1    4    4    0    0  0.18779856593E+02  0.14355680439E+02  0.52895148530E+02  0.57936735432E+02  0.00000000000E+00 0. -1.
         -5    1    5    5    0  502 -0.79488528687E+02  0.13998137858E+02  0.77407782395E+03  0.77828846939E+03  0.47000000000E+01 0.  1.
         11    1    6    6    0    0 -0.32308252743E+02 -0.12254842737E+02  0.11485485160E+03  0.11994015716E+03  0.00000000000E+00 0. -1.
        -12    1    6    6    0    0  0.19403681445E+02  0.53521050625E+02  0.16049921686E+03  0.17029681243E+03  0.00000000000E+00 0.  1.
</event>
<event>
12    1  0.8728348E-002  0.2829041E+03  0.7818608E-02  0.1094443E+00
         21   -1    0    0  501  502  0.00000000000E+00  0.00000000000E+00  0.88091177456E+02  0.88091177456E+02  0.00000000000E+00 0.  1.
         21   -1    0    0  502  503 -0.00000000000E+00 -0.00000000000E+00 -0.94211458026E+03  0.94211458026E+03  0.00000000000E+00 0. -1.
         -6    2    1    2    0  503  0.19617637190E+03 -0.10653952823E+03 -0.53319020119E+03  0.60245738887E+03  0.16978596758E+03 0.  0.
        -24    2    3    3    0    0  0.21041714679E+03 -0.12417419433E+03 -0.50276572406E+03  0.56422755854E+03  0.76712178478E+02 0.  0.
          6    2    1    2  501    0 -0.19617637190E+03  0.10653952823E+03 -0.32083320162E+03  0.42774836885E+03  0.17377826052E+03 0.  0.
         24    2    5    5    0    0 -0.14187662550E+03  0.78316334515E+02 -0.11751202890E+03  0.21536522358E+03  0.79439772621E+02 0.  0.
          5    1    5    5  501    0 -0.54299746398E+02  0.28223193713E+02 -0.20332117272E+03  0.21238314528E+03  0.47000000000E+01 0. -1.
        -11    1    6    6    0    0 -0.82834679240E+02  0.59866020201E+02 -0.26955570808E+02  0.10569828408E+03  0.00000000000E+00 0.  1.
         12    1    6    6    0    0 -0.59041946263E+02  0.18450314314E+02 -0.90556458092E+02  0.10966693950E+03  0.00000000000E+00 0. -1.
         -5    1    3    3    0  503 -0.14240774891E+02  0.17634666102E+02 -0.30424477130E+02  0.38229830325E+02  0.47000000000E+01 0.  1.
         11    1    4    4    0    0  0.45936667359E+02 -0.13311465334E+01 -0.14065628860E+03  0.14797344654E+03  0.00000000000E+00 0. -1.
        -12    1    4    4    0    0  0.16448047943E+03 -0.12284304780E+03 -0.36210943546E+03  0.41625411200E+03  0.00000000000E+00 0.  1.
</event>
<event>
12    1  0.8728348E-002  0.2084191E+03  0.7818608E-02  0.1142970E+00
         21   -1    0    0  503  502  0.00000000000E+00  0.00000000000E+00  0.73561427653E+03  0.73561427653E+03  0.00000000000E+00 0. -1.
         21   -1    0    0  501  503 -0.00000000000E+00 -0.00000000000E+00 -0.58879784204E+02  0.58879784204E+02  0.00000000000E+00 0. -1.
          6    2    1    2  501    0 -0.61294092688E+02  0.99009702675E+02  0.34760463679E+03  0.40492379601E+03  0.17197211994E+03 0.  0.
         24    2    3    3    0    0 -0.87503615366E+02  0.24196299128E+02  0.26205998161E+03  0.28820206514E+03  0.78375077623E+02 0.  0.
         -6    2    1    2    0  502  0.61294092688E+02 -0.99009702675E+02  0.32912985553E+03  0.38957026472E+03  0.17285439632E+03 0.  0.
        -24    2    5    5    0    0  0.83442738263E+02 -0.14240827011E+02  0.16830697269E+03  0.20636978866E+03  0.84236339501E+02 0.  0.
          5    1    3    3  501    0  0.26209522679E+02  0.74813403547E+02  0.85544655176E+02  0.11672173088E+03  0.47000000000E+01 0. -1.
        -11    1    4    4    0    0 -0.38831763500E+02 -0.18436643563E+02  0.47336967063E+02  0.63942193684E+02  0.00000000000E+00 0.  1.
         12    1    4    4    0    0 -0.48671851866E+02  0.42632942691E+02  0.21472301455E+03  0.22425987145E+03  0.00000000000E+00 0. -1.
         -5    1    5    5    0  502 -0.22148645576E+02 -0.84768875664E+02  0.16082288285E+03  0.18320047606E+03  0.47000000000E+01 0.  1.
         13    1    6    6    0    0 -0.10123879199E+02 -0.24436526188E+01  0.67607853065E+02  0.68405308012E+02  0.00000000000E+00 0. -1.
        -14    1    6    6    0    0  0.93566617462E+02 -0.11797174392E+02  0.10069911962E+03  0.13796448064E+03  0.00000000000E+00 0.  1.
</event>
<event>
12    1  0.8728348E-002  0.2733416E+03  0.7818608E-02  0.1099782E+00
         21   -1    0    0  501  502  0.00000000000E+00  0.00000000000E+00  0.55041303956E+02  0.55041303956E+02  0.00000000000E+00 0.  1.
         21   -1    0    0  502  503 -0.00000000000E+00 -0.00000000000E+00 -0.16570181656E+04  0.16570181656E+04  0.00000000000E+00 0. -1.
         -6    2    1    2    0  503 -0.19923723318E+02  0.21160626733E+03 -0.11699895158E+04  0.12008562634E+04  0.16735032478E+03 0.  0.
        -24    2    3    3    0    0 -0.53592515080E+02  0.19942053612E+03 -0.83131575863E+03  0.86026254156E+03  0.79530132360E+02 0.  0.
          6    2    1    2  501    0  0.19923723318E+02 -0.21160626733E+03 -0.43198734589E+03  0.51120320617E+03  0.17187636217E+03 0.  0.
         24    2    5    5    0    0  0.36188013120E+02 -0.18530208673E+03 -0.23514582699E+03  0.31189161444E+03  0.79601404284E+02 0.  0.
          5    1    5    5  501    0 -0.16264289802E+02 -0.26304180596E+02 -0.19684151889E+03  0.19931159173E+03  0.47000000000E+01 0. -1.
        -13    1    6    6    0    0  0.17948139501E+02  0.21028376602E+00 -0.27610431365E+02  0.32931988263E+02  0.00000000000E+00 0.  1.
         14    1    6    6    0    0  0.18239873619E+02 -0.18551237050E+03 -0.20753539563E+03  0.27895962618E+03  0.00000000000E+00 0. -1.
         -5    1    3    3    0  503  0.33668791762E+02  0.12185731203E+02 -0.33867375713E+03  0.34059372183E+03  0.47000000000E+01 0.  1.
         11    1    4    4    0    0  0.20900062560E+02  0.53693042023E+02 -0.21505796584E+03  0.22264250279E+03  0.00000000000E+00 0. -1.
        -12    1    4    4    0    0 -0.74492577640E+02  0.14572749410E+03 -0.61625779279E+03  0.63762003877E+03  0.00000000000E+00 0.  1.
</event>
<event>
12    1  0.8728348E-002  0.1741533E+03  0.7818608E-02  0.1174279E+00
         21   -1    0    0  501  502  0.00000000000E+00  0.00000000000E+00  0.15877408580E+03  0.15877408580E+03  0.00000000000E+00 0. -1.
         21   -1    0    0  502  503 -0.00000000000E+00 -0.00000000000E+00 -0.20388857917E+03  0.20388857917E+03  0.00000000000E+00 0. -1.
         -6    2    1    2    0  503 -0.21759753838E+02 -0.14854150201E+02 -0.72944493070E+02  0.18629973654E+03  0.16938878387E+03 0.  0.
        -24    2    3    3    0    0  0.43811809444E+02  0.21569895913E+02 -0.53178101339E+02  0.10858782440E+03  0.81109001286E+02 0.  0.
          6    2    1    2  501    0  0.21759753838E+02  0.14854150201E+02  0.27829999694E+02  0.17636292843E+03  0.17214889188E+03 0.  0.
         24    2    5    5    0    0  0.58459861756E+02  0.23378344936E+02 -0.30958418039E+02  0.10637915976E+03  0.79962488301E+02 0.  0.
          5    1    5    5  501    0 -0.36700107918E+02 -0.85241947350E+01  0.58788417733E+02  0.69983768665E+02  0.47000000000E+01 0. -1.
        -11    1    6    6    0    0  0.62039775205E+02 -0.13978925434E+02 -0.25225356938E+02  0.68415368862E+02  0.00000000000E+00 0.  1.
         12    1    6    6    0    0 -0.35799134489E+01  0.37357270370E+02 -0.57330611009E+01  0.37963790898E+02  0.00000000000E+00 0. -1.
         -5    1    3    3    0  503 -0.65571563282E+02 -0.36424046114E+02 -0.19766391731E+02  0.77711912142E+02  0.47000000000E+01 0.  1.
         13    1    4    4    0    0  0.31963599702E+01  0.29866921186E+02 -0.59502113158E+02  0.66653965887E+02  0.00000000000E+00 0. -1.
        -14    1    4    4    0    0  0.40615449474E+02 -0.82970252722E+01  0.63240118194E+01  0.41933858514E+02  0.00000000000E+00 0.  1.
</event>
<event>
12    1  0.8728348E-002  0.2324258E+03  0.7818608E-02  0.1125025E+00
         21   -1    0    0  501  502  0.00000000000E+00  0.00000000000E+00  0.14374649914E+04  0.14374649914E+04  0.00000000000E+00 0. -1.
         21   -1    0    0  502  503 -0.00000000000E+00 -0.00000000000E+00 -0.37530816474E+02  0.37530816474E+02  0.00000000000E+00 0.  1.
         -6    2    1    2    0  503 -0.14455703207E+03 -0.58317428515E+02  0.68008035251E+03  0.71854933121E+03  0.17177368109E+03 0.  0.
        -24    2    3    3    0    0 -0.12706103789E+03 -0.65520675709E+02  0.67961675889E+03  0.69904801070E+03  0.79697653710E+02 0.  0.
          6    2    1    2  501    0  0.14455703207E+03  0.58317428515E+02  0.71985382246E+03  0.75644647671E+03  0.17240675285E+03 0.  0.
         24    2    5    5    0    0  0.33162194100E+02  0.72100562189E+02  0.41346769547E+03  0.43011331334E+03  0.87998323472E+02 0.  0.
          5    1    5    5  501    0  0.11139483797E+03 -0.13783133674E+02  0.30638612699E+03  0.32633316336E+03  0.47000000000E+01 0. -1.
        -13    1    6    6    0    0  0.43550410358E+02  0.45333572855E+02  0.12208137145E+03  0.13731581237E+03  0.00000000000E+00 0.  1.
         14    1    6    6    0    0 -0.10388216258E+02  0.26766989334E+02  0.29138632401E+03  0.29279750097E+03  0.00000000000E+00 0. -1.
         -5    1    3    3    0  503 -0.17495994180E+02  0.72032471934E+01  0.46359362368E+00  0.19501320508E+02  0.47000000000E+01 0.  1.
         13    1    4    4    0    0 -0.15827252209E+02 -0.46555091997E+02  0.25475523162E+03  0.25945733087E+03  0.00000000000E+00 0. -1.
        -14    1    4    4    0    0 -0.11123378568E+03 -0.18965583712E+02  0.42486152726E+03  0.43959067983E+03  0.00000000000E+00 0.  1.
</event>
<event>
12    1  0.8728348E-002  0.2172739E+03  0.7818608E-02  0.1136111E+00
         21   -1    0    0  501  502  0.00000000000E+00  0.00000000000E+00  0.10882697609E+03  0.10882697609E+03  0.00000000000E+00 0. -1.
         21   -1    0    0  502  503 -0.00000000000E+00 -0.00000000000E+00 -0.47024258755E+03  0.47024258755E+03  0.00000000000E+00 0.  1.
         -6    2    1    2    0  503 -0.12732914056E+03  0.36043169326E+02 -0.26374012459E+03  0.34171159353E+03  0.17232567929E+03 0.  0.
        -24    2    3    3    0    0 -0.98444555440E+02 -0.25171341005E+02 -0.96451684227E+02  0.16118722450E+03  0.79708638484E+02 0.  0.
          6    2    1    2  501    0  0.12732914056E+03 -0.36043169326E+02 -0.97675486878E+02  0.23735797011E+03  0.17113294583E+03 0.  0.
         24    2    5    5    0    0  0.14676751447E+03 -0.66863141084E+02 -0.71719043077E+02  0.19237410618E+03  0.76503546655E+02 0.  0.
          5    1    5    5  501    0 -0.19438373906E+02  0.30819971758E+02 -0.25956443801E+02  0.44983863930E+02  0.47000000000E+01 0. -1.
        -13    1    6    6    0    0  0.57498333305E+02 -0.13010022188E+02 -0.65222936896E+02  0.87916724845E+02  0.00000000000E+00 0.  1.
         14    1    6    6    0    0  0.89269181161E+02 -0.53853118896E+02 -0.64961061811E+01  0.10445738134E+03  0.00000000000E+00 0. -1.
         -5    1    3    3    0  503 -0.28884585121E+02  0.61214510331E+02 -0.16728844036E+03  0.18052436902E+03  0.47000000000E+01 0.  1.
         11    1    4    4    0    0 -0.27619702540E+01 -0.17511961219E+02  0.78937744803E+01  0.19406414943E+02  0.00000000000E+00 0. -1.
        -12    1    4    4    0    0 -0.95682585186E+02 -0.76593797869E+01 -0.10434545871E+03  0.14178080956E+03  0.00000000000E+00 0.  1.
</event>
<event>
12    1  0.8728348E-002  0.1860297E+03  0.7818608E-02  0.1162332E+00
         21   -1    0    0  503  502  0.00000000000E+00  0.00000000000E+00  0.67674516453E+02  0.67674516453E+02  0.00000000000E+00 0. -1.
         21   -1    0    0  501  503 -0.00000000000E+00 -0.00000000000E+00 -0.94943961194E+03  0.94943961194E+03  0.00000000000E+00 0. -1.
          6    2    1    2  501    0 -0.39114495063E+02  0.56958834813E+02 -0.78678259451E+03  0.80823924916E+03  0.17160880009E+03 0.  0.
         24    2    3    3    0    0 -0.56411434488E+02  0.93193902061E+02 -0.48692759284E+03  0.50567144479E+03  0.82083957547E+02 0.  0.
         -6    2    1    2    0  502  0.39114495063E+02 -0.56958834813E+02 -0.94982500973E+02  0.20887487923E+03  0.17272170418E+03 0.  0.
        -24    2    5    5    0    0  0.47618195629E+02 -0.44646095565E+02 -0.13279708966E+03  0.16793651595E+03  0.79415615355E+02 0.  0.
          5    1    3    3  501    0  0.17296939425E+02 -0.36235067248E+02 -0.29985500167E+03  0.30256780437E+03  0.47000000000E+01 0. -1.
        -13    1    4    4    0    0  0.78402493296E+01 -0.64394103407E+01 -0.11171726276E+03  0.11217701331E+03  0.00000000000E+00 0.  1.
         14    1    4    4    0    0 -0.64251683817E+02  0.99633312401E+02 -0.37521033008E+03  0.39349443149E+03  0.00000000000E+00 0. -1.
         -5    1    5    5    0  502 -0.85037005661E+01 -0.12312739247E+02  0.37814588686E+02  0.40938363286E+02  0.47000000000E+01 0.  1.
         13    1    6    6    0    0  0.34623453236E+02 -0.65877304058E+02 -0.78310013009E+02  0.10803268413E+03  0.00000000000E+00 0. -1.
        -14    1    6    6    0    0  0.12994742393E+02  0.21231208492E+02 -0.54487076650E+02  0.59903831812E+02  0.00000000000E+00 0.  1.
</event>
<event>
12    1  0.8728348E-002  0.2314415E+03  0.7818608E-02  0.1126058E+00
         21   -1    0    0  501  502  0.00000000000E+00  0.00000000000E+00  0.31824194745E+02  0.31824194745E+02  0.00000000000E+00 0.  1.
         21   -1    0    0  502  503 -0.00000000000E+00 -0.00000000000E+00 -0.16716767513E+04  0.16716767513E+04  0.00000000000E+00 0.  1.
         -6    2    1    2    0  503  0.40940913998E+02  0.14989030394E+03 -0.76359287984E+03  0.79719185239E+03  0.16821861286E+03 0.  0.
        -24    2    3    3    0    0 -0.35271271196E+02  0.54992997631E+02 -0.30679676352E+03  0.32443549039E+03  0.82860370271E+02 0.  0.
          6    2    1    2  501    0 -0.40940913998E+02 -0.14989030394E+03 -0.87625967670E+03  0.90630909364E+03  0.17152810429E+03 0.  0.
         24    2    5    5    0    0  0.28588173073E+02 -0.64576147032E+02 -0.27260093794E+03  0.29268155010E+03  0.79773780139E+02 0.  0.
          5    1    5    5  501    0 -0.69529087071E+02 -0.85314156907E+02 -0.60365873876E+03  0.61362754354E+03  0.47000000000E+01 0. -1.
        -11    1    6    6    0    0 -0.16969309456E+02 -0.26122630204E+02 -0.31430638298E+02  0.44251941155E+02  0.00000000000E+00 0.  1.
         12    1    6    6    0    0  0.45557482529E+02 -0.38453516828E+02 -0.24117029964E+03  0.24842960895E+03  0.00000000000E+00 0. -1.
         -5    1    3    3    0  503  0.76212185194E+02  0.94897306307E+02 -0.45679611633E+03  0.47275636200E+03  0.47000000000E+01 0.  1.
         13    1    4    4    0    0  0.23252334633E+02  0.47743378895E+01 -0.12037399236E+03  0.12269214892E+03  0.00000000000E+00 0. -1.
        -14    1    4    4    0    0 -0.58523605829E+02  0.50218659742E+02 -0.18642277115E+03  0.20174334148E+03  0.00000000000E+00 0.  1.
</event>
<event>
12    1  0.8728348E-002  0.1855058E+03  0.7818608E-02  0.1162970E+00
         21   -1    0    0  501  502  0.00000000000E+00  0.00000000000E+00  0.95097789982E+02  0.95097789982E+02  0.00000000000E+00 0. -1.
         21   -1    0    0  502  503 -0.00000000000E+00 -0.00000000000E+00 -0.43760583299E+03  0.43760583299E+03  0.00000000000E+00 0. -1.
         -6    2    1    2    0  503 -0.55649969932E+02 -0.26480859256E+02 -0.28505992854E+03  0.34010523917E+03  0.17496929957E+03 0.  0.
        -24    2    3    3    0    0 -0.56664776141E+02 -0.79787523180E+02 -0.17687129003E+03  0.21940104806E+03  0.85301939837E+02 0.  0.
          6    2    1    2  501    0  0.55649969932E+02  0.26480859256E+02 -0.57448114469E+02  0.19259838380E+03  0.17319265726E+03 0.  0.
         24    2    5    5    0    0  0.23927046120E+02 -0.49353583345E+02 -0.52959886863E+02  0.11013966221E+03  0.79484060354E+02 0.  0.
          5    1    5    5  501    0  0.31722923812E+02  0.75834442601E+02 -0.44882276067E+01  0.82458721593E+02  0.47000000000E+01 0. -1.
        -13    1    6    6    0    0 -0.12135647287E+02 -0.47551658050E+02 -0.39080689193E+01  0.49231160062E+02  0.00000000000E+00 0.  1.
         14    1    6    6    0    0  0.36062693406E+02 -0.18019252953E+01 -0.49051817943E+02  0.60908502149E+02  0.00000000000E+00 0. -1.
         -5    1    3    3    0  503  0.10148062086E+01  0.53306663924E+02 -0.10818863851E+03  0.12070419112E+03  0.47000000000E+01 0.  1.
         13    1    4    4    0    0 -0.60386646454E+02 -0.12747782422E+02 -0.98071843905E+02  0.11587553492E+03  0.00000000000E+00 0. -1.
        -14    1    4    4    0    0  0.37218703131E+01 -0.67039740758E+02 -0.78799446127E+02  0.10352551313E+03  0.00000000000E+00 0.  1.
</event>
<event>
12    1  0.8728348E-002  0.2104434E+03  0.7818608E-02  0.1141544E+00
         21   -1    0    0  501  502  0.00000000000E+00  0.00000000000E+00  0.96100931725E+02  0.96100931725E+02  0.00000000000E+00 0.  1.
         21   -1    0    0  502  503 -0.00000000000E+00 -0.00000000000E+00 -0.46432725663E+03  0.46432725663E+03  0.00000000000E+00 0. -1.
         -6    2    1    2    0  503  0.95889546171E+02 -0.73916413746E+02 -0.21809618065E+03  0.30192194940E+03  0.17009549738E+03 0.  0.
        -24    2    3    3    0    0  0.50131138046E+02 -0.95046729028E+02 -0.81734236933E+02  0.15646751725E+03  0.79085945443E+02 0.  0.
          6    2    1    2  501    0 -0.95889546171E+02  0.73916413746E+02 -0.15013014426E+03  0.25850623896E+03  0.17212778416E+03 0.  0.
         24    2    5    5    0    0 -0.65577587398E+02  0.52717825672E+01 -0.15116300190E+03  0.18331277495E+03  0.80156775494E+02 0.  0.
          5    1    5    5  501    0 -0.30311958773E+02  0.68644631179E+02  0.10328576376E+01  0.75193464006E+02  0.47000000000E+01 0. -1.
        -11    1    6    6    0    0 -0.82850801774E+01 -0.79562200260E+01  0.77591195740E+01  0.13861743296E+02  0.00000000000E+00 0.  1.
         12    1    6    6    0    0 -0.57292507221E+02  0.13228002593E+02 -0.15892212147E+03  0.16945103166E+03  0.00000000000E+00 0. -1.
         -5    1    3    3    0  503  0.45758408125E+02  0.21130315282E+02 -0.13636194371E+03  0.14545443215E+03  0.47000000000E+01 0.  1.
         11    1    4    4    0    0 -0.11174683765E+02 -0.35814012441E+02 -0.56029551867E+02  0.67430169263E+02  0.00000000000E+00 0. -1.
        -12    1    4    4    0    0  0.61305821811E+02 -0.59232716587E+02 -0.25704685066E+02  0.89037347987E+02  0.00000000000E+00 0.  1.
</event>
<event>
12    1  0.8728348E-002  0.1888228E+03  0.7818608E-02  0.1159696E+00
         21   -1    0    0  503  502  0.00000000000E+00  0.00000000000E+00  0.49192952333E+02  0.49192952333E+02  0.00000000000E+00 0. -1.
         21   -1    0    0  501  503 -0.00000000000E+00 -0.00000000000E+00 -0.83597548140E+03  0.83597548140E+03  0.00000000000E+00 0. -1.
          6    2    1    2  501    0 -0.69433817928E+02  0.33519845003E+02 -0.55751932161E+03  0.58862707642E+03  0.17236416694E+03 0.  0.
         24    2    3    3    0    0 -0.32531795567E+01  0.33932471333E+02 -0.12819803047E+03  0.15420918063E+03  0.78636763577E+02 0.  0.
         -6    2    1    2    0  502  0.69433817928E+02 -0.33519845003E+02 -0.22926320745E+03  0.29654135731E+03  0.17155326643E+03 0.  0.
        -24    2    5    5    0    0 -0.22493542699E+02 -0.33435274960E+02 -0.75884094969E+02  0.11766181983E+03  0.80386758244E+02 0.  0.
          5    1    3    3  501    0 -0.66180638371E+02 -0.41262633053E+00 -0.42932129114E+03  0.43441789579E+03  0.47000000000E+01 0. -1.
        -11    1    4    4    0    0  0.37395600259E+02  0.16558478010E+02 -0.70769756585E+02  0.81737216492E+02  0.00000000000E+00 0.  1.
         12    1    4    4    0    0 -0.40648779816E+02  0.17373993324E+02 -0.57428273883E+02  0.72471964136E+02  0.00000000000E+00 0. -1.
         -5    1    5    5    0  502  0.91927360627E+02 -0.84570042736E-01 -0.15337911248E+03  0.17887953748E+03  0.47000000000E+01 0.  1.
         13    1    6    6    0    0  0.44644269780E+01 -0.53941154277E+02 -0.34507601149E+02  0.64189981852E+02  0.00000000000E+00 0. -1.
        -14    1    6    6    0    0 -0.26957969677E+02  0.20505879317E+02 -0.41376493819E+02  0.53471837975E+02  0.00000000000E+00 0.  1.
</event>
<event>
12    1  0.8728348E-002  0.1802408E+03  0.7818608E-02  0.1167772E+00
         21   -1    0    0  503  502  0.00000000000E+00  0.00000000000E+00  0.15507166475E+03  0.15507166475E+03  0.00000000000E+00 0.  1.
         21   -1    0    0  501  503 -0.00000000000E+00 -0.00000000000E+00 -0.98540444427E+03  0.98540444427E+03  0.00000000000E+00 0.  1.
          6    2    1    2  501    0  0.11368420705E+02  0.47769599113E+02 -0.92168861677E+03  0.93914676153E+03  0.17342306026E+03 0.  0.
         24    2    3    3    0    0 -0.49148537979E+02  0.36903418247E+02 -0.73575141282E+03  0.74325110056E+03  0.85525528104E+02 0.  0.
         -6    2    1    2    0  502 -0.11368420705E+02 -0.47769599113E+02  0.91355837248E+02  0.20132934749E+03  0.17255851637E+03 0.  0.
        -24    2    5    5    0    0  0.19668801749E+02 -0.42164338891E+02 -0.89806511763E+01  0.96047682283E+02  0.83545268807E+02 0.  0.
          5    1    3    3  501    0  0.60516958684E+02  0.10866180866E+02 -0.18593720395E+03  0.19589566097E+03  0.47000000000E+01 0. -1.
        -13    1    4    4    0    0 -0.43558193417E+02 -0.11316401850E+02 -0.52752750500E+03  0.52944371344E+03  0.00000000000E+00 0.  1.
         14    1    4    4    0    0 -0.55903445625E+01  0.48219820096E+02 -0.20822390781E+03  0.21380738712E+03  0.00000000000E+00 0. -1.
         -5    1    5    5    0  502 -0.31037222454E+02 -0.56052602222E+01  0.10033648842E+03  0.10528166521E+03  0.47000000000E+01 0.  1.
         11    1    6    6    0    0 -0.20105319054E+02 -0.45550201130E+02  0.11619175304E+02  0.51127780237E+02  0.00000000000E+00 0. -1.
        -12    1    6    6    0    0  0.39774120803E+02  0.33858622388E+01 -0.20599826480E+02  0.44919902046E+02  0.00000000000E+00 0.  1.
</event>
<event>
12    1  0.8728348E-002  0.2041064E+03  0.7818608E-02  0.1147445E+00
         21   -1    0    0  501  502  0.00000000000E+00  0.00000000000E+00  0.12966833217E+02  0.12966833217E+02  0.00000000000E+00 0.  1.
         21   -1    0    0  502  503 -0.00000000000E+00 -0.00000000000E+00 -0.31339230498E+04  0.31339230498E+04  0.00000000000E+00 0.  1.
         -6    2    1    2    0  503 -0.58433758915E+02  0.92289251445E+02 -0.16476732483E+04  0.16602670079E+04  0.17241691930E+03 0.  0.
        -24    2    3    3    0    0 -0.30934162612E+02  0.37915633525E+02 -0.14578326818E+04  0.14608321844E+04  0.79749765548E+02 0.  0.
          6    2    1    2  501    0  0.58433758915E+02 -0.92289251445E+02 -0.14732829683E+04  0.14866228752E+04  0.16599113904E+03 0.  0.
         24    2    5    5    0    0  0.12916110505E+02 -0.32206362168E+02 -0.34624144598E+03  0.35705371267E+03  0.80000869600E+02 0.  0.
          5    1    5    5  501    0  0.45517648410E+02 -0.60082889277E+02 -0.11270415223E+04  0.11295691625E+04  0.47000000000E+01 0. -1.
        -13    1    6    6    0    0  0.15897510748E+02 -0.56972413154E+02 -0.28206015598E+03  0.28819527807E+03  0.00000000000E+00 0.  1.
         14    1    6    6    0    0 -0.29814002430E+01  0.24766050986E+02 -0.64181290001E+02  0.68858434596E+02  0.00000000000E+00 0. -1.
         -5    1    3    3    0  503 -0.27499596304E+02  0.54373617920E+02 -0.18984056649E+03  0.19943482346E+03  0.47000000000E+01 0.  1.
         13    1    4    4    0    0 -0.15594061805E+02 -0.16680620938E+02 -0.86305636563E+03  0.86335838916E+03  0.00000000000E+00 0. -1.
        -14    1    4    4    0    0 -0.15340100806E+02  0.54596254464E+02 -0.59477631621E+03  0.59747379526E+03  0.00000000000E+00 0.  1.
</event>
<event>
12    1  0.8728348E-002  0.2261957E+03  0.7818608E-02  0.1131027E+00
         21   -1    0    0  501  502  0.00000000000E+00  0.00000000000E+00  0.63970074805E+03  0.63970074805E+03  0.00000000000E+00 0. -1.
         21   -1    0    0  502  503 -0.00000000000E+00 -0.00000000000E+00 -0.95424460358E+02  0.95424460358E+02  0.00000000000E+00 0. -1.
         -6    2    1    2    0  503  0.10629052853E+03  0.75779973310E+02  0.11421993235E+03  0.25339830237E+03  0.18472743675E+03 0.  0.
        -24    2    3    3    0    0  0.63923303920E+02 -0.20150536590E+02  0.10437663984E+03  0.14796289627E+03  0.80661656446E+02 0.  0.
          6    2    1    2  501    0 -0.10629052853E+03 -0.75779973310E+02  0.43005635534E+03  0.48172690604E+03  0.17341298228E+03 0.  0.
         24    2    5    5    0    0 -0.12740080794E+03 -0.95001156021E+02  0.30482578688E+03  0.35319720893E+03  0.81076029378E+02 0.  0.
          5    1    5    5  501    0  0.21110279414E+02  0.19221182711E+02  0.12523056847E+03  0.12852969712E+03  0.47000000000E+01 0. -1.
        -13    1    6    6    0    0 -0.98549571531E+02 -0.46816489699E+02  0.13078299329E+03  0.17031733057E+03  0.00000000000E+00 0.  1.
         14    1    6    6    0    0 -0.28851236410E+02 -0.48184666322E+02  0.17404279358E+03  0.18287987836E+03  0.00000000000E+00 0. -1.
         -5    1    3    3    0  503  0.42367224608E+02  0.95930509900E+02  0.98432925112E+01  0.10543540609E+03  0.47000000000E+01 0.  1.
         11    1    4    4    0    0  0.80302613516E+02 -0.30041697661E+02  0.85654621211E+02  0.12119293490E+03  0.00000000000E+00 0. -1.
        -12    1    4    4    0    0 -0.16379309596E+02  0.98911610710E+01  0.18722018627E+02  0.26769961368E+02  0.00000000000E+00 0.  1.
</event>
<event>
12    1  0.8728348E-002  0.1773576E+03  0.7818608E-02  0.1171954E+00
         21   -1    0    0  503  502  0.00000000000E+00  0.00000000000E+00  0.10597077671E+03  0.10597077671E+03  0.00000000000E+00 0.  1.
         21   -1    0    0  501  503 -0.00000000000E+00 -0.00000000000E+00 -0.45800175859E+03  0.45800175859E+03  0.00000000000E+00 0.  1.
          6    2    1    2  501    0 -0.22367910986E+02  0.17578489388E+02 -0.34659016784E+03  0.38653150506E+03  0.16873806099E+03 0.  0.
         24    2    3    3    0    0 -0.36395256117E+02  0.72594954180E+02 -0.23656765015E+03  0.26263387712E+03  0.80110288188E+02 0.  0.
         -6    2    1    2    0  502  0.22367910986E+02 -0.17578489388E+02 -0.54408140388E+01  0.17744103024E+03  0.17506110368E+03 0.  0.
        -24    2    5    5    0    0  0.52629608040E+02  0.25807046103E+02 -0.52465805924E+02  0.10650785845E+03  0.71801001727E+02 0.  0.
          5    1    3    3  501    0  0.14027345131E+02 -0.55016464793E+02 -0.11002251769E+03  0.12389762794E+03  0.47000000000E+01 0. -1.
        -13    1    4    4    0    0 -0.11297334694E+02 -0.17204432976E+02 -0.49786616702E+02  0.53873272481E+02  0.00000000000E+00 0.  1.
         14    1    4    4    0    0 -0.25097921423E+02  0.89799387156E+02 -0.18678103345E+03  0.20876060464E+03  0.00000000000E+00 0. -1.
         -5    1    5    5    0  502 -0.30261697054E+02 -0.43385535491E+02  0.47024991885E+02  0.70933171790E+02  0.47000000000E+01 0.  1.
         13    1    6    6    0    0  0.66462320192E+02  0.28280921756E+02 -0.26413185317E+02  0.76907131654E+02  0.00000000000E+00 0. -1.
        -14    1    6    6    0    0 -0.13832712153E+02 -0.24738756530E+01 -0.26052620606E+02  0.29600726793E+02  0.00000000000E+00 0.  1.
</event>
<event>
12    1  0.8728348E-002  0.2431192E+03  0.7818608E-02  0.1118080E+00
         21   -1    0    0  503  502  0.00000000000E+00  0.00000000000E+00  0.65775167512E+03  0.65775167512E+03  0.00000000000E+00 0.  1.
         21   -1    0    0  501  503 -0.00000000000E+00 -0.00000000000E+00 -0.90105391449E+02  0.90105391449E+02  0.00000000000E+00 0.  1.
          6    2    1    2  501    0 -0.46919213290E+01  0.16954488213E+03  0.24519812325E+03  0.34529558901E+03  0.17418221197E+03 0.  0.
         24    2    3    3    0    0  0.48026821737E+01  0.78707789314E+02  0.22555820087E+03  0.25175767436E+03  0.79293396740E+02 0.  0.
         -6    2    1    2    0  502  0.46919213290E+01 -0.16954488213E+03  0.32244816042E+03  0.40256147755E+03  0.17121753961E+03 0.  0.
        -24    2    5    5    0    0  0.35927320959E+02 -0.13949540530E+03  0.13618632085E+03  0.21126541348E+03  0.73052176258E+02 0.  0.
          5    1    3    3  501    0 -0.94946035028E+01  0.90837092814E+02  0.19639922381E+02  0.93537914653E+02  0.47000000000E+01 0. -1.
        -11    1    4    4    0    0 -0.32540708502E+02  0.10926212165E+02  0.64156038672E+02  0.72761783377E+02  0.00000000000E+00 0.  1.
         12    1    4    4    0    0  0.37343390676E+02  0.67781577150E+02  0.16140216219E+03  0.17899589098E+03  0.00000000000E+00 0. -1.
         -5    1    5    5    0  502 -0.31235399630E+02 -0.30049476825E+02  0.18626183957E+03  0.19129606407E+03  0.47000000000E+01 0.  1.
         13    1    6    6    0    0 -0.68508225891E+01 -0.28940917698E+02 -0.12523280752E+01  0.29767075989E+02  0.00000000000E+00 0. -1.
        -14    1    6    6    0    0  0.42778143549E+02 -0.11055448761E+03  0.13743864893E+03  0.18149833750E+03  0.00000000000E+00 0.  1.
</event>
<event>
12    1  0.8728348E-002  0.1793573E+03  0.7818608E-02  0.1168562E+00
         21   -1    0    0  501  502  0.00000000000E+00  0.00000000000E+00  0.52751345288E+03  0.52751345288E+03  0.00000000000E+00 0.  1.
         21   -1    0    0  502  503 -0.00000000000E+00 -0.00000000000E+00 -0.71698992847E+02  0.71698992847E+02  0.00000000000E+00 0.  1.
         -6    2    1    2    0  503 -0.48814016120E+02  0.52278952708E+01  0.34445520566E+03  0.38809657829E+03  0.17192855003E+03 0.  0.
        -24    2    3    3    0    0 -0.91984186438E+02 -0.11957842595E+02  0.18592203535E+03  0.22282749685E+03  0.80504717683E+02 0.  0.
          6    2    1    2  501    0  0.48814016120E+02 -0.52278952708E+01  0.11135925437E+03  0.21111586744E+03  0.17250764299E+03 0.  0.
         24    2    5    5    0    0 -0.34158854166E+02  0.23133732447E+02  0.30669110084E+02  0.91860391608E+02  0.76129759872E+02 0.  0.
          5    1    5    5  501    0  0.82972870285E+02 -0.28361627717E+02  0.80690144289E+02  0.11925547583E+03  0.47000000000E+01 0. -1.
        -11    1    6    6    0    0  0.43352503001E-01  0.45592879454E+02  0.14196584800E+02  0.47752021489E+02  0.00000000000E+00 0.  1.
         12    1    6    6    0    0 -0.34202206669E+02 -0.22459147007E+02  0.16472525284E+02  0.44108370119E+02  0.00000000000E+00 0. -1.
         -5    1    3    3    0  503  0.43170170318E+02  0.17185737866E+02  0.15853317031E+03  0.16526908144E+03  0.47000000000E+01 0.  1.
         11    1    4    4    0    0 -0.51419446084E+02  0.24409979193E+02  0.14154434450E+03  0.15256017822E+03  0.00000000000E+00 0. -1.
        -12    1    4    4    0    0 -0.40564740353E+02 -0.36367821788E+02  0.44377690848E+02  0.70267318624E+02  0.00000000000E+00 0.  1.
</event>
<event>
12    1  0.8728348E-002  0.1848067E+03  0.7818608E-02  0.1163451E+00
         21   -1    0    0  501  502  0.00000000000E+00  0.00000000000E+00  0.75217395378E+03  0.75217395378E+03  0.00000000000E+00 0.  1.
         21   -1    0    0  502  503 -0.00000000000E+00 -0.00000000000E+00 -0.80171032892E+02  0.80171032892E+02  0.00000000000E+00 0.  1.
         -6    2    1    2    0  503 -0.41472268653E+02  0.44252583322E+02  0.61525289156E+02  0.19477903717E+03  0.17457168132E+03 0.  0.
        -24    2    3    3    0    0  0.40473507860E+02  0.17711257503E+02  0.61371133062E+02  0.10851394557E+03  0.77827160619E+02 0.  0.
          6    2    1    2  501    0  0.41472268653E+02 -0.44252583322E+02  0.61047763173E+03  0.63756594950E+03  0.17357753575E+03 0.  0.
         24    2    5    5    0    0  0.13011319572E+02  0.12779314211E+02  0.13455115762E+03  0.15736728049E+03  0.79547731851E+02 0.  0.
          5    1    5    5  501    0  0.28460949081E+02 -0.57031897533E+02  0.47592647411E+03  0.48019866901E+03  0.47000000000E+01 0. -1.
        -11    1    6    6    0    0  0.33479717917E+02 -0.10908839061E+02  0.24364785697E+02  0.42819820919E+02  0.00000000000E+00 0.  1.
         12    1    6    6    0    0 -0.20468398344E+02  0.23688153272E+02  0.11018637192E+03  0.11454745957E+03  0.00000000000E+00 0. -1.
         -5    1    3    3    0  503 -0.81945776513E+02  0.26541325819E+02  0.15415609414E+00  0.86265091600E+02  0.47000000000E+01 0.  1.
         11    1    4    4    0    0  0.75919143826E+00  0.41469895946E+02  0.39693447240E+02  0.57409915478E+02  0.00000000000E+00 0. -1.
        -12    1    4    4    0    0  0.39714316422E+02 -0.23758638443E+02  0.21677685822E+02  0.51104030096E+02  0.00000000000E+00 0.  1.
</event>
<event>
12    1  0.8728348E-002  0.1736870E+03  0.7818608E-02  0.1174115E+00
         21   -1    0    0  503  502  0.00000000000E+00  0.00000000000E+00  0.19942693253E+03  0.19942693253E+03  0.00000000000E+00 0. -1.
         21   -1    0    0  501  503 -0.00000000000E+00 -0.00000000000E+00 -0.16932324110E+03  0.16932324110E+03  0.00000000000E+00 0. -1.
          6    2    1    2  501    0  0.20219303916E+02 -0.10382527409E+02 -0.45479210306E+02  0.17954261082E+03  0.17219341858E+03 0.  0.
         24    2    3    3    0    0  0.64079770251E+02  0.31467820469E+02  0.10189759970E+01  0.10299613177E+03  0.74234251986E+02 0.  0.
         -6    2    1    2    0  502 -0.20219303916E+02  0.10382527409E+02  0.75582901731E+02  0.18920756281E+03  0.17195961637E+03 0.  0.
        -24    2    5    5    0    0 -0.65728876439E+02  0.48075670690E+02  0.40524703465E+02  0.12033767456E+03  0.78786731226E+02 0.  0.
          5    1    3    3  501    0 -0.43860466335E+02 -0.41850347878E+02 -0.46498186303E+02  0.76546479044E+02  0.47000000000E+01 0. -1.
        -13    1    4    4    0    0 -0.12977390010E+02  0.21269266043E+02 -0.33730366785E+01  0.25143024995E+02  0.00000000000E+00 0.  1.
         14    1    4    4    0    0  0.77057160261E+02  0.10198554426E+02  0.43920126755E+01  0.77853106779E+02  0.00000000000E+00 0. -1.
         -5    1    5    5    0  502  0.45509572523E+02 -0.37693143281E+02  0.35058198265E+02  0.68869888248E+02  0.47000000000E+01 0.  1.
         11    1    6    6    0    0 -0.41306509658E+02  0.64235695456E+02  0.47886243391E+02  0.90141802828E+02  0.00000000000E+00 0. -1.
        -12    1    6    6    0    0 -0.24422366781E+02 -0.16160024766E+02 -0.73615399259E+01  0.30195871733E+02  0.00000000000E+00 0.  1.
</event>
<event>
12    1  0.8728348E-002  0.1819326E+03  0.7818608E-02  0.1166565E+00
         21   -1    0    0  501  502  0.00000000000E+00  0.00000000000E+00  0.79992253126E+03  0.79992253126E+03  0.00000000000E+00 0. -1.
         21   -1    0    0  502  503 -0.00000000000E+00 -0.00000000000E+00 -0.55412683198E+02  0.55412683198E+02  0.00000000000E+00 0. -1.
         -6    2    1    2    0  503 -0.40222714190E+01 -0.58840311937E+02  0.15064951558E+03  0.23423171804E+03  0.16938376609E+03 0.  0.
        -24    2    3    3    0    0  0.45128285151E+02 -0.63487319139E+02  0.14142376780E+03  0.18378792447E+03  0.87807273462E+02 0.  0.
          6    2    1    2  501    0  0.40222714190E+01  0.58840311937E+02  0.59386033248E+03  0.62110349642E+03  0.17210780864E+03 0.  0.
         24    2    5    5    0    0 -0.51216263139E+02 -0.43348156449E+01  0.37550897104E+03  0.38713384136E+03  0.78890605008E+02 0.  0.
          5    1    5    5  501    0  0.55238534558E+02  0.63175127582E+02  0.21835136143E+03  0.23396965505E+03  0.47000000000E+01 0. -1.
        -11    1    6    6    0    0 -0.52772968038E+01 -0.25863296893E+02  0.40749499186E+02  0.48551845193E+02  0.00000000000E+00 0.  1.
         12    1    6    6    0    0 -0.45938966336E+02  0.21528481248E+02  0.33475947186E+03  0.33858199617E+03  0.00000000000E+00 0. -1.
         -5    1    3    3    0  503 -0.49150556570E+02  0.46470072021E+01  0.92257477865E+01  0.50443793566E+02  0.47000000000E+01 0.  1.
         13    1    4    4    0    0 -0.14686772329E+02 -0.37109491307E+02  0.17293951216E+02  0.43495935157E+02  0.00000000000E+00 0. -1.
        -14    1    4    4    0    0  0.59815057480E+02 -0.26377827832E+02  0.12412981658E+03  0.14029198932E+03  0.00000000000E+00 0.  1.
</event>
<event>
12    1  0.8728348E-002  0.1820652E+03  0.7818608E-02  0.1166063E+00
         21   -1    0    0  503  502  0.00000000000E+00  0.00000000000E+00  0.16325663879E+03  0.16325663879E+03  0.00000000000E+00 0.  1.
         21   -1    0    0  501  503 -0.00000000000E+00 -0.00000000000E+00 -0.20190981311E+03  0.20190981311E+03  0.00000000000E+00 0.  1.
          6    2    1    2  501    0  0.41220426040E+02 -0.44501778893E+02 -0.20330242889E+02  0.18218153175E+03  0.17057918950E+03 0.  0.
         24    2    3    3    0    0 -0.12503166732E+02 -0.12959661597E+02  0.43163146109E+02  0.93104991463E+02  0.80505901935E+02 0.  0.
         -6    2    1    2    0  502 -0.41220426040E+02  0.44501778893E+02 -0.18322931437E+02  0.18298492014E+03  0.17166309835E+03 0.  0.
        -24    2    5    5    0    0  0.28135841837E+02  0.65730083408E+01 -0.50878185697E+02  0.97364723287E+02  0.77823322510E+02 0.  0.
          5    1    3    3  501    0  0.53723592772E+02 -0.31542117296E+02 -0.63493388998E+02  0.89076540291E+02  0.47000000000E+01 0. -1.
        -11    1    4    4    0    0  0.25045896389E+01  0.91402572171E+01 -0.21306830949E+02  0.23319483621E+02  0.00000000000E+00 0.  1.
         12    1    4    4    0    0 -0.15007756371E+02 -0.22099918814E+02  0.64469977059E+02  0.69785507842E+02  0.00000000000E+00 0. -1.
         -5    1    5    5    0  502 -0.69356267877E+02  0.37928770552E+02  0.32555254259E+02  0.85620196854E+02  0.47000000000E+01 0.  1.
         13    1    6    6    0    0  0.24505335646E+02  0.39593538218E+02 -0.16094663004E+02  0.49266600460E+02  0.00000000000E+00 0. -1.
        -14    1    6    6    0    0  0.36305061918E+01 -0.33020529877E+02 -0.34783522693E+02  0.48098122827E+02  0.00000000000E+00 0.  1.
</event>
<event>
12    1  0.8728348E-002  0.1854115E+03  0.7818608E-02  0.1162802E+00
         21   -1    0    0  503  502  0.00000000000E+00  0.00000000000E+00  0.55069744267E+02  0.55069744267E+02  0.00000000000E+00 0.  1.
         21   -1    0    0  501  503 -0.00000000000E+00 -0.00000000000E+00 -0.83472371883E+03  0.83472371883E+03  0.00000000000E+00 0.  1.
          6    2    1    2  501    0 -0.28604498367E+02 -0.62433638665E+02 -0.61472550236E+03  0.64207854178E+03  0.17222437110E+03 0.  0.
         24    2    3    3    0    0 -0.39924765152E+02 -0.10624364697E+03 -0.42928332265E+03  0.45113782511E+03  0.79746264776E+02 0.  0.
         -6    2    1    2    0  502  0.28604498367E+02  0.62433638665E+02 -0.16492847220E+03  0.24771492132E+03  0.17159575967E+03 0.  0.
        -24    2    5    5    0    0 -0.43146035496E+02  0.54076140334E+01 -0.84065192609E+02  0.12539948246E+03  0.82263302421E+02 0.  0.
          5    1    3    3  501    0  0.11320266785E+02  0.43810008304E+02 -0.18544217970E+03  0.19094071667E+03  0.47000000000E+01 0. -1.
        -11    1    4    4    0    0 -0.20033894151E+02 -0.65264625877E+02 -0.11630223496E+03  0.13485932731E+03  0.00000000000E+00 0.  1.
         12    1    4    4    0    0 -0.19890871001E+02 -0.40979021091E+02 -0.31298108770E+03  0.31627849781E+03  0.00000000000E+00 0. -1.
         -5    1    5    5    0  502  0.71750533863E+02  0.57026024631E+02 -0.80863279595E+02  0.12231543885E+03  0.47000000000E+01 0.  1.
         11    1    6    6    0    0 -0.36645538858E+02 -0.62818821489E+01 -0.98761311327E+02  0.10552797817E+03  0.00000000000E+00 0. -1.
        -12    1    6    6    0    0 -0.65004966377E+01  0.11689496182E+02  0.14696118718E+02  0.19871504294E+02  0.00000000000E+00 0.  1.
</event>
<event>
12    1  0.8728348E-002  0.1761264E+03  0.7818608E-02  0.1171863E+00
         21   -1    0    0  503  502  0.00000000000E+00  0.00000000000E+00  0.10945401078E+03  0.10945401078E+03  0.00000000000E+00 0.  1.
         21   -1    0    0  501  503 -0.00000000000E+00 -0.00000000000E+00 -0.28383372450E+03  0.28383372450E+03  0.00000000000E+00 0.  1.
          6    2    1    2  501    0  0.11484459471E+02 -0.33114384739E+02 -0.10427771264E+03  0.20468108905E+03  0.17260374149E+03 0.  0.
         24    2    3    3    0    0 -0.10133370169E+02 -0.85857578656E+02 -0.66336210908E+02  0.13604565639E+03  0.81447644174E+02 0.  0.
         -6    2    1    2    0  502 -0.11484459471E+02  0.33114384739E+02 -0.70102001092E+02  0.18860664623E+03  0.17155092876E+03 0.  0.
        -24    2    5    5    0    0 -0.38347788568E+02 -0.28786911857E+02 -0.77453954357E+02  0.12056584827E+03  0.78979551406E+02 0.  0.
          5    1    3    3  501    0  0.21617829641E+02  0.52743193918E+02 -0.37941501728E+02  0.68635432660E+02  0.47000000000E+01 0. -1.
        -13    1    4    4    0    0 -0.16120346825E+02 -0.76067249296E+02 -0.84328182886E+02  0.11470542457E+03  0.00000000000E+00 0.  1.
         14    1    4    4    0    0  0.59869766562E+01 -0.97903293603E+01  0.17991971978E+02  0.21340231820E+02  0.00000000000E+00 0. -1.
         -5    1    5    5    0  502  0.26863329096E+02  0.61901296596E+02  0.73519532652E+01  0.68040797961E+02  0.47000000000E+01 0.  1.
         11    1    6    6    0    0  0.23990803781E+02 -0.14753713106E+02 -0.19087817416E+02  0.34023161085E+02  0.00000000000E+00 0. -1.
        -12    1    6    6    0    0 -0.62338592349E+02 -0.14033198751E+02 -0.58366136941E+02  0.86542687182E+02  0.00000000000E+00 0.  1.
</event>
<event>
12    1  0.8728348E-002  0.1853147E+03  0.7818608E-02  0.1162881E+00
         21   -1    0    0  501  502  0.00000000000E+00  0.00000000000E+00  0.13785594586E+04  0.13785594586E+04  0.00000000000E+00 0. -1.
         21   -1    0    0  502  503 -0.00000000000E+00 -0.00000000000E+00 -0.26604826276E+02  0.26604826276E+02  0.00000000000E+00 0. -1.
         -6    2    1    2    0  503 -0.59831405845E+02 -0.33959492811E+02  0.49407509210E+03  0.52749758343E+03  0.17149478013E+03 0.  0.
        -24    2    3    3    0    0  0.89494865765E+01  0.25940691325E+02  0.22352746695E+03  0.24195082597E+03  0.88445807870E+02 0.  0.
          6    2    1    2  501    0  0.59831405845E+02  0.33959492811E+02  0.85787954026E+03  0.87766670149E+03  0.17207117428E+03 0.  0.
         24    2    5    5    0    0  0.49647440824E+02  0.88165939195E+02  0.53486709079E+03  0.54994550216E+03  0.78224991665E+02 0.  0.
          5    1    5    5  501    0  0.10183965021E+02 -0.54206446384E+02  0.32301244948E+03  0.32772119933E+03  0.47000000000E+01 0. -1.
        -11    1    6    6    0    0 -0.43361111872E+01  0.26871876564E+02  0.30095513392E+03  0.30218354066E+03  0.00000000000E+00 0.  1.
         12    1    6    6    0    0  0.53983552011E+02  0.61294062631E+02  0.23391195686E+03  0.24776196150E+03  0.00000000000E+00 0. -1.
         -5    1    3    3    0  503 -0.68780892422E+02 -0.59900184136E+02  0.27054762515E+03  0.28554675746E+03  0.47000000000E+01 0.  1.
         11    1    4    4    0    0  0.21834307424E+02  0.13585768771E+02  0.22259481914E+03  0.22407535251E+03  0.00000000000E+00 0. -1.
        -12    1    4    4    0    0 -0.12884820847E+02  0.12354922554E+02  0.93264781213E+00  0.17875473463E+02  0.00000000000E+00 0.  1.
</event>
<event>
12    1  0.8728348E-002  0.2310589E+03  0.7818608E-02  0.1129167E+00
         21   -1    0    0  501  502  0.00000000000E+00  0.00000000000E+00  0.23586609403E+03  0.23586609403E+03  0.00000000000E+00 0. -1.
         21   -1    0    0  502  503 -0.00000000000E+00 -0.00000000000E+00 -0.41593912829E+03  0.41593912829E+03  0.00000000000E+00 0.  1.
         -6    2    1    2    0  503 -0.10454371200E+03 -0.70926937951E+02 -0.32156274410E+03  0.39596817060E+03  0.19346362833E+03 0.  0.
        -24    2    3    3    0    0 -0.92029997708E+02 -0.37272225427E+02 -0.76752923336E+02  0.14849459410E+03  0.79378170613E+02 0.  0.
          6    2    1    2  501    0  0.10454371200E+03  0.70926937951E+02  0.14148970985E+03  0.25583705172E+03  0.17167772364E+03 0.  0.
         24    2    5    5    0    0  0.61088754885E+02  0.80208856183E+00 -0.34723681808E+01  0.88978063748E+02  0.64595349431E+02 0.  0.
          5    1    5    5  501    0  0.43454957111E+02  0.70124849389E+02  0.14496207803E+03  0.16685898797E+03  0.47000000000E+01 0. -1.
        -13    1    6    6    0    0  0.70911721655E+02  0.14158857645E+02 -0.21093707985E+01  0.72342207342E+02  0.00000000000E+00 0.  1.
         14    1    6    6    0    0 -0.98229667703E+01 -0.13356769083E+02 -0.13629973823E+01  0.16635856406E+02  0.00000000000E+00 0. -1.
         -5    1    3    3    0  503 -0.12513714287E+02 -0.33654712524E+02 -0.24480982077E+03  0.24747357650E+03  0.47000000000E+01 0.  1.
         13    1    4    4    0    0 -0.45513998803E+02  0.18649660018E+02 -0.10912648095E+02  0.50382733096E+02  0.00000000000E+00 0. -1.
        -14    1    4    4    0    0 -0.46515998906E+02 -0.55921885445E+02 -0.65840275240E+02  0.98111861004E+02  0.00000000000E+00 0.  1.
</event>
<event>
12    1  0.8728348E-002  0.1760183E+03  0.7818608E-02  0.1172460E+00
         21   -1    0    0  501  502  0.00000000000E+00  0.00000000000E+00  0.48664521440E+03  0.48664521440E+03  0.00000000000E+00 0. -1.
         21   -1    0    0  502  503 -0.00000000000E+00 -0.00000000000E+00 -0.88858751653E+02  0.88858751653E+02  0.00000000000E+00 0. -1.
         -6    2    1    2    0  503 -0.20071499457E+02  0.62171546275E+01  0.43651064451E+02  0.18135014153E+03  0.17475966440E+03 0.  0.
        -24    2    3    3    0    0 -0.19993991982E+02  0.33034635722E+02  0.89420191270E+02  0.12809522373E+03  0.83194764637E+02 0.  0.
          6    2    1    2  501    0  0.20071499457E+02 -0.62171546275E+01  0.35413539830E+03  0.39415382453E+03  0.17176681565E+03 0.  0.
         24    2    5    5    0    0  0.34540501923E+02 -0.63257481680E+02  0.17345514706E+03  0.20407385680E+03  0.79780296611E+02 0.  0.
          5    1    5    5  501    0 -0.14469002465E+02  0.57040327053E+02  0.18068025124E+03  0.19007996772E+03  0.47000000000E+01 0. -1.
        -13    1    6    6    0    0  0.46062470914E+02 -0.41973427591E+01  0.89970083821E+02  0.10116315978E+03  0.00000000000E+00 0.  1.
         14    1    6    6    0    0 -0.11521968991E+02 -0.59060138921E+02  0.83485063239E+02  0.10291069703E+03  0.00000000000E+00 0. -1.
         -5    1    3    3    0  503 -0.77507475616E-01 -0.26817481095E+02 -0.45769126819E+02  0.53254917796E+02  0.47000000000E+01 0.  1.
         11    1    4    4    0    0  0.28509242352E+02 -0.39938132408E+01  0.17151838889E+02  0.33509894374E+02  0.00000000000E+00 0. -1.
        -12    1    4    4    0    0 -0.48503234334E+02  0.37028448963E+02  0.72268352381E+02  0.94585329356E+02  0.00000000000E+00 0.  1.
</event>
<event>
12    1  0.8728348E-002  0.2494001E+03  0.7818608E-02  0.1113793E+00
         21   -1    0    0  501  502  0.00000000000E+00  0.00000000000E+00  0.12498027424E+03  0.12498027424E+03  0.00000000000E+00 0. -1.
         21   -1    0    0  502  503 -0.00000000000E+00 -0.00000000000E+00 -0.72245186841E+03  0.72245186841E+03  0.00000000000E+00 0. -1.
         -6    2    1    2    0  503 -0.62417935067E+02 -0.16964006787E+03 -0.53551166943E+03  0.59045069566E+03  0.17083771442E+03 0.  0.
        -24    2    3    3    0    0  0.23595878076E+02 -0.49491639137E+02 -0.16017953764E+03  0.18705223243E+03  0.79529023471E+02 0.  0.
          6    2    1    2  501    0  0.62417935067E+02  0.16964006787E+03 -0.61959924744E+02  0.25698144700E+03  0.17183329300E+03 0.  0.
         24    2    5    5    0    0 -0.83546931684E+01  0.58976385688E+02 -0.74918890022E+02  0.12490101604E+03  0.80245926739E+02 0.  0.
          5    1    5    5  501    0  0.70772628235E+02  0.11066368218E+03  0.12958965278E+02  0.13208043096E+03  0.47000000000E+01 0. -1.
        -11    1    6    6    0    0  0.71061602211E+01  0.15020754275E+02 -0.76494899218E+02  0.78278925506E+02  0.00000000000E+00 0.  1.
         12    1    6    6    0    0 -0.15460853389E+02  0.43955631413E+02  0.15760091957E+01  0.46622090531E+02  0.00000000000E+00 0. -1.
         -5    1    3    3    0  503 -0.86013813143E+02 -0.12014842874E+03 -0.37533213179E+03  0.40339846323E+03  0.47000000000E+01 0.  1.
         13    1    4    4    0    0  0.35417502325E+01 -0.52617525065E+02 -0.15808355668E+03  0.16664800879E+03  0.00000000000E+00 0. -1.
        -14    1    4    4    0    0  0.20054127843E+02  0.31258859286E+01 -0.20959809503E+01  0.20404223645E+02  0.00000000000E+00 0.  1.
</event>
<event>
12    1  0.8728348E-002  0.2129562E+03  0.7818608E-02  0.1140714E+00
         21   -1    0    0  503  502  0.00000000000E+00  0.00000000000E+00  0.93696701209E+02  0.93696701209E+02  0.00000000000E+00 0. -1.
         21   -1    0    0  501  503 -0.00000000000E+00 -0.00000000000E+00 -0.49916372864E+03  0.49916372864E+03  0.00000000000E+00 0. -1.
          6    2    1    2  501    0  0.12108698741E+03 -0.25508952806E+01 -0.28095016143E+03  0.35253841947E+03  0.17516214890E+03 0.  0.
         24    2    3    3    0    0  0.96773248199E+02  0.50107822082E+02 -0.11617854513E+03  0.17779325082E+03  0.78975504345E+02 0.  0.
         -6    2    1    2    0  502 -0.12108698741E+03  0.25508952806E+01 -0.12451686600E+03  0.24032201038E+03  0.16607725060E+03 0.  0.
        -24    2    5    5    0    0 -0.43386764341E+02 -0.36671378826E+02 -0.10600980896E+02  0.96883416098E+02  0.77761263968E+02 0.  0.
          5    1    3    3  501    0  0.24313739209E+02 -0.52658717362E+02 -0.16477161630E+03  0.17474516865E+03  0.47000000000E+01 0. -1.
        -11    1    4    4    0    0 -0.99211274684E+01  0.72938026798E+01 -0.34874541479E+02  0.36984618034E+02  0.00000000000E+00 0.  1.
         12    1    4    4    0    0  0.10669437567E+03  0.42814019402E+02 -0.81304003653E+02  0.14080863278E+03  0.00000000000E+00 0. -1.
         -5    1    5    5    0  502 -0.77700223066E+02  0.39222274107E+02 -0.11391588510E+03  0.14343859428E+03  0.47000000000E+01 0.  1.
         13    1    6    6    0    0 -0.57619432441E+02 -0.10055927356E+01 -0.99256336521E+01  0.58476733963E+02  0.00000000000E+00 0. -1.
        -14    1    6    6    0    0  0.14232668100E+02 -0.35665786091E+02 -0.67534724434E+00  0.38406682135E+02  0.00000000000E+00 0.  1.
</event>
<event>
12    1  0.8728348E-002  0.2090300E+03  0.7818608E-02  0.1142352E+00
         21   -1    0    0  501  502  0.00000000000E+00  0.00000000000E+00  0.61890518876E+03  0.61890518876E+03  0.00000000000E+00 0. -1.
         21   -1    0    0  502  503 -0.00000000000E+00 -0.00000000000E+00 -0.10854278774E+03  0.10854278774E+03  0.00000000000E+00 0. -1.
         -6    2    1    2    0  503  0.11413806659E+02  0.11747635999E+03  0.40082455440E+02  0.21283827358E+03  0.17251828114E+03 0.  0.
        -24    2    3    3    0    0 -0.95167899803E+00  0.28914808760E+02  0.77826552973E+02  0.11566440626E+03  0.80525217596E+02 0.  0.
          6    2    1    2  501    0 -0.11413806659E+02 -0.11747635999E+03  0.47027994558E+03  0.51460970291E+03  0.17242084842E+03 0.  0.
         24    2    5    5    0    0  0.56475588576E+02 -0.47086752831E+02  0.21046301325E+03  0.23695777133E+03  0.80297266773E+02 0.  0.
          5    1    5    5  501    0 -0.67889395235E+02 -0.70389607163E+02  0.25981693233E+03  0.27765193158E+03  0.47000000000E+01 0. -1.
        -11    1    6    6    0    0  0.64307289476E+01  0.21043852585E+02  0.26102694384E+02  0.34140132696E+02  0.00000000000E+00 0.  1.
         12    1    6    6    0    0  0.50044859628E+02 -0.68130605416E+02  0.18436031887E+03  0.20281763864E+03  0.00000000000E+00 0. -1.
         -5    1    3    3    0  503  0.12365485657E+02  0.88561551234E+02 -0.37744097533E+02  0.97173867326E+02  0.47000000000E+01 0.  1.
         11    1    4    4    0    0 -0.13590838936E+02  0.52151728933E+02  0.69470236927E+02  0.87923987355E+02  0.00000000000E+00 0. -1.
        -12    1    4    4    0    0  0.12639159938E+02 -0.23236920173E+02  0.83563160465E+01  0.27740418904E+02  0.00000000000E+00 0.  1.
</event>
<event>
12    1  0.8728348E-002  0.1757040E+03  0.7818608E-02  0.1172083E+00
         21   -1    0    0  503  502  0.00000000000E+00  0.00000000000E+00  0.15025472208E+03  0.15025472208E+03  0.00000000000E+00 0.  1.
         21   -1    0    0  501  503 -0.00000000000E+00 -0.00000000000E+00 -0.21008386626E+03  0.21008386626E+03  0.00000000000E+00 0.  1.
          6    2    1    2  501    0 -0.38118832761E+02  0.44934183094E+01 -0.57403604737E+02  0.18484340415E+03  0.17146041526E+03 0.  0.
         24    2    3    3    0    0 -0.51332993117E+02  0.21829330771E+02 -0.98358641535E+02  0.13821130218E+03  0.79475441629E+02 0.  0.
         -6    2    1    2    0  502  0.38118832761E+02 -0.44934183094E+01 -0.24255394411E+01  0.17549518419E+03  0.17122920374E+03 0.  0.
        -24    2    5    5    0    0  0.25063260778E+02  0.43661806862E+02 -0.49434306405E+02  0.10678355604E+03  0.80152709072E+02 0.  0.
          5    1    3    3  501    0  0.13214160356E+02 -0.17335912462E+02  0.40955036798E+02  0.46632101967E+02  0.47000000000E+01 0. -1.
        -11    1    4    4    0    0 -0.54215355097E+02  0.27727851974E+02 -0.27102663567E+02  0.66653528607E+02  0.00000000000E+00 0.  1.
         12    1    4    4    0    0  0.28823619798E+01 -0.58985212026E+01 -0.71255977968E+02  0.71557773576E+02  0.00000000000E+00 0. -1.
         -5    1    5    5    0  502  0.13055571983E+02 -0.48155225171E+02  0.47008766964E+02  0.68711628147E+02  0.47000000000E+01 0.  1.
         13    1    6    6    0    0 -0.24394352332E+02 -0.21659100836E+01 -0.25186558274E+02  0.35130304722E+02  0.00000000000E+00 0. -1.
        -14    1    6    6    0    0  0.49457613110E+02  0.45827716945E+02 -0.24247748132E+02  0.71653251318E+02  0.00000000000E+00 0.  1.
</event>
<event>
12    1  0.8728348E-002  0.2000044E+03  0.7818608E-02  0.1149748E+00
         21   -1    0    0  503  502  0.00000000000E+00  0.00000000000E+00  0.50040088545E+02  0.50040088545E+02  0.00000000000E+00 0. -1.
         21   -1    0    0  501  503 -0.00000000000E+00 -0.00000000000E+00 -0.85268650224E+03  0.85268650224E+03  0.00000000000E+00 0. -1.
          6    2    1    2  501    0  0.20774268998E+02 -0.99933443791E+02 -0.51436684155E+03  0.55186069596E+03  0.17192648608E+03 0.  0.
         24    2    3    3    0    0  0.18549528047E+02 -0.58591617791E+02 -0.49628076848E+03  0.50643722088E+03  0.80043705941E+02 0.  0.
         -6    2    1    2    0  502 -0.20774268998E+02  0.99933443791E+02 -0.28827957215E+03  0.35086589483E+03  0.17199854940E+03 0.  0.
        -24    2    5    5    0    0 -0.12765225335E+02  0.16868732951E+02 -0.24071134971E+03  0.25469564604E+03  0.80501013042E+02 0.  0.
          5    1    3    3  501    0  0.22247409511E+01 -0.41341826000E+02 -0.18086073073E+02  0.45423475082E+02  0.47000000000E+01 0. -1.
        -11    1    4    4    0    0 -0.11303555885E+02  0.68544061945E+01 -0.15795999225E+02  0.20597738988E+02  0.00000000000E+00 0.  1.
         12    1    4    4    0    0  0.29853083932E+02 -0.65446023985E+02 -0.48048476926E+03  0.48583948189E+03  0.00000000000E+00 0. -1.
         -5    1    5    5    0  502 -0.80090436625E+01  0.83064710840E+02 -0.47568222435E+02  0.96170248794E+02  0.47000000000E+01 0.  1.
         11    1    6    6    0    0  0.27935328283E+02  0.19210103012E+02 -0.16751989689E+03  0.17091613872E+03  0.00000000000E+00 0. -1.
        -12    1    6    6    0    0 -0.40700553619E+02 -0.23413700612E+01 -0.73191452825E+02  0.83779507311E+02  0.00000000000E+00 0.  1.
</event>
<event>
12    1  0.8728348E-002  0.1975629E+03  0.7818608E-02  0.1152269E+00
         21   -1    0    0  503  502  0.00000000000E+00  0.00000000000E+00  0.46280025548E+02  0.46280025548E+02  0.00000000000E+00 0. -1.
         21   -1    0    0  501  503 -0.00000000000E+00 -0.00000000000E+00 -0.10547998951E+04  0.10547998951E+04  0.00000000000E+00 0. -1.
          6    2    1    2  501    0  0.65316896818E+01  0.95788838887E+02 -0.75809881864E+03  0.78341872860E+03  0.17266418527E+03 0.  0.
         24    2    3    3    0    0 -0.45029699373E+02  0.93980440580E+02 -0.39108350885E+03  0.41276501586E+03  0.81047210874E+02 0.  0.
         -6    2    1    2    0  502 -0.65316896818E+01 -0.95788838887E+02 -0.25042105087E+03  0.31766119201E+03  0.17023444293E+03 0.  0.
        -24    2    5    5    0    0  0.55637016800E+02 -0.31345046531E+02 -0.16348430987E+03  0.19276908908E+03  0.79717078141E+02 0.  0.
          5    1    3    3  501    0  0.51561389055E+02  0.18083983071E+01 -0.36701530979E+03  0.37065371274E+03  0.47000000000E+01 0. -1.
        -13    1    4    4    0    0  0.15971393828E+02 -0.38415308662E+01 -0.58785444600E+02  0.61037457983E+02  0.00000000000E+00 0.  1.
         14    1    4    4    0    0 -0.61001093201E+02  0.97821971446E+02 -0.33229806425E+03  0.35172755788E+03  0.00000000000E+00 0. -1.
         -5    1    5    5    0  502 -0.62168706482E+02 -0.64443792356E+02 -0.86936740998E+02  0.12489210293E+03  0.47000000000E+01 0.  1.
         11    1    6    6    0    0 -0.15483409976E+02 -0.14060804792E+02 -0.75390786867E+02  0.78238180962E+02  0.00000000000E+00 0. -1.
        -12    1    6    6    0    0  0.71120426776E+02 -0.17284241739E+02 -0.88093523008E+02  0.11453090811E+03  0.00000000000E+00 0.  1.
</event>
<event>
12    1  0.8728348E-002  0.1763956E+03  0.7818608E-02  0.1171591E+00
         21   -1    0    0  503  502  0.00000000000E+00  0.00000000000E+00  0.80850497418E+02  0.80850497418E+02  0.00000000000E+00 0.  1.
         21   -1    0    0  501  503 -0.00000000000E+00 -0.00000000000E+00 -0.14817217777E+04  0.14817217777E+04  0.00000000000E+00 0. -1.
          6    2    1    2  501    0  0.30221672249E+02  0.30694219764E+02 -0.13738433196E+04  0.13851212551E+04  0.17105537160E+03 0.  0.
         24    2    3    3    0    0 -0.13197431016E+02 -0.37444073024E+02 -0.54379416091E+03  0.55113579889E+03  0.80388734195E+02 0.  0.
         -6    2    1    2    0  502 -0.30221672249E+02 -0.30694219764E+02 -0.27027960697E+02  0.17745101995E+03  0.17000843868E+03 0.  0.
        -24    2    5    5    0    0  0.45564398946E+02 -0.31465537664E+02 -0.28819391210E+02  0.10149430371E+03  0.80027132052E+02 0.  0.
          5    1    3    3  501    0  0.43419103265E+02  0.68138292787E+02 -0.83004915865E+03  0.83398545626E+03  0.47000000000E+01 0. -1.
        -13    1    4    4    0    0 -0.34935029315E+02 -0.47405084710E+02 -0.46718847016E+03  0.47088508681E+03  0.00000000000E+00 0.  1.
         14    1    4    4    0    0  0.21737598299E+02  0.99610116865E+01 -0.76605690748E+02  0.80250712075E+02  0.00000000000E+00 0. -1.
         -5    1    5    5    0  502 -0.75786071194E+02  0.77131790020E+00  0.17914305122E+01  0.75956716238E+02  0.47000000000E+01 0.  1.
         13    1    6    6    0    0  0.29665148523E+02  0.22761698515E+02  0.13882591370E+01  0.37417151410E+02  0.00000000000E+00 0. -1.
        -14    1    6    6    0    0  0.15899250422E+02 -0.54227236179E+02 -0.30207650347E+02  0.64077152301E+02  0.00000000000E+00 0.  1.
</event>
<event>
12    1  0.8728348E-002  0.2354802E+03  0.7818608E-02  0.1122998E+00
         21   -1    0    0  503  502  0.00000000000E+00  0.00000000000E+00  0.69263568846E+02  0.69263568846E+02  0.00000000000E+00 0.  1.
         21   -1    0    0  501  503 -0.00000000000E+00 -0.00000000000E+00 -0.88301965139E+03  0.88301965139E+03  0.00000000000E+00 0. -1.
          6    2    1    2  501    0  0.11622530561E+03 -0.11144703712E+03 -0.55580273328E+03  0.60362869245E+03  0.17182012768E+03 0.  0.
         24    2    3    3    0    0  0.58868502541E+02 -0.39796609004E+02 -0.13181742435E+03  0.16979782806E+03  0.80038730444E+02 0.  0.
         -6    2    1    2    0  502 -0.11622530561E+03  0.11144703712E+03 -0.25795334927E+03  0.34865452780E+03  0.17056167684E+03 0.  0.
        -24    2    5    5    0    0 -0.31432267709E+01  0.10725742841E+02 -0.72806531184E+02  0.10941872378E+03  0.80911956451E+02 0.  0.
          5    1    3    3  501    0  0.57356803070E+02 -0.71650428113E+02 -0.42398530893E+03  0.43383086439E+03  0.47000000000E+01 0. -1.
        -13    1    4    4    0    0  0.13229881377E+02 -0.56499620577E+02 -0.64359259544E+02  0.86656512598E+02  0.00000000000E+00 0.  1.
         14    1    4    4    0    0  0.45638621164E+02  0.16703011573E+02 -0.67458164803E+02  0.83141315457E+02  0.00000000000E+00 0. -1.
         -5    1    5    5    0  502 -0.11308207884E+03  0.10072129428E+03 -0.18514681809E+03  0.23923580401E+03  0.47000000000E+01 0.  1.
         11    1    6    6    0    0 -0.50184202471E+01  0.20047129853E+02 -0.88603182617E+02  0.90981294380E+02  0.00000000000E+00 0. -1.
        -12    1    6    6    0    0  0.18751934762E+01 -0.93213870117E+01  0.15796651434E+02  0.18437429401E+02  0.00000000000E+00 0.  1.
</event>
<event>
12    1  0.8728348E-002  0.1761172E+03  0.7818608E-02  0.1171915E+00
         21   -1    0    0  501  502  0.00000000000E+00  0.00000000000E+00  0.26869209955E+03  0.26869209955E+03  0.00000000000E+00 0.  1.
         21   -1    0    0  502  503 -0.00000000000E+00 -0.00000000000E+00 -0.13339548352E+03  0.13339548352E+03  0.00000000000E+00 0.  1.
         -6    2    1    2    0  503  0.74270021526E+01 -0.34875084533E+02  0.14320842497E+03  0.22699320769E+03  0.17246979873E+03 0.  0.
        -24    2    3    3    0    0  0.20742937663E+02  0.73244972726E+01  0.95553205825E+01  0.86126742007E+02  0.82719972281E+02 0.  0.
          6    2    1    2  501    0 -0.74270021526E+01  0.34875084533E+02 -0.79118089348E+01  0.17509437537E+03  0.17124255220E+03 0.  0.
         24    2    5    5    0    0 -0.37907406494E+01  0.86634550027E+02 -0.23613320195E+02  0.12068029519E+03  0.80537132955E+02 0.  0.
          5    1    5    5  501    0 -0.36362615032E+01 -0.51759465493E+02  0.15701511260E+02  0.54414080179E+02  0.47000000000E+01 0. -1.
        -11    1    6    6    0    0 -0.25834173656E+02  0.29958205780E+02  0.21441873642E+02  0.44996139471E+02  0.00000000000E+00 0.  1.
         12    1    6    6    0    0  0.22043433007E+02  0.56676344247E+02 -0.45055193836E+02  0.75684155723E+02  0.00000000000E+00 0. -1.
         -5    1    3    3    0  503 -0.13315935510E+02 -0.42199581806E+02  0.13365310439E+03  0.14086646569E+03  0.47000000000E+01 0.  1.
         13    1    4    4    0    0 -0.25755124278E+02 -0.19144371469E+02  0.35205576645E+01  0.32283551722E+02  0.00000000000E+00 0. -1.
        -14    1    4    4    0    0  0.46498061940E+02  0.26468868742E+02  0.60347629180E+01  0.53843190286E+02  0.00000000000E+00 0.  1.
</event>
<event>
12    1  0.8728348E-002  0.3218071E+03  0.7818608E-02  0.1074925E+00
         21   -1    0    0  503  502  0.00000000000E+00  0.00000000000E+00  0.74174683472E+03  0.74174683472E+03  0.00000000000E+00 0.  1.
         21   -1    0    0  501  503 -0.00000000000E+00 -0.00000000000E+00 -0.14743051606E+03  0.14743051606E+03  0.00000000000E+00 0. -1.
          6    2    1    2  501    0 -0.22268546441E+03 -0.15532852053E+03  0.19183746726E+03  0.37386287956E+03  0.17104406893E+03 0.  0.
         24    2    3    3    0    0 -0.20240183320E+03 -0.17239900559E+03  0.20324150978E+03  0.34462302079E+03  0.82279985109E+02 0.  0.
         -6    2    1    2    0  502  0.22268546441E+03  0.15532852053E+03  0.40247885140E+03  0.51531447122E+03  0.17275419842E+03 0.  0.
        -24    2    5    5    0    0  0.16613360562E+03  0.16037555660E+03  0.37418623408E+03  0.45170513621E+03  0.10344804602E+03 0.  0.
          5    1    3    3  501    0 -0.20283631210E+02  0.17070485058E+02 -0.11404042517E+02  0.29239858770E+02  0.47000000000E+01 0. -1.
        -13    1    4    4    0    0 -0.29049947157E+02 -0.67016462983E+02  0.74600243743E+02  0.10440451191E+03  0.00000000000E+00 0.  1.
         14    1    4    4    0    0 -0.17335188604E+03 -0.10538254261E+03  0.12864126604E+03  0.24021850888E+03  0.00000000000E+00 0. -1.
         -5    1    5    5    0  502  0.56551858792E+02 -0.50470360703E+01  0.28292617313E+02  0.63609335009E+02  0.47000000000E+01 0.  1.
         11    1    6    6    0    0  0.15199313698E+03  0.92216650056E+02  0.22244333105E+03  0.28475754558E+03  0.00000000000E+00 0. -1.
        -12    1    6    6    0    0  0.14140468643E+02  0.68158906548E+02  0.15174290303E+03  0.16694759063E+03  0.00000000000E+00 0.  1.
</event>
<event>
12    1  0.8728348E-002  0.1926136E+03  0.7818608E-02  0.1156794E+00
         21   -1    0    0  503  502  0.00000000000E+00  0.00000000000E+00  0.37924825411E+03  0.37924825411E+03  0.00000000000E+00 0.  1.
         21   -1    0    0  501  503 -0.00000000000E+00 -0.00000000000E+00 -0.98251020190E+02  0.98251020190E+02  0.00000000000E+00 0.  1.
          6    2    1    2  501    0  0.57543523164E+02  0.58214348615E+02  0.17297862210E+03  0.25666444457E+03  0.17104053893E+03 0.  0.
         24    2    3    3    0    0  0.98689019747E+02  0.11791839519E+02  0.12739680224E+03  0.17954250513E+03  0.78275129066E+02 0.  0.
         -6    2    1    2    0  502 -0.57543523164E+02 -0.58214348615E+02  0.10801861181E+03  0.22083482973E+03  0.17435548194E+03 0.  0.
        -24    2    5    5    0    0  0.20175127311E+02 -0.71393367699E+02  0.89487313693E+02  0.13972148813E+03  0.77524616866E+02 0.  0.
          5    1    3    3  501    0 -0.41145496583E+02  0.46422509095E+02  0.45581819864E+02  0.77121939433E+02  0.47000000000E+01 0. -1.
        -13    1    4    4    0    0  0.90926010908E+02  0.34823643271E+02  0.78995405780E+02  0.12538141698E+03  0.00000000000E+00 0.  1.
         14    1    4    4    0    0  0.77630088399E+01 -0.23031803751E+02  0.48401396460E+02  0.54161088150E+02  0.00000000000E+00 0. -1.
         -5    1    5    5    0  502 -0.77718650475E+02  0.13179019085E+02  0.18531298122E+02  0.81113341602E+02  0.47000000000E+01 0.  1.
         13    1    6    6    0    0  0.40934692235E+02 -0.25158377588E+02  0.71089356240E+02  0.85803785242E+02  0.00000000000E+00 0. -1.
        -14    1    6    6    0    0 -0.20759564924E+02 -0.46234990112E+02  0.18397957453E+02  0.53917702889E+02  0.00000000000E+00 0.  1.
</event>
<event>
12    1  0.8728348E-002  0.2698890E+03  0.7818608E-02  0.1102145E+00
         21   -1    0    0  503  502  0.00000000000E+00  0.00000000000E+00  0.37229798147E+03  0.37229798147E+03  0.00000000000E+00 0.  1.
         21   -1    0    0  501  503 -0.00000000000E+00 -0.00000000000E+00 -0.26046329966E+03  0.26046329966E+03  0.00000000000E+00 0. -1.
          6    2    1    2  501    0  0.19462954396E+03  0.53733854359E+02 -0.10626116534E+03  0.29005430318E+03  0.17908678635E+03 0.  0.
         24    2    3    3    0    0  0.39194328815E+02 -0.22033021018E+02 -0.64370378142E+02  0.11207213113E+03  0.79968541116E+02 0.  0.
         -6    2    1    2    0  502 -0.19462954396E+03 -0.53733854359E+02  0.21809584715E+03  0.34270697796E+03  0.17062909398E+03 0.  0.
        -24    2    5    5    0    0 -0.62625240805E+02 -0.51810318574E+02  0.40183434022E+02  0.12111331202E+03  0.80296301788E+02 0.  0.
          5    1    3    3  501    0  0.15543521515E+03  0.75766875378E+02 -0.41890787199E+02  0.17798217204E+03  0.47000000000E+01 0. -1.
        -13    1    4    4    0    0 -0.22888379407E+02  0.43668466818E+01 -0.97041555546E+01  0.25241194442E+02  0.00000000000E+00 0.  1.
         14    1    4    4    0    0  0.62082708222E+02 -0.26399867700E+02 -0.54666222587E+02  0.86830936691E+02  0.00000000000E+00 0. -1.
         -5    1    5    5    0  502 -0.13200430316E+03 -0.19235357857E+01  0.17791241313E+03  0.22159366594E+03  0.47000000000E+01 0.  1.
         13    1    6    6    0    0 -0.36007448001E+02  0.61994216319E+01  0.43978121681E+02  0.57175557074E+02  0.00000000000E+00 0. -1.
        -14    1    6    6    0    0 -0.26617792804E+02 -0.58009740206E+02 -0.37946876593E+01  0.63937754941E+02  0.00000000000E+00 0.  1.
</event>
<event>
12    1  0.8728348E-002  0.1872398E+03  0.7818608E-02  0.1164147E+00
         21   -1    0    0  501  502  0.00000000000E+00  0.00000000000E+00  0.44198611547E+03  0.44198611547E+03  0.00000000000E+00 0.  1.
         21   -1    0    0  502  503 -0.00000000000E+00 -0.00000000000E+00 -0.75987359226E+02  0.75987359226E+02  0.00000000000E+00 0.  1.
         -6    2    1    2    0  503 -0.97856418426E+00  0.29763836683E+02  0.14560302158E+03  0.23718974776E+03  0.18485641181E+03 0.  0.
        -24    2    3    3    0    0  0.32766382778E+02  0.26729196749E+02  0.22992076192E+01  0.89860173058E+02  0.79255779266E+02 0.  0.
          6    2    1    2  501    0  0.97856418426E+00 -0.29763836683E+02  0.22039573466E+03  0.28078372694E+03  0.17140121906E+03 0.  0.
         24    2    5    5    0    0 -0.25479519380E+02 -0.79876452779E+02  0.16352689778E+03  0.20036321285E+03  0.79843078281E+02 0.  0.
          5    1    5    5  501    0  0.26458083565E+02  0.50112616097E+02  0.56868836887E+02  0.80420514092E+02  0.47000000000E+01 0. -1.
        -11    1    6    6    0    0  0.11472917010E+02 -0.56042510201E+02  0.13831122180E+03  0.14967426248E+03  0.00000000000E+00 0.  1.
         12    1    6    6    0    0 -0.36952436390E+02 -0.23833942579E+02  0.25215675979E+02  0.50688950365E+02  0.00000000000E+00 0. -1.
         -5    1    3    3    0  503 -0.33744946962E+02  0.30346399340E+01  0.14330381396E+03  0.14732957470E+03  0.47000000000E+01 0.  1.
         11    1    4    4    0    0  0.42249164642E+02 -0.53581927697E+01  0.25040887160E+02  0.49403928715E+02  0.00000000000E+00 0. -1.
        -12    1    4    4    0    0 -0.94827818638E+01  0.32087389518E+02 -0.22741679541E+02  0.40456244343E+02  0.00000000000E+00 0.  1.
</event>
<event>
12    1  0.8728348E-002  0.1726421E+03  0.7818608E-02  0.1175229E+00
         21   -1    0    0  503  502  0.00000000000E+00  0.00000000000E+00  0.15569699558E+03  0.15569699558E+03  0.00000000000E+00 0.  1.
         21   -1    0    0  501  503 -0.00000000000E+00 -0.00000000000E+00 -0.39542203415E+03  0.39542203415E+03  0.00000000000E+00 0.  1.
          6    2    1    2  501    0  0.18038303306E+02  0.88753858538E+01 -0.31808219875E+03  0.36191375377E+03  0.17146756879E+03 0.  0.
         24    2    3    3    0    0  0.41925180744E+02  0.51614875311E+02 -0.12327580454E+03  0.16099369977E+03  0.79373996040E+02 0.  0.
         -6    2    1    2    0  502 -0.18038303306E+02 -0.88753858538E+01  0.78357160183E+02  0.18920527596E+03  0.17103987558E+03 0.  0.
        -24    2    5    5    0    0 -0.67461234025E+02 -0.32125502554E+02  0.24187129139E+02  0.11213598071E+03  0.80039958416E+02 0.  0.
          5    1    3    3  501    0 -0.23886877438E+02 -0.42739489457E+02 -0.19480639422E+03  0.20092005400E+03  0.47000000000E+01 0. -1.
        -11    1    4    4    0    0  0.65998793596E+01  0.39642016584E+02 -0.11630017914E+03  0.12304787505E+03  0.00000000000E+00 0.  1.
         12    1    4    4    0    0  0.35325301384E+02  0.11972858727E+02 -0.69756253982E+01  0.37945824720E+02  0.00000000000E+00 0. -1.
         -5    1    5    5    0  502  0.49422930718E+02  0.23250116700E+02  0.54170031044E+02  0.77069295252E+02  0.47000000000E+01 0.  1.
         11    1    6    6    0    0 -0.42629944870E+02  0.20603763979E+02 -0.37628349968E+01  0.47497223255E+02  0.00000000000E+00 0. -1.
        -12    1    6    6    0    0 -0.24831289155E+02 -0.52729266532E+02  0.27949964135E+02  0.64638757455E+02  0.00000000000E+00 0.  1.
</event>
<event>
12    1  0.8728348E-002  0.1865287E+03  0.7818608E-02  0.1161829E+00
         21   -1    0    0  501  502  0.00000000000E+00  0.00000000000E+00  0.57063928531E+02  0.57063928531E+02  0.00000000000E+00 0. -1.
         21   -1    0    0  502  503 -0.00000000000E+00 -0.00000000000E+00 -0.83201210857E+03  0.83201210857E+03  0.00000000000E+00 0. -1.
         -6    2    1    2    0  503 -0.20599223438E+02  0.67369853196E+02 -0.61804292296E+03  0.64532979502E+03  0.17178610130E+03 0.  0.
        -24    2    3    3    0    0  0.32182789896E+02 -0.11874561701E+02 -0.34365769445E+03  0.35485610973E+03  0.81520000479E+02 0.  0.
          6    2    1    2  501    0  0.20599223438E+02 -0.67369853196E+02 -0.15690525708E+03  0.24374624208E+03  0.17271347863E+03 0.  0.
         24    2    5    5    0    0 -0.44427014205E+02 -0.42497860588E+01 -0.10918066704E+03  0.14121682702E+03  0.77652777841E+02 0.  0.
          5    1    5    5  501    0  0.65026237643E+02 -0.63120067137E+02 -0.47724590046E+02  0.10252941506E+03  0.47000000000E+01 0. -1.
        -11    1    6    6    0    0 -0.20681754680E+02 -0.40126888831E+02 -0.43439294160E+02  0.62648818512E+02  0.00000000000E+00 0.  1.
         12    1    6    6    0    0 -0.23745259524E+02  0.35877102772E+02 -0.65741372876E+02  0.78568008507E+02  0.00000000000E+00 0. -1.
         -5    1    3    3    0  503 -0.52782013334E+02  0.79244414897E+02 -0.27438522851E+03  0.29047368529E+03  0.47000000000E+01 0.  1.
         11    1    4    4    0    0  0.40681134804E+02 -0.39098095507E+01 -0.70792130743E+02  0.81742076771E+02  0.00000000000E+00 0. -1.
        -12    1    4    4    0    0 -0.84983449079E+01 -0.79647521503E+01 -0.27286556371E+03  0.27311403296E+03  0.00000000000E+00 0.  1.
</event>
<event>
12    1  0.8728348E-002  0.2272732E+03  0.7818608E-02  0.1128663E+00
         21   -1    0    0  503  502  0.00000000000E+00  0.00000000000E+00  0.21885853916E+03  0.21885853916E+03  0.00000000000E+00 0.  1.
         21   -1    0    0  501  503 -0.00000000000E+00 -0.00000000000E+00 -0.33859618637E+03  0.33859618637E+03  0.00000000000E+00 0.  1.
          6    2    1    2  501    0  0.55459664645E+02 -0.13688016124E+03 -0.21362824728E+03  0.31155120071E+03  0.17209058569E+03 0.  0.
         24    2    3    3    0    0 -0.18720302612E+02 -0.29592941883E+02 -0.12414292633E+03  0.15330162679E+03  0.82847635333E+02 0.  0.
         -6    2    1    2    0  502 -0.55459664645E+02  0.13688016124E+03  0.93890600077E+02  0.24590352481E+03  0.17274589948E+03 0.  0.
        -24    2    5    5    0    0 -0.57024467554E+02  0.52391722772E+02  0.11296983906E+03  0.15914609168E+03  0.81046970615E+02 0.  0.
          5    1    3    3  501    0  0.74179967257E+02 -0.10728721936E+03 -0.89485320956E+02  0.15824957392E+03  0.47000000000E+01 0. -1.
        -13    1    4    4    0    0  0.21127188565E+02 -0.28399442289E+02 -0.10141055409E+03  0.10741036682E+03  0.00000000000E+00 0.  1.
         14    1    4    4    0    0 -0.39847491177E+02 -0.11934995944E+01 -0.22732372238E+02  0.45891259974E+02  0.00000000000E+00 0. -1.
         -5    1    5    5    0  502  0.15648029098E+01  0.84488438470E+02 -0.19079238983E+02  0.86757433131E+02  0.47000000000E+01 0.  1.
         13    1    6    6    0    0 -0.12941725108E+02 -0.10113774251E+02 -0.61883212049E+01  0.17551979880E+02  0.00000000000E+00 0. -1.
        -14    1    6    6    0    0 -0.44082742446E+02  0.62505497023E+02  0.11915816026E+03  0.14159411180E+03  0.00000000000E+00 0.  1.
</event>
<event>
12    1  0.8728348E-002  0.1897230E+03  0.7818608E-02  0.1158908E+00
         21   -1    0    0  503  502  0.00000000000E+00  0.00000000000E+00  0.12219523313E+04  0.12219523313E+04  0.00000000000E+00 0. -1.
         21   -1    0    0  501  503 -0.00000000000E+00 -0.00000000000E+00 -0.67642498123E+02  0.67642498123E+02  0.00000000000E+00 0. -1.
          6    2    1    2  501    0  0.56356679171E+02 -0.55616643385E+02  0.10619011922E+04  0.10785636479E+04  0.17145295094E+03 0.  0.
         24    2    3    3    0    0  0.55343763181E+02 -0.83288933241E+02  0.42513956246E+03  0.44118287893E+03  0.62439623336E+02 0.  0.
         -6    2    1    2    0  502 -0.56356679171E+02  0.55616643385E+02  0.92408640955E+02  0.21103118145E+03  0.17241089383E+03 0.  0.
        -24    2    5    5    0    0 -0.38555737277E+02  0.82004638778E+02  0.11738186139E+03  0.17030095223E+03  0.83741311717E+02 0.  0.
          5    1    3    3  501    0  0.10129159902E+01  0.27672289856E+02  0.63676162972E+03  0.63738076902E+03  0.47000000000E+01 0. -1.
        -13    1    4    4    0    0  0.22334968873E+02 -0.17047625355E+02  0.39310754162E+02  0.48319848485E+02  0.00000000000E+00 0.  1.
         14    1    4    4    0    0  0.33008794308E+02 -0.66241307886E+02  0.38582880830E+03  0.39286303044E+03  0.00000000000E+00 0. -1.
         -5    1    5    5    0  502 -0.17800941894E+02 -0.26387995393E+02 -0.24973220436E+02  0.40730229218E+02  0.47000000000E+01 0. -1.
         11    1    6    6    0    0  0.52368506854E+01 -0.56729300398E+01 -0.80281214535E+01  0.11138109104E+02  0.00000000000E+00 0. -1.
        -12    1    6    6    0    0 -0.43792587962E+02  0.87677568818E+02  0.12540998284E+03  0.15916284312E+03  0.00000000000E+00 0.  1.
</event>
<event>
12    1  0.8728348E-002  0.1777365E+03  0.7818608E-02  0.1170341E+00
         21   -1    0    0  503  502  0.00000000000E+00  0.00000000000E+00  0.45978413599E+03  0.45978413599E+03  0.00000000000E+00 0.  1.
         21   -1    0    0  501  503 -0.00000000000E+00 -0.00000000000E+00 -0.10836766974E+03  0.10836766974E+03  0.00000000000E+00 0.  1.
          6    2    1    2  501    0  0.26109259546E+02 -0.37626098048E+02  0.23243406962E+01  0.17641774546E+03  0.17035375448E+03 0.  0.
         24    2    3    3    0    0  0.77861028907E+02  0.16766792382E+01  0.75445785477E+01  0.11105495163E+03  0.78810726042E+02 0.  0.
         -6    2    1    2    0  502 -0.26109259546E+02  0.37626098048E+02  0.34909212556E+03  0.39173406027E+03  0.17173481058E+03 0.  0.
        -24    2    5    5    0    0  0.40687998963E+02 -0.20460864705E+02  0.19184344070E+03  0.21122032707E+03  0.75736124696E+02 0.  0.
          5    1    3    3  501    0 -0.51751769361E+02 -0.39302777286E+02 -0.52202378515E+01  0.65362793832E+02  0.47000000000E+01 0. -1.
        -11    1    4    4    0    0  0.51677912525E+02 -0.34646696169E+02  0.18591674591E+02  0.64935741794E+02  0.00000000000E+00 0.  1.
         12    1    4    4    0    0  0.26183116383E+02  0.36323375407E+02 -0.11047096043E+02  0.46119209831E+02  0.00000000000E+00 0. -1.
         -5    1    5    5    0  502 -0.66797258509E+02  0.58086962753E+02  0.15724868485E+03  0.18051373320E+03  0.47000000000E+01 0.  1.
         13    1    6    6    0    0 -0.14016908005E+02 -0.26093126691E+02  0.40353946790E+02  0.50057626712E+02  0.00000000000E+00 0. -1.
        -14    1    6    6    0    0  0.54704906968E+02  0.56322619854E+01  0.15148949391E+03  0.16116270036E+03  0.00000000000E+00 0.  1.
</event>
<event>
12    1  0.8728348E-002  0.1840784E+03  0.7818608E-02  0.1164381E+00
         21   -1    0    0  501  502  0.00000000000E+00  0.00000000000E+00  0.89884095198E+03  0.89884095198E+03  0.00000000000E+00 0.  1.
         21   -1    0    0  502  503 -0.00000000000E+00 -0.00000000000E+00 -0.37497106146E+02  0.37497106146E+02  0.00000000000E+00 0.  1.
         -6    2    1    2    0  503  0.57510480815E+02 -0.25810650480E+02  0.46278421887E+03  0.49732253018E+03  0.17084150754E+03 0.  0.
        -24    2    3    3    0    0 -0.27164443051E+02 -0.39409593331E+02  0.17830419306E+03  0.20015969760E+03  0.77333668391E+02 0.  0.
          6    2    1    2  501    0 -0.57510480815E+02  0.25810650480E+02  0.39855962696E+03  0.43901552795E+03  0.17294858328E+03 0.  0.
         24    2    5    5    0    0 -0.20771888974E+02  0.33013795546E+02  0.39052743371E+03  0.40043813097E+03  0.79483571826E+02 0.  0.
          5    1    5    5  501    0 -0.36738591841E+02 -0.72031450662E+01  0.80321932535E+01  0.38577396980E+02  0.47000000000E+01 0. -1.
        -13    1    6    6    0    0 -0.50015327646E+02  0.29927512326E+02  0.23222881787E+03  0.23943143662E+03  0.00000000000E+00 0.  1.
         14    1    6    6    0    0  0.29243438671E+02  0.30862832201E+01  0.15829861584E+03  0.16100669435E+03  0.00000000000E+00 0. -1.
         -5    1    3    3    0  503  0.84674923866E+02  0.13598942851E+02  0.28448002582E+03  0.29716283258E+03  0.47000000000E+01 0.  1.
         13    1    4    4    0    0 -0.28543601963E+02 -0.53948476099E+02  0.17478853280E+03  0.18513834418E+03  0.00000000000E+00 0. -1.
        -14    1    4    4    0    0  0.13791589112E+01  0.14538882768E+02  0.35156602561E+01  0.15021353417E+02  0.00000000000E+00 0.  1.
</event>
<event>
12    1  0.8728348E-002  0.1821431E+03  0.7818608E-02  0.1166261E+00
         21   -1    0    0  501  502  0.00000000000E+00  0.00000000000E+00  0.14472894654E+03  0.14472894654E+03  0.00000000000E+00 0. -1.
         21   -1    0    0  502  503 -0.00000000000E+00 -0.00000000000E+00 -0.36946111924E+03  0.36946111924E+03  0.00000000000E+00 0. -1.
         -6    2    1    2    0  503  0.20779211887E+02  0.52277996237E+02 -0.27268486004E+03  0.32792244623E+03  0.17323779412E+03 0.  0.
        -24    2    3    3    0    0 -0.19142891427E+02  0.11851595394E+02 -0.25479065017E+03  0.26816994867E+03  0.80560134982E+02 0.  0.
          6    2    1    2  501    0 -0.20779211887E+02 -0.52277996237E+02  0.47952687334E+02  0.18626761956E+03  0.17097193142E+03 0.  0.
         24    2    5    5    0    0 -0.67611476150E+02 -0.67912266328E+02  0.11850387492E+02  0.12492304008E+03  0.79258732226E+02 0.  0.
          5    1    5    5  501    0  0.46832264263E+02  0.15634270091E+02  0.36102299842E+02  0.61344579476E+02  0.47000000000E+01 0. -1.
        -13    1    6    6    0    0 -0.53179664650E+02 -0.69497861999E+02  0.37691911146E+02  0.95282263410E+02  0.00000000000E+00 0.  1.
         14    1    6    6    0    0 -0.14431811499E+02  0.15855956713E+01 -0.25841523654E+02  0.29640776669E+02  0.00000000000E+00 0. -1.
         -5    1    3    3    0  503  0.39922103314E+02  0.40426400842E+02 -0.17894209865E+02  0.59752497561E+02  0.47000000000E+01 0.  1.
         11    1    4    4    0    0  0.22341844825E+02 -0.87872103489E+01 -0.16872217589E+03  0.17042167037E+03  0.00000000000E+00 0. -1.
        -12    1    4    4    0    0 -0.41484736252E+02  0.20638805743E+02 -0.86068474281E+02  0.97748278294E+02  0.00000000000E+00 0.  1.
</event>
<event>
12    1  0.8728348E-002  0.1993879E+03  0.7818608E-02  0.1151327E+00
         21   -1    0    0  503  502  0.00000000000E+00  0.00000000000E+00  0.11193528878E+03  0.11193528878E+03  0.00000000000E+00 0.  1.
         21   -1    0    0  501  503 -0.00000000000E+00 -0.00000000000E+00 -0.51432154798E+03  0.51432154798E+03  0.00000000000E+00 0.  1.
          6    2    1    2  501    0  0.10010456742E+03 -0.11006389306E+02 -0.37842015694E+03  0.42543380522E+03  0.16628301905E+03 0.  0.
         24    2    3    3    0    0  0.97320969129E+02  0.44212555593E+02 -0.21841501246E+03  0.25608027985E+03  0.80286181602E+02 0.  0.
         -6    2    1    2    0  502 -0.10010456742E+03  0.11006389306E+02 -0.23966102252E+02  0.20082303153E+03  0.17208559182E+03 0.  0.
        -24    2    5    5    0    0 -0.40470051162E+02  0.36651643402E+02 -0.70834459648E+02  0.12061899478E+03  0.80933634678E+02 0.  0.
          5    1    3    3  501    0  0.27835982874E+01 -0.55218944899E+02 -0.16000514449E+03  0.16935352538E+03  0.47000000000E+01 0. -1.
        -11    1    4    4    0    0  0.50071516919E+02 -0.19900655375E+02 -0.94368683563E+02  0.10866757257E+03  0.00000000000E+00 0.  1.
         12    1    4    4    0    0  0.47249452210E+02  0.64113210969E+02 -0.12404632890E+03  0.14741270728E+03  0.00000000000E+00 0. -1.
         -5    1    5    5    0  502 -0.59634516254E+02 -0.25645254096E+02  0.46868357397E+02  0.80204036754E+02  0.47000000000E+01 0.  1.
         11    1    6    6    0    0  0.13591386255E+02 -0.16174047519E+02 -0.22690434945E+02  0.31002926176E+02  0.00000000000E+00 0. -1.
        -12    1    6    6    0    0 -0.54061437417E+02  0.52825690921E+02 -0.48144024704E+02  0.89616068601E+02  0.00000000000E+00 0.  1.
</event>
<event>
12    1  0.8728348E-002  0.2147032E+03  0.7818608E-02  0.1138289E+00
         21   -1    0    0  501  502  0.00000000000E+00  0.00000000000E+00  0.57293613794E+03  0.57293613794E+03  0.00000000000E+00 0.  1.
         21   -1    0    0  502  503 -0.00000000000E+00 -0.00000000000E+00 -0.89669978707E+02  0.89669978707E+02  0.00000000000E+00 0.  1.
         -6    2    1    2    0  503 -0.99607627167E+02 -0.74469087405E+02  0.13216300458E+03  0.25212009120E+03  0.17501473149E+03 0.  0.
        -24    2    3    3    0    0 -0.10163184104E+03  0.40549336460E+00  0.12037940156E+03  0.17615138983E+03  0.78796676850E+02 0.  0.
          6    2    1    2  501    0  0.99607627167E+02  0.74469087405E+02  0.35110315465E+03  0.41048602545E+03  0.17250515213E+03 0.  0.
         24    2    5    5    0    0  0.69196018865E+02 -0.21981112672E+02  0.22134212149E+03  0.24590315045E+03  0.78770339054E+02 0.  0.
          5    1    5    5  501    0  0.30411608302E+02  0.96450200077E+02  0.12976103317E+03  0.16458287500E+03  0.47000000000E+01 0. -1.
        -11    1    6    6    0    0  0.78619965369E+02  0.51846935837E+00  0.13545101066E+03  0.15661527401E+03  0.00000000000E+00 0.  1.
         12    1    6    6    0    0 -0.94239465041E+01 -0.22499582030E+02  0.85891110828E+02  0.89287876436E+02  0.00000000000E+00 0. -1.
         -5    1    3    3    0  503  0.20242138681E+01 -0.74874580770E+02  0.11783603016E+02  0.75968701366E+02  0.47000000000E+01 0.  1.
         11    1    4    4    0    0 -0.63528927883E+00 -0.28006958126E+01  0.56570615623E+02  0.56643464243E+02  0.00000000000E+00 0. -1.
        -12    1    4    4    0    0 -0.10099655176E+03  0.32061891772E+01  0.63808785938E+02  0.11950792559E+03  0.00000000000E+00 0.  1.
</event>
<event>
12    1  0.8728348E-002  0.1827755E+03  0.7818608E-02  0.1166127E+00
         21   -1    0    0  503  502  0.00000000000E+00  0.00000000000E+00  0.16994364411E+03  0.16994364411E+03  0.00000000000E+00 0. -1.
         21   -1    0    0  501  503 -0.00000000000E+00 -0.00000000000E+00 -0.19234821389E+03  0.19234821389E+03  0.00000000000E+00 0. -1.
          6    2    1    2  501    0  0.30578818397E+02  0.29379941026E+02 -0.16197769971E+02  0.17941103024E+03  0.17357334171E+03 0.  0.
         24    2    3    3    0    0  0.27453886392E+02 -0.34198071736E+02 -0.51003398222E+02  0.10670992527E+03  0.82839830587E+02 0.  0.
         -6    2    1    2    0  502 -0.30578818397E+02 -0.29379941026E+02 -0.62067998097E+01  0.18288082775E+03  0.17778815407E+03 0.  0.
        -24    2    5    5    0    0 -0.81965519603E+02  0.42208396331E+01 -0.26564439940E+02  0.11802615149E+03  0.80550239447E+02 0.  0.
          5    1    3    3  501    0  0.31249320050E+01  0.63578012761E+02  0.34805628251E+02  0.72701104976E+02  0.47000000000E+01 0. -1.
        -13    1    4    4    0    0 -0.28729836170E+02 -0.20276074391E+02 -0.13120378382E+02  0.37532212937E+02  0.00000000000E+00 0.  1.
         14    1    4    4    0    0  0.56183722562E+02 -0.13921997345E+02 -0.37883019840E+02  0.69177712330E+02  0.00000000000E+00 0. -1.
         -5    1    5    5    0  502  0.51386701206E+02 -0.33600780659E+02  0.20357640130E+02  0.64854676265E+02  0.47000000000E+01 0.  1.
         11    1    6    6    0    0 -0.37097543934E+02 -0.29600074263E+02  0.13117946098E+02  0.49238934515E+02  0.00000000000E+00 0. -1.
        -12    1    6    6    0    0 -0.44867975669E+02  0.33820913896E+02 -0.39682386038E+02  0.68787216974E+02  0.00000000000E+00 0.  1.
</event>
<event>
12    1  0.8728348E-002  0.2081192E+03  0.7818608E-02  0.1143262E+00
         21   -1    0    0  503  502  0.00000000000E+00  0.00000000000E+00  0.16814289153E+03  0.16814289153E+03  0.00000000000E+00 0.  1.
         21   -1    0    0  501  503 -0.00000000000E+00 -0.00000000000E+00 -0.27978819394E+03  0.27978819394E+03  0.00000000000E+00 0.  1.
          6    2    1    2  501    0 -0.61964470837E+02 -0.99811023429E+02 -0.12072532234E+03  0.24059966270E+03  0.17178986638E+03 0.  0.
         24    2    3    3    0    0 -0.56427278052E+02 -0.13587004415E+03 -0.11669413393E+03  0.20359623098E+03  0.78671454597E+02 0.  0.
         -6    2    1    2    0  502  0.61964470837E+02  0.99811023429E+02  0.90800199308E+01  0.20733142277E+03  0.17059318879E+03 0.  0.
        -24    2    5    5    0    0  0.22487968706E+02 -0.13069749229E+02  0.28932575646E+02  0.86019110840E+02  0.76718097049E+02 0.  0.
          5    1    3    3  501    0 -0.55371927847E+01  0.36059020719E+02 -0.40311884067E+01  0.37003431721E+02  0.47000000000E+01 0. -1.
        -11    1    4    4    0    0 -0.40169494977E+02 -0.10163906775E+03 -0.37053956109E+02  0.11539967107E+03  0.00000000000E+00 0.  1.
         12    1    4    4    0    0 -0.16257783075E+02 -0.34230976401E+02 -0.79640177825E+02  0.88196559910E+02  0.00000000000E+00 0. -1.
         -5    1    5    5    0  502  0.39476502131E+02  0.11288077266E+03 -0.19852555715E+02  0.12131231193E+03  0.47000000000E+01 0.  1.
         13    1    6    6    0    0  0.18123253019E+02 -0.35493238336E+02 -0.98107668947E+01  0.41042336856E+02  0.00000000000E+00 0. -1.
        -14    1    6    6    0    0  0.43647156863E+01  0.22423489107E+02  0.38743342541E+02  0.44976773984E+02  0.00000000000E+00 0.  1.
</event>
<event>
12    1  0.8728348E-002  0.1751977E+03  0.7818608E-02  0.1172587E+00
         21   -1    0    0  501  502  0.00000000000E+00  0.00000000000E+00  0.78975963585E+03  0.78975963585E+03  0.00000000000E+00 0. -1.
         21   -1    0    0  502  503 -0.00000000000E+00 -0.00000000000E+00 -0.60144809918E+02  0.60144809918E+02  0.00000000000E+00 0. -1.
         -6    2    1    2    0  503 -0.26050444709E+02 -0.18838974668E+02  0.11190133235E+03  0.20788489460E+03  0.17222278765E+03 0.  0.
        -24    2    3    3    0    0 -0.11929403401E+02  0.31714068140E+02  0.33291377929E+01  0.87199247665E+02  0.80277847825E+02 0.  0.
          6    2    1    2  501    0  0.26050444709E+02  0.18838974668E+02  0.61771349358E+03  0.64201955117E+03  0.17200468394E+03 0.  0.
         24    2    5    5    0    0  0.25299597111E+01  0.76793336223E+02  0.35228100834E+03  0.36927715355E+03  0.79750173120E+02 0.  0.
          5    1    5    5  501    0  0.23520484998E+02 -0.57954361555E+02  0.26543248525E+03  0.27274239762E+03  0.47000000000E+01 0. -1.
        -13    1    6    6    0    0  0.31313958618E+00 -0.45841202453E+01 -0.25310727431E+01  0.52458120491E+01  0.00000000000E+00 0.  1.
         14    1    6    6    0    0  0.22168201249E+01  0.81377456468E+02  0.35481208108E+03  0.36403134150E+03  0.00000000000E+00 0. -1.
         -5    1    3    3    0  503 -0.14121041308E+02 -0.50553042808E+02  0.10857219456E+03  0.12068564693E+03  0.47000000000E+01 0.  1.
         11    1    4    4    0    0 -0.11381831488E+02  0.13135056768E+02 -0.38053120182E+02  0.41834384900E+02  0.00000000000E+00 0. -1.
        -12    1    4    4    0    0 -0.54757191275E+00  0.18579011372E+02  0.41382257975E+02  0.45364862765E+02  0.00000000000E+00 0.  1.
</event>
<event>
12    1  0.8728348E-002  0.2299396E+03  0.7818608E-02  0.1127085E+00
         21   -1    0    0  503  502  0.00000000000E+00  0.00000000000E+00  0.13089565832E+03  0.13089565832E+03  0.00000000000E+00 0.  1.
         21   -1    0    0  501  503 -0.00000000000E+00 -0.00000000000E+00 -0.49797850965E+03  0.49797850965E+03  0.00000000000E+00 0. -1.
          6    2    1    2  501    0  0.12368686129E+03 -0.83225272569E+02 -0.32232481914E+03  0.39461894290E+03  0.17206375391E+03 0.  0.
         24    2    3    3    0    0  0.81224155353E+02 -0.87749799870E+02 -0.12147018305E+03  0.18922121267E+03  0.82172204328E+02 0.  0.
         -6    2    1    2    0  502 -0.12368686129E+03  0.83225272569E+02 -0.44758032193E+02  0.23425522508E+03  0.17506382659E+03 0.  0.
        -24    2    5    5    0    0 -0.87996141346E+02  0.10653417367E+03 -0.80317802632E+02  0.17854418816E+03  0.79587854948E+02 0.  0.
          5    1    3    3  501    0  0.42462705937E+02  0.45245273012E+01 -0.20085463609E+03  0.20539773023E+03  0.47000000000E+01 0. -1.
        -13    1    4    4    0    0  0.54810847771E+02 -0.40304426462E+01 -0.30732998486E+02  0.62968172097E+02  0.00000000000E+00 0.  1.
         14    1    4    4    0    0  0.26413307582E+02 -0.83719357224E+02 -0.90737184561E+02  0.12625304057E+03  0.00000000000E+00 0. -1.
         -5    1    5    5    0  502 -0.35690719944E+02 -0.23308901099E+02  0.35559770439E+02  0.55711036916E+02  0.47000000000E+01 0.  1.
         11    1    6    6    0    0 -0.31912152486E+02  0.97094002912E+02 -0.57467940620E+02  0.11725269753E+03  0.00000000000E+00 0. -1.
        -12    1    6    6    0    0 -0.56083988859E+02  0.94401707553E+01 -0.22849862011E+02  0.61291490634E+02  0.00000000000E+00 0.  1.
</event>
<event>
12    1  0.8728348E-002  0.2118730E+03  0.7818608E-02  0.1141320E+00
         21   -1    0    0  501  502  0.00000000000E+00  0.00000000000E+00  0.11555145566E+03  0.11555145566E+03  0.00000000000E+00 0.  1.
         21   -1    0    0  502  503 -0.00000000000E+00 -0.00000000000E+00 -0.40553441250E+03  0.40553441250E+03  0.00000000000E+00 0.  1.
         -6    2    1    2    0  503 -0.11185130983E+03 -0.13932178971E+02 -0.78173582144E+02  0.22583466824E+03  0.17940280743E+03 0.  0.
        -24    2    3    3    0    0 -0.48665915924E+02 -0.73700490384E+02 -0.40043309200E+02  0.13075232094E+03  0.87707292543E+02 0.  0.
          6    2    1    2  501    0  0.11185130983E+03  0.13932178971E+02 -0.21180937470E+03  0.29525119992E+03  0.17206172939E+03 0.  0.
         24    2    5    5    0    0  0.13678728915E+03 -0.20149442648E+02 -0.15080344761E+03  0.22090623951E+03  0.83313410290E+02 0.  0.
          5    1    5    5  501    0 -0.24935979319E+02  0.34081621619E+02 -0.61005927096E+02  0.74344960405E+02  0.47000000000E+01 0. -1.
        -11    1    6    6    0    0  0.64660758152E+02 -0.52685062670E+01 -0.15256835139E+02  0.66644893439E+02  0.00000000000E+00 0.  1.
         12    1    6    6    0    0  0.72126530998E+02 -0.14880936381E+02 -0.13554661247E+03  0.15426134607E+03  0.00000000000E+00 0. -1.
         -5    1    3    3    0  503 -0.63185393908E+02  0.59768311413E+02 -0.38130272944E+02  0.95082347295E+02  0.47000000000E+01 0.  1.
         11    1    4    4    0    0  0.15953067061E+02 -0.52645372978E+02 -0.79072519123E+01  0.55574816936E+02  0.00000000000E+00 0. -1.
        -12    1    4    4    0    0 -0.64618982985E+02 -0.21055117405E+02 -0.32136057287E+02  0.75177504009E+02  0.00000000000E+00 0.  1.
</event>
<event>
12    1  0.8728348E-002  0.2178661E+03  0.7818608E-02  0.1135662E+00
         21   -1    0    0  503  502  0.00000000000E+00  0.00000000000E+00  0.69279168296E+03  0.69279168296E+03  0.00000000000E+00 0.  1.
         21   -1    0    0  501  503 -0.00000000000E+00 -0.00000000000E+00 -0.10735019160E+03  0.10735019160E+03  0.00000000000E+00 0.  1.
          6    2    1    2  501    0  0.11125294452E+03  0.73578221422E+02  0.51577163410E+02  0.22388798820E+03  0.17226333081E+03 0.  0.
         24    2    3    3    0    0  0.10761193431E+03  0.79922085655E+02 -0.11962292317E+02  0.15975645147E+03  0.86088089585E+02 0.  0.
         -6    2    1    2    0  502 -0.11125294452E+03 -0.73578221422E+02  0.53386432795E+03  0.57625388636E+03  0.17107439478E+03 0.  0.
        -24    2    5    5    0    0  0.72231697617E+01 -0.19838422183E+02  0.24253388971E+03  0.25716131370E+03  0.82846342284E+02 0.  0.
          5    1    3    3  501    0  0.36410102134E+01 -0.63438642330E+01  0.63539455727E+02  0.64131536726E+02  0.47000000000E+01 0. -1.
        -13    1    4    4    0    0  0.37564534702E+02  0.66098119150E+02  0.24116575879E+02  0.79760045478E+02  0.00000000000E+00 0.  1.
         14    1    4    4    0    0  0.70047399606E+02  0.13823966505E+02 -0.36078868197E+02  0.79996405993E+02  0.00000000000E+00 0. -1.
         -5    1    5    5    0  502 -0.11847611428E+03 -0.53739799239E+02  0.29133043824E+03  0.31909257266E+03  0.47000000000E+01 0.  1.
         13    1    6    6    0    0 -0.15682985764E+01 -0.15900828016E+01 -0.67222262168E+01  0.70835195384E+01  0.00000000000E+00 0. -1.
        -14    1    6    6    0    0  0.87914683381E+01 -0.18248339381E+02  0.24925611593E+03  0.25007779416E+03  0.00000000000E+00 0.  1.
</event>
<event>
12    1  0.8728348E-002  0.1797038E+03  0.7818608E-02  0.1168125E+00
         21   -1    0    0  501  502  0.00000000000E+00  0.00000000000E+00  0.65283300145E+03  0.65283300145E+03  0.00000000000E+00 0. -1.
         21   -1    0    0  502  503 -0.00000000000E+00 -0.00000000000E+00 -0.59617973960E+02  0.59617973960E+02  0.00000000000E+00 0.  1.
         -6    2    1    2    0  503  0.39882583248E+02  0.34543266791E+02  0.14922328601E+03  0.23347068629E+03  0.17163075057E+03 0.  0.
        -24    2    3    3    0    0 -0.19998094737E+02 -0.89875242865E+01  0.12125571598E+03  0.15419332292E+03  0.92692679279E+02 0.  0.
          6    2    1    2  501    0 -0.39882583248E+02 -0.34543266791E+02  0.44399174148E+03  0.47898028913E+03  0.17178356482E+03 0.  0.
         24    2    5    5    0    0 -0.27387210484E+02 -0.27975618984E+02  0.45308311828E+03  0.46154436442E+03  0.78779398963E+02 0.  0.
          5    1    5    5  501    0 -0.12495372764E+02 -0.65676478070E+01 -0.90913768010E+01  0.17435924706E+02  0.47000000000E+01 0. -1.
        -11    1    6    6    0    0  0.26223296402E+02 -0.70371862623E+01  0.92700074586E+02  0.96594446492E+02  0.00000000000E+00 0.  1.
         12    1    6    6    0    0 -0.53610506886E+02 -0.20938432722E+02  0.36038304370E+03  0.36494991793E+03  0.00000000000E+00 0. -1.
         -5    1    3    3    0  503  0.59880677985E+02  0.43530791078E+02  0.27967570035E+02  0.79277363361E+02  0.47000000000E+01 0.  1.
         11    1    4    4    0    0  0.31845031923E+02 -0.55160384124E+01  0.84718222794E+02  0.90673645627E+02  0.00000000000E+00 0. -1.
        -12    1    4    4    0    0 -0.51843126659E+02 -0.34714858741E+01  0.36537493181E+02  0.63519677298E+02  0.00000000000E+00 0.  1.
</event>
<event>
12    1  0.8728348E-002  0.1873556E+03  0.7818608E-02  0.1160898E+00
         21   -1    0    0  503  502  0.00000000000E+00  0.00000000000E+00  0.58948678735E+02  0.58948678735E+02  0.00000000000E+00 0. -1.
         21   -1    0    0  501  503 -0.00000000000E+00 -0.00000000000E+00 -0.71616273279E+03  0.71616273279E+03  0.00000000000E+00 0. -1.
          6    2    1    2  501    0  0.44233762982E+02 -0.60018104711E+02 -0.48807746335E+03  0.52280181578E+03  0.17188173163E+03 0.  0.
         24    2    3    3    0    0  0.17447799900E+02  0.23181722908E+01 -0.10257325558E+03  0.13134443182E+03  0.80126695705E+02 0.  0.
         -6    2    1    2    0  502 -0.44233762982E+02  0.60018104711E+02 -0.16913659070E+03  0.25230959574E+03  0.17173860111E+03 0.  0.
        -24    2    5    5    0    0 -0.74988678004E+02  0.12567319086E+02 -0.15687585799E+03  0.19425912270E+03  0.85704915806E+02 0.  0.
          5    1    3    3  501    0  0.26785963081E+02 -0.62336277002E+02 -0.38550420777E+03  0.39145738396E+03  0.47000000000E+01 0. -1.
        -11    1    4    4    0    0  0.18615480621E+02 -0.24679824639E+02 -0.65611649281E+01  0.31601878871E+02  0.00000000000E+00 0.  1.
         12    1    4    4    0    0 -0.11676807207E+01  0.26997996930E+02 -0.96012090653E+02  0.99742552945E+02  0.00000000000E+00 0. -1.
         -5    1    5    5    0  502  0.30754915023E+02  0.47450785625E+02 -0.12260732711E+02  0.58050473048E+02  0.47000000000E+01 0.  1.
         13    1    6    6    0    0  0.13345575032E+02 -0.20638391205E+01  0.14341016224E+00  0.13504975799E+02  0.00000000000E+00 0. -1.
        -14    1    6    6    0    0 -0.88334253037E+02  0.14631158206E+02 -0.15701926815E+03  0.18075414690E+03  0.00000000000E+00 0.  1.
</event>
<event>
12    1  0.8728348E-002  0.1855954E+03  0.7818608E-02  0.1162961E+00
         21   -1    0    0  503  502  0.00000000000E+00  0.00000000000E+00  0.71798863234E+03  0.71798863234E+03  0.00000000000E+00 0. -1.
         21   -1    0    0  501  503 -0.00000000000E+00 -0.00000000000E+00 -0.56156163848E+02  0.56156163848E+02  0.00000000000E+00 0. -1.
          6    2    1    2  501    0  0.64854325343E+02 -0.25247581948E+02  0.17709707412E+03  0.25509368515E+03  0.16989964871E+03 0.  0.
         24    2    3    3    0    0  0.84823248938E+02 -0.32343305949E+02  0.19305576282E+03  0.22815158142E+03  0.80879809251E+02 0.  0.
         -6    2    1    2    0  502 -0.64854325343E+02  0.25247581948E+02  0.48473539437E+03  0.51905111104E+03  0.17205269369E+03 0.  0.
        -24    2    5    5    0    0 -0.71417620523E-01  0.68184769821E+02  0.23974380435E+03  0.26198420065E+03  0.80681235313E+02 0.  0.
          5    1    3    3  501    0 -0.19968923595E+02  0.70957240014E+01 -0.15958688697E+02  0.26942103734E+02  0.47000000000E+01 0. -1.
        -11    1    4    4    0    0  0.90142556090E+02 -0.44894121881E+02  0.13445380488E+03  0.16798508340E+03  0.00000000000E+00 0.  1.
         12    1    4    4    0    0 -0.53193071522E+01  0.12550815932E+02  0.58601957943E+02  0.60166498019E+02  0.00000000000E+00 0. -1.
         -5    1    5    5    0  502 -0.64782907722E+02 -0.42937187873E+02  0.24499159002E+03  0.25706691039E+03  0.47000000000E+01 0.  1.
         13    1    6    6    0    0  0.13068401861E+02 -0.68733572292E+01  0.11401257376E+03  0.11496474739E+03  0.00000000000E+00 0. -1.
        -14    1    6    6    0    0 -0.13139819482E+02  0.75058127050E+02  0.12573123058E+03  0.14701945326E+03  0.00000000000E+00 0.  1.
</event>
<event>
12    1  0.8728348E-002  0.2164601E+03  0.7818608E-02  0.1136595E+00
         21   -1    0    0  503  502  0.00000000000E+00  0.00000000000E+00  0.50893627107E+03  0.50893627107E+03  0.00000000000E+00 0.  1.
         21   -1    0    0  501  503 -0.00000000000E+00 -0.00000000000E+00 -0.15535997858E+03  0.15535997858E+03  0.00000000000E+00 0. -1.
          6    2    1    2  501    0 -0.66222617929E+02  0.11499638032E+03 -0.35443872357E+02  0.21910900669E+03  0.17071287624E+03 0.  0.
         24    2    3    3    0    0 -0.53408579483E+02  0.12388657412E+03 -0.76876666580E+02  0.17458933055E+03  0.79818875386E+02 0.  0.
         -6    2    1    2    0  502  0.66222617929E+02 -0.11499638032E+03  0.38902016485E+03  0.44518724295E+03  0.17101283582E+03 0.  0.
        -24    2    5    5    0    0 -0.31218227347E+02 -0.71953980694E+02  0.14906076913E+03  0.18260398361E+03  0.70520556431E+02 0.  0.
          5    1    3    3  501    0 -0.12814038446E+02 -0.88901937974E+01  0.41432794223E+02  0.44519676147E+02  0.47000000000E+01 0. -1.
        -11    1    4    4    0    0 -0.48909365621E+02  0.58288983288E+02 -0.36543660445E+01  0.76177989008E+02  0.00000000000E+00 0.  1.
         12    1    4    4    0    0 -0.44992138625E+01  0.65597590828E+02 -0.73222300535E+02  0.98411341539E+02  0.00000000000E+00 0. -1.
         -5    1    5    5    0  502  0.97440845276E+02 -0.43042399625E+02  0.23995939572E+03  0.26258325934E+03  0.47000000000E+01 0.  1.
         13    1    6    6    0    0  0.17746795337E+02 -0.42848040610E+02  0.49016577357E+02  0.67479835393E+02  0.00000000000E+00 0. -1.
        -14    1    6    6    0    0 -0.48965022684E+02 -0.29105940084E+02  0.10004419177E+03  0.11512414822E+03  0.00000000000E+00 0.  1.
</event>
<event>
12    1  0.8728348E-002  0.1821470E+03  0.7818608E-02  0.1166346E+00
         21   -1    0    0  501  502  0.00000000000E+00  0.00000000000E+00  0.11185230556E+03  0.11185230556E+03  0.00000000000E+00 0.  1.
         21   -1    0    0  502  503 -0.00000000000E+00 -0.00000000000E+00 -0.33107008949E+03  0.33107008949E+03  0.00000000000E+00 0.  1.
         -6    2    1    2    0  503 -0.45676240440E+02 -0.37312909076E+02 -0.34722917220E+02  0.18542713344E+03  0.17233388729E+03 0.  0.
        -24    2    3    3    0    0 -0.22780447889E+02  0.40721729992E+02  0.98040343651E+01  0.92592002003E+02  0.79372234727E+02 0.  0.
          6    2    1    2  501    0  0.45676240440E+02  0.37312909076E+02 -0.18449486671E+03  0.25749526162E+03  0.16966697318E+03 0.  0.
         24    2    5    5    0    0  0.37678439866E+02  0.73284936064E+02 -0.17174159655E+03  0.21821820166E+03  0.10645966777E+03 0.  0.
          5    1    5    5  501    0  0.79978005738E+01 -0.35972026988E+02 -0.12753270157E+02  0.39277059963E+02  0.47000000000E+01 0. -1.
        -13    1    6    6    0    0  0.65060013302E+02  0.33658960425E+02 -0.53995303508E+02  0.91001229380E+02  0.00000000000E+00 0.  1.
         14    1    6    6    0    0 -0.27381573436E+02  0.39625975639E+02 -0.11774629304E+03  0.12721697228E+03  0.00000000000E+00 0. -1.
         -5    1    3    3    0  503 -0.22895792550E+02 -0.78034639068E+02 -0.44526951585E+02  0.92835131434E+02  0.47000000000E+01 0.  1.
         13    1    4    4    0    0  0.17453078346E+01  0.39094975345E+02 -0.27562482064E+02  0.47865996429E+02  0.00000000000E+00 0. -1.
        -14    1    4    4    0    0 -0.24525755724E+02  0.16267546472E+01  0.37366516429E+02  0.44726005574E+02  0.00000000000E+00 0.  1.
</event>
<event>
12    1  0.8728348E-002  0.1752838E+03  0.7818608E-02  0.1172531E+00
         21   -1    0    0  503  502  0.00000000000E+00  0.00000000000E+00  0.16534769606E+04  0.16534769606E+04  0.00000000000E+00 0.  1.
         21   -1    0    0  501  503 -0.00000000000E+00 -0.00000000000E+00 -0.74661246381E+02  0.74661246381E+02  0.00000000000E+00 0.  1.
          6    2    1    2  501    0  0.30473374809E+02  0.12082244168E+02  0.40494482522E+02  0.17990053508E+03  0.17219115021E+03 0.  0.
         24    2    3    3    0    0  0.44659306333E+02 -0.38339359479E+02  0.68767193088E+02  0.12019278910E+03  0.79076036695E+02 0.  0.
         -6    2    1    2    0  502 -0.30473374809E+02 -0.12082244168E+02  0.15383212317E+04  0.15482376719E+04  0.17185188273E+03 0.  0.
        -24    2    5    5    0    0 -0.69126271281E+01 -0.56373316596E+02  0.54369146835E+03  0.55233242336E+03  0.79025046034E+02 0.  0.
          5    1    3    3  501    0 -0.14185931523E+02  0.50421603647E+02 -0.28272710566E+02  0.59707745982E+02  0.47000000000E+01 0. -1.
        -13    1    4    4    0    0  0.39727189036E+02 -0.64493223192E+01 -0.41437938601E+01  0.40460033794E+02  0.00000000000E+00 0.  1.
         14    1    4    4    0    0  0.49321172969E+01 -0.31890037159E+02  0.72910986948E+02  0.79732755307E+02  0.00000000000E+00 0. -1.
         -5    1    5    5    0  502 -0.23560747681E+02  0.44291072428E+02  0.99462976340E+03  0.99590524859E+03  0.47000000000E+01 0.  1.
         11    1    6    6    0    0 -0.29251694995E+02 -0.27684696101E+02  0.45053213824E+03  0.45232876500E+03  0.00000000000E+00 0. -1.
        -12    1    6    6    0    0  0.22339067867E+02 -0.28688620495E+02  0.93159330104E+02  0.10000365836E+03  0.00000000000E+00 0.  1.
</event>
<event>
12    1  0.8728348E-002  0.1926756E+03  0.7818608E-02  0.1156708E+00
         21   -1    0    0  503  502  0.00000000000E+00  0.00000000000E+00  0.11438366553E+04  0.11438366553E+04  0.00000000000E+00 0. -1.
         21   -1    0    0  501  503 -0.00000000000E+00 -0.00000000000E+00 -0.32624648896E+02  0.32624648896E+02  0.00000000000E+00 0.  1.
          6    2    1    2  501    0  0.73529419107E+02  0.36827566845E+02  0.47674111091E+03  0.51420422811E+03  0.17424424301E+03 0.  0.
         24    2    3    3    0    0  0.74156567631E+02  0.69398553206E+02  0.21875403910E+03  0.25412600586E+03  0.80070853141E+02 0.  0.
         -6    2    1    2    0  502 -0.73529419107E+02 -0.36827566845E+02  0.63447089549E+03  0.66225707608E+03  0.17107972539E+03 0.  0.
        -24    2    5    5    0    0 -0.40705840254E+02 -0.39661747212E+02  0.16551323635E+03  0.19212007906E+03  0.79280979724E+02 0.  0.
          5    1    3    3  501    0 -0.62714852446E+00 -0.32570986361E+02  0.25798707181E+03  0.26007822225E+03  0.47000000000E+01 0. -1.
        -13    1    4    4    0    0  0.15583598976E+02 -0.15273659058E+02  0.17148743101E+02  0.27752704517E+02  0.00000000000E+00 0.  1.
         14    1    4    4    0    0  0.58572968656E+02  0.84672212264E+02  0.20160529600E+03  0.22637330134E+03  0.00000000000E+00 0. -1.
         -5    1    5    5    0  502 -0.32823578853E+02  0.28341803666E+01  0.46895765914E+03  0.47013699703E+03  0.47000000000E+01 0.  1.
         13    1    6    6    0    0  0.86729406521E+01 -0.46848740587E+02  0.81663561630E+02  0.94546082374E+02  0.00000000000E+00 0. -1.
        -14    1    6    6    0    0 -0.49378780906E+02  0.71869933749E+01  0.83849674721E+02  0.97573996682E+02  0.00000000000E+00 0.  1.
</event>
<event>
12    1  0.8728348E-002  0.1973378E+03  0.7818608E-02  0.1152088E+00
         21   -1    0    0  501  502  0.00000000000E+00  0.00000000000E+00  0.35991420234E+02  0.35991420234E+02  0.00000000000E+00 0.  1.
         21   -1    0    0  502  503 -0.00000000000E+00 -0.00000000000E+00 -0.13143031928E+04  0.13143031928E+04  0.00000000000E+00 0. -1.
         -6    2    1    2    0  503 -0.95350198251E+02 -0.86906656208E+01 -0.92378881461E+03  0.94454996243E+03  0.17210946965E+03 0.  0.
        -24    2    3    3    0    0 -0.12586059274E+03  0.71761314666E+01 -0.57678513948E+03  0.59581470471E+03  0.80135382659E+02 0.  0.
          6    2    1    2  501    0  0.95350198251E+02  0.86906656208E+01 -0.35452295790E+03  0.40574465056E+03  0.17255435607E+03 0.  0.
         24    2    5    5    0    0  0.74065731424E+02  0.42400123523E+02 -0.34655697572E+03  0.36481907234E+03  0.75549421416E+02 0.  0.
          5    1    5    5  501    0  0.21284466827E+02 -0.33709457903E+02 -0.79659821833E+01  0.40925578216E+02  0.47000000000E+01 0. -1.
        -11    1    6    6    0    0  0.58448003811E+02 -0.96468633840E+01 -0.19596548423E+03  0.20472347724E+03  0.00000000000E+00 0.  1.
         12    1    6    6    0    0  0.15617727613E+02  0.52046986907E+02 -0.15059149149E+03  0.16009559510E+03  0.00000000000E+00 0. -1.
         -5    1    3    3    0  503  0.30510394487E+02 -0.15866797087E+02 -0.34700367513E+03  0.34873525772E+03  0.47000000000E+01 0.  1.
         13    1    4    4    0    0 -0.12350090860E+03  0.34829502421E+01 -0.57816610103E+03  0.59121962564E+03  0.00000000000E+00 0. -1.
        -14    1    4    4    0    0 -0.23596841398E+01  0.36931812245E+01  0.13809615499E+01  0.45950790634E+01  0.00000000000E+00 0.  1.
</event>
<event>
12    1  0.8728348E-002  0.2774507E+03  0.7818608E-02  0.1097124E+00
         21   -1    0    0  503  502  0.00000000000E+00  0.00000000000E+00  0.49794870791E+03  0.49794870791E+03  0.00000000000E+00 0.  1.
         21   -1    0    0  501  503 -0.00000000000E+00 -0.00000000000E+00 -0.15476336339E+03  0.15476336339E+03  0.00000000000E+00 0.  1.
          6    2    1    2  501    0  0.15995421869E+02  0.21683478706E+03  0.15702597610E+03  0.31880409008E+03  0.17235345162E+03 0.  0.
         24    2    3    3    0    0 -0.14440758280E+02  0.22174789928E+03  0.10565437442E+03  0.25870724165E+03  0.79911974767E+02 0.  0.
         -6    2    1    2    0  502 -0.15995421869E+02 -0.21683478706E+03  0.18615936842E+03  0.33390798121E+03  0.17194781496E+03 0.  0.
        -24    2    5    5    0    0 -0.32279193243E+02 -0.57398564880E+02  0.21740162174E+02  0.10425425158E+03  0.77844542227E+02 0.  0.
          5    1    3    3  501    0  0.30436180149E+02 -0.49131122226E+01  0.51371601672E+02  0.60096848437E+02  0.47000000000E+01 0. -1.
        -11    1    4    4    0    0 -0.41910217655E+02  0.11611847780E+03  0.78303480284E+02  0.14618961063E+03  0.00000000000E+00 0.  1.
         12    1    4    4    0    0  0.27469459374E+02  0.10562942148E+03  0.27350894139E+02  0.11251763102E+03  0.00000000000E+00 0. -1.
         -5    1    5    5    0  502  0.16283771374E+02 -0.15943622218E+03  0.16441920624E+03  0.22965372963E+03  0.47000000000E+01 0.  1.
         11    1    6    6    0    0 -0.18642998918E+02 -0.46034169268E+02  0.50261208720E+02  0.70660422097E+02  0.00000000000E+00 0. -1.
        -12    1    6    6    0    0 -0.13636194325E+02 -0.11364395612E+02 -0.28521046546E+02  0.33593829483E+02  0.00000000000E+00 0.  1.
</event>
<event>
12    1  0.8728348E-002  0.1871025E+03  0.7818608E-02  0.1161305E+00
         21   -1    0    0  503  502  0.00000000000E+00  0.00000000000E+00  0.10093124613E+04  0.10093124613E+04  0.00000000000E+00 0.  1.
         21   -1    0    0  501  503 -0.00000000000E+00 -0.00000000000E+00 -0.47656723425E+02  0.47656723425E+02  0.00000000000E+00 0.  1.
          6    2    1    2  501    0 -0.70028301212E+02 -0.71275819184E+01  0.20419060281E+03  0.27694970836E+03  0.17335678034E+03 0.  0.
         24    2    3    3    0    0  0.22696613542E+01  0.51266006566E+02  0.96956863565E+02  0.13497093741E+03  0.78633108563E+02 0.  0.
         -6    2    1    2    0  502  0.70028301212E+02  0.71275819184E+01  0.75746513503E+03  0.78001947633E+03  0.17240123918E+03 0.  0.
        -24    2    5    5    0    0 -0.20562469149E+02  0.10557637932E+02  0.21815891788E+03  0.23312667256E+03  0.78869849445E+02 0.  0.
          5    1    3    3  501    0 -0.72297962567E+02 -0.58393588484E+02  0.10723373925E+03  0.14197877095E+03  0.47000000000E+01 0. -1.
        -11    1    4    4    0    0 -0.36627172726E+02  0.11799672908E+02  0.39223654378E+02  0.54947949237E+02  0.00000000000E+00 0.  1.
         12    1    4    4    0    0  0.38896834080E+02  0.39466333658E+02  0.57733209187E+02  0.80022988177E+02  0.00000000000E+00 0. -1.
         -5    1    5    5    0  502  0.90590770362E+02 -0.34300560136E+01  0.53930621715E+03  0.54689280377E+03  0.47000000000E+01 0.  1.
         11    1    6    6    0    0  0.47015313863E+01  0.34037758969E+02  0.17258751835E+03  0.17597478491E+03  0.00000000000E+00 0. -1.
        -12    1    6    6    0    0 -0.25264000536E+02 -0.23480121037E+02  0.45571399529E+02  0.57151887651E+02  0.00000000000E+00 0.  1.
</event>
<event>
12    1  0.8728348E-002  0.1961155E+03  0.7818608E-02  0.1154547E+00
         21   -1    0    0  503  502  0.00000000000E+00  0.00000000000E+00  0.35915475472E+03  0.35915475472E+03  0.00000000000E+00 0.  1.
         21   -1    0    0  501  503 -0.00000000000E+00 -0.00000000000E+00 -0.10785076890E+03  0.10785076890E+03  0.00000000000E+00 0.  1.
          6    2    1    2  501    0  0.80776952457E+02  0.81162042515E+01  0.17501930553E+03  0.26285552992E+03  0.17852306148E+03 0.  0.
         24    2    3    3    0    0  0.48393747309E+02  0.63014601411E+02  0.16350814755E+03  0.19791630645E+03  0.78250592802E+02 0.  0.
         -6    2    1    2    0  502 -0.80776952457E+02 -0.81162042515E+01  0.76284680292E+02  0.20414999370E+03  0.17107623640E+03 0.  0.
        -24    2    5    5    0    0 -0.73114052949E-01  0.32218197263E+02  0.46919819086E+00  0.86209115268E+02  0.79961076955E+02 0.  0.
          5    1    3    3  501    0  0.32383205148E+02 -0.54898397160E+02  0.11511157981E+02  0.64939223466E+02  0.47000000000E+01 0. -1.
        -11    1    4    4    0    0  0.69621035874E+02  0.45053055650E+02  0.13205558723E+03  0.15593442397E+03  0.00000000000E+00 0.  1.
         12    1    4    4    0    0 -0.21227288565E+02  0.17961545762E+02  0.31452560315E+02  0.41981882478E+02  0.00000000000E+00 0. -1.
         -5    1    5    5    0  502 -0.80703838404E+02 -0.40334401514E+02  0.75815482102E+02  0.11794087843E+03  0.47000000000E+01 0.  1.
         13    1    6    6    0    0 -0.21372152315E+02  0.14690964659E+02  0.34018209409E+02  0.42776534555E+02  0.00000000000E+00 0. -1.
        -14    1    6    6    0    0  0.21299038262E+02  0.17527232604E+02 -0.33549011218E+02  0.43432580712E+02  0.00000000000E+00 0.  1.
</event>
<event>
12    1  0.8728348E-002  0.1857078E+03  0.7818608E-02  0.1162927E+00
         21   -1    0    0  501  502  0.00000000000E+00  0.00000000000E+00  0.23611091374E+03  0.23611091374E+03  0.00000000000E+00 0. -1.
         21   -1    0    0  502  503 -0.00000000000E+00 -0.00000000000E+00 -0.77206124861E+03  0.77206124861E+03  0.00000000000E+00 0. -1.
         -6    2    1    2    0  503  0.55108446024E+02  0.45324292076E+02 -0.72221863540E+03  0.74514505219E+03  0.16896792359E+03 0.  0.
        -24    2    3    3    0    0  0.47243805378E+02 -0.66362018735E+01 -0.64438252123E+03  0.65111156787E+03  0.80258481309E+02 0.  0.
          6    2    1    2  501    0 -0.55108446024E+02 -0.45324292076E+02  0.18626830054E+03  0.26302711017E+03  0.17145305078E+03 0.  0.
         24    2    5    5    0    0 -0.50924817169E+02 -0.95539691990E+02  0.12982006657E+03  0.18721429952E+03  0.80465983577E+02 0.  0.
          5    1    5    5  501    0 -0.41836288548E+01  0.50215399914E+02  0.56448233974E+02  0.75812810644E+02  0.47000000000E+01 0. -1.
        -13    1    6    6    0    0 -0.88234166818E+01 -0.16232877470E+02 -0.10028769316E+02  0.21022255038E+02  0.00000000000E+00 0.  1.
         14    1    6    6    0    0 -0.42101400487E+02 -0.79306814520E+02  0.13984883588E+03  0.16619204448E+03  0.00000000000E+00 0. -1.
         -5    1    3    3    0  503  0.78646406453E+01  0.51960493949E+02 -0.77836114172E+02  0.94033484320E+02  0.47000000000E+01 0.  1.
         11    1    4    4    0    0 -0.10649742827E+02  0.21332939362E+02 -0.93609396777E+02  0.96598294441E+02  0.00000000000E+00 0. -1.
        -12    1    4    4    0    0  0.57893548205E+02 -0.27969141236E+02 -0.55077312445E+03  0.55451327343E+03  0.00000000000E+00 0.  1.
</event>
<event>
12    1  0.8728348E-002  0.3099250E+03  0.7818608E-02  0.1080465E+00
         21   -1    0    0  503  502  0.00000000000E+00  0.00000000000E+00  0.46897782993E+03  0.46897782993E+03  0.00000000000E+00 0. -1.
         21   -1    0    0  501  503 -0.00000000000E+00 -0.00000000000E+00 -0.20496301980E+03  0.20496301980E+03  0.00000000000E+00 0.  1.
          6    2    1    2  501    0 -0.22621481317E+03 -0.12261012326E+03  0.11351574121E+03  0.32940710866E+03  0.17151336890E+03 0.  0.
         24    2    3    3    0    0 -0.35366717424E+02 -0.29526591222E+02  0.60724624189E+02  0.11055434624E+03  0.80075958927E+02 0.  0.
         -6    2    1    2    0  502  0.22621481317E+03  0.12261012326E+03  0.15049906893E+03  0.34453374107E+03  0.17276326278E+03 0.  0.
        -24    2    5    5    0    0  0.62343830500E+02  0.74576575114E+02  0.14580752111E+02  0.12622936742E+03  0.79201238062E+02 0.  0.
          5    1    3    3  501    0 -0.19084809574E+03 -0.93083532034E+02  0.52791117022E+02  0.21885276243E+03  0.47000000000E+01 0. -1.
        -13    1    4    4    0    0 -0.55611894650E+02 -0.25703387839E+02  0.65203854835E+02  0.89470048945E+02  0.00000000000E+00 0.  1.
         14    1    4    4    0    0  0.20245177226E+02 -0.38232033833E+01 -0.44792306455E+01  0.21084297290E+02  0.00000000000E+00 0. -1.
         -5    1    5    5    0  502  0.16387098267E+03  0.48033548142E+02  0.13591831682E+03  0.21830437365E+03  0.47000000000E+01 0.  1.
         11    1    6    6    0    0  0.52062611589E+02  0.81643541260E+02 -0.11310579502E+02  0.97489038171E+02  0.00000000000E+00 0. -1.
        -12    1    6    6    0    0  0.10281218911E+02 -0.70669661454E+01  0.25891331613E+02  0.28740329251E+02  0.00000000000E+00 0.  1.
</event>
<event>
12    1  0.8728348E-002  0.5245171E+03  0.7818608E-02  0.1007603E+00
         21   -1    0    0  503  502  0.00000000000E+00  0.00000000000E+00  0.60843225979E+03  0.60843225979E+03  0.00000000000E+00 0.  1.
         21   -1    0    0  501  503 -0.00000000000E+00 -0.00000000000E+00 -0.56121913905E+03  0.56121913905E+03  0.00000000000E+00 0. -1.
          6    2    1    2  501    0  0.38696068854E+03  0.30876351138E+03 -0.23472445535E+03  0.57416250814E+03  0.17173682009E+03 0.  0.
         24    2    3    3    0    0  0.27601208394E+03  0.19815034405E+03 -0.89972453263E+02  0.36080811339E+03  0.81493699233E+02 0.  0.
         -6    2    1    2    0  502 -0.38696068854E+03 -0.30876351138E+03  0.28193757609E+03  0.59548889070E+03  0.17333419082E+03 0.  0.
        -24    2    5    5    0    0 -0.15510501521E+03 -0.19858932551E+03  0.12588798925E+03  0.29504094506E+03  0.87784323633E+02 0.  0.
          5    1    3    3  501    0  0.11094860461E+03  0.11061316733E+03 -0.14475200209E+03  0.21335439475E+03  0.47000000000E+01 0. -1.
        -13    1    4    4    0    0  0.14828817797E+03  0.85640374316E+02 -0.68343969743E+01  0.17137784693E+03  0.00000000000E+00 0.  1.
         14    1    4    4    0    0  0.12772390597E+03  0.11250996973E+03 -0.83138056288E+02  0.18943026646E+03  0.00000000000E+00 0. -1.
         -5    1    5    5    0  502 -0.23185567333E+03 -0.11017418586E+03  0.15604958684E+03  0.30044794564E+03  0.47000000000E+01 0.  1.
         11    1    6    6    0    0 -0.59733899994E+02 -0.62219528315E+02  0.90288203896E+02  0.12486540063E+03  0.00000000000E+00 0. -1.
        -12    1    6    6    0    0 -0.95371115215E+02 -0.13636979720E+03  0.35599785354E+02  0.17017554443E+03  0.00000000000E+00 0.  1.
</event>
<event>
12    1  0.8728348E-002  0.1938333E+03  0.7818608E-02  0.1155650E+00
         21   -1    0    0  503  502  0.00000000000E+00  0.00000000000E+00  0.18361367044E+04  0.18361367044E+04  0.00000000000E+00 0.  1.
         21   -1    0    0  501  503 -0.00000000000E+00 -0.00000000000E+00 -0.46179782493E+02  0.46179782493E+02  0.00000000000E+00 0. -1.
          6    2    1    2  501    0 -0.19501218465E+02  0.82203793678E+02  0.18599171987E+03  0.26668171504E+03  0.17143061588E+03 0.  0.
         24    2    3    3    0    0 -0.94564087624E+01  0.25979008288E+02  0.19176267504E+03  0.20908381041E+03  0.78605239630E+02 0.  0.
         -6    2    1    2    0  502  0.19501218465E+02 -0.82203793678E+02  0.16039652020E+04  0.16156347719E+04  0.17445224405E+03 0.  0.
        -24    2    5    5    0    0  0.64823674689E+02 -0.63743593198E+01  0.98393376376E+03  0.98932390447E+03  0.79958709505E+02 0.  0.
          5    1    3    3  501    0 -0.10044809703E+02  0.56224785389E+02 -0.57709551763E+01  0.57597904629E+02  0.47000000000E+01 0. -1.
        -13    1    4    4    0    0  0.15264971507E+02  0.47657400247E+02  0.10548724619E+03  0.11675532649E+03  0.00000000000E+00 0.  1.
         14    1    4    4    0    0 -0.24721380269E+02 -0.21678391959E+02  0.86275428848E+02  0.92328483922E+02  0.00000000000E+00 0. -1.
         -5    1    5    5    0  502 -0.45322456224E+02 -0.75829434358E+02  0.62003143828E+03  0.62631086739E+03  0.47000000000E+01 0.  1.
         13    1    6    6    0    0  0.14638755195E+02  0.31252720861E+02  0.52364939307E+03  0.52478539669E+03  0.00000000000E+00 0. -1.
        -14    1    6    6    0    0  0.50184919493E+02 -0.37627080180E+02  0.46028437069E+03  0.46453850778E+03  0.00000000000E+00 0.  1.
</event>
<event>
12    1  0.8728348E-002  0.1968370E+03  0.7818608E-02  0.1152777E+00
         21   -1    0    0  503  502  0.00000000000E+00  0.00000000000E+00  0.44542100208E+02  0.44542100208E+02  0.00000000000E+00 0. -1.
         21   -1    0    0  501  503 -0.00000000000E+00 -0.00000000000E+00 -0.10370594648E+04  0.10370594648E+04  0.00000000000E+00 0. -1.
          6    2    1    2  501    0  0.15319283062E+02 -0.92681855975E+02 -0.71955868831E+03  0.74599564591E+03  0.17297453838E+03 0.  0.
         24    2    3    3    0    0  0.24197410915E+02  0.13425208205E+02 -0.23196036888E+03  0.24688469498E+03  0.79879214906E+02 0.  0.
         -6    2    1    2    0  502 -0.15319283062E+02  0.92681855975E+02 -0.27295867630E+03  0.33560591912E+03  0.17117326637E+03 0.  0.
        -24    2    5    5    0    0  0.54827989606E+02  0.34707613521E+02 -0.12597778836E+03  0.16266915591E+03  0.79875679922E+02 0.  0.
          5    1    3    3  501    0 -0.88781278527E+01 -0.10610706418E+03 -0.48759831943E+03  0.49911095092E+03  0.47000000000E+01 0. -1.
        -13    1    4    4    0    0  0.12114560322E+02 -0.87213328685E+01 -0.14496395969E+01  0.14997522254E+02  0.00000000000E+00 0.  1.
         14    1    4    4    0    0  0.12082850593E+02  0.22146541074E+02 -0.23051072929E+03  0.23188717273E+03  0.00000000000E+00 0. -1.
         -5    1    5    5    0  502 -0.70147272669E+02  0.57974242455E+02 -0.14698088794E+03  0.17293676321E+03  0.47000000000E+01 0.  1.
         11    1    6    6    0    0  0.64115014150E+00 -0.21319372750E+02 -0.11660039106E+02  0.24308090010E+02  0.00000000000E+00 0. -1.
        -12    1    6    6    0    0  0.54186839465E+02  0.56026986271E+02 -0.11431774925E+03  0.13836106590E+03  0.00000000000E+00 0.  1.
</event>
<event>
12    1  0.8728348E-002  0.1883141E+03  0.7818608E-02  0.1160551E+00
         21   -1    0    0  503  502  0.00000000000E+00  0.00000000000E+00  0.62569791341E+02  0.62569791341E+02  0.00000000000E+00 0.  1.
         21   -1    0    0  501  503 -0.00000000000E+00 -0.00000000000E+00 -0.77002323443E+03  0.77002323443E+03  0.00000000000E+00 0.  1.
          6    2    1    2  501    0  0.30131662518E+02  0.66906529572E+02 -0.56974678095E+03  0.59930067657E+03  0.17077911389E+03 0.  0.
         24    2    3    3    0    0  0.80236154081E+02  0.74079822185E+02 -0.40340068215E+03  0.42536094336E+03  0.79209603581E+02 0.  0.
         -6    2    1    2    0  502 -0.30131662518E+02 -0.66906529572E+02 -0.13770666214E+03  0.23329234921E+03  0.17342950907E+03 0.  0.
        -24    2    5    5    0    0 -0.56090939583E+02 -0.96810519339E+02 -0.13527774452E+03  0.19334084973E+03  0.81007072850E+02 0.  0.
          5    1    3    3  501    0 -0.50104491562E+02 -0.71732926131E+01 -0.16634609880E+03  0.17393973321E+03  0.47000000000E+01 0. -1.
        -11    1    4    4    0    0 -0.79819886451E+01  0.33242221825E+02 -0.15252358282E+03  0.15630803169E+03  0.00000000000E+00 0.  1.
         12    1    4    4    0    0  0.88218142726E+02  0.40837600360E+02 -0.25087709933E+03  0.26905291167E+03  0.00000000000E+00 0. -1.
         -5    1    5    5    0  502  0.25959277065E+02  0.29903989768E+02 -0.24289176125E+01  0.39951499478E+02  0.47000000000E+01 0.  1.
         11    1    6    6    0    0  0.57721878584E+01  0.20272755705E+01 -0.46209809698E+02  0.46613029415E+02  0.00000000000E+00 0. -1.
        -12    1    6    6    0    0 -0.61863127442E+02 -0.98837794910E+02 -0.89067934826E+02  0.14672782031E+03  0.00000000000E+00 0.  1.
</event>
<event>
12    1  0.8728348E-002  0.2816923E+03  0.7818608E-02  0.1094971E+00
         21   -1    0    0  503  502  0.00000000000E+00  0.00000000000E+00  0.27264199159E+04  0.27264199159E+04  0.00000000000E+00 0.  1.
         21   -1    0    0  501  503 -0.00000000000E+00 -0.00000000000E+00 -0.30243041422E+02  0.30243041422E+02  0.00000000000E+00 0. -1.
          6    2    1    2  501    0 -0.19236148190E+03 -0.10989521370E+03  0.10597027212E+04  0.10961214148E+04  0.17155873905E+03 0.  0.
         24    2    3    3    0    0 -0.11305766387E+03 -0.90015137649E+02  0.41783355214E+03  0.44904921390E+03  0.78584724009E+02 0.  0.
         -6    2    1    2    0  502  0.19236148190E+03  0.10989521370E+03  0.16364741532E+04  0.16605415425E+04  0.17398466135E+03 0.  0.
        -24    2    5    5    0    0  0.26051897528E+02  0.77434611289E+02  0.63922991472E+03  0.64899286357E+03  0.76824688068E+02 0.  0.
          5    1    3    3  501    0 -0.79303818030E+02 -0.19880076054E+02  0.64186916907E+03  0.64707220090E+03  0.47000000000E+01 0. -1.
        -13    1    4    4    0    0 -0.97976658961E+02 -0.29779166627E+02  0.26137236808E+03  0.28071647487E+03  0.00000000000E+00 0.  1.
         14    1    4    4    0    0 -0.15081004911E+02 -0.60235971022E+02  0.15646118406E+03  0.16833273903E+03  0.00000000000E+00 0. -1.
         -5    1    5    5    0  502  0.16630958437E+03  0.32460602414E+02  0.99724423851E+03  0.10115486789E+04  0.47000000000E+01 0.  1.
         11    1    6    6    0    0  0.17723505890E+02  0.92804082612E+02  0.52518298279E+03  0.53361398578E+03  0.00000000000E+00 0. -1.
        -12    1    6    6    0    0  0.83283916378E+01 -0.15369471322E+02  0.11404693193E+03  0.11537887779E+03  0.00000000000E+00 0.  1.
</event>
<event>
12    1  0.8728348E-002  0.1956398E+03  0.7818608E-02  0.1153773E+00
         21   -1    0    0  501  502  0.00000000000E+00  0.00000000000E+00  0.72065594445E+02  0.72065594445E+02  0.00000000000E+00 0.  1.
         21   -1    0    0  502  503 -0.00000000000E+00 -0.00000000000E+00 -0.11323525782E+04  0.11323525782E+04  0.00000000000E+00 0.  1.
         -6    2    1    2    0  503  0.79163816843E+02 -0.44043207200E+02 -0.97120238983E+03  0.99071136136E+03  0.17340186133E+03 0.  0.
        -24    2    3    3    0    0  0.84219503776E+02 -0.59982011001E+02 -0.43471153538E+03  0.45393940574E+03  0.79975612682E+02 0.  0.
          6    2    1    2  501    0 -0.79163816843E+02  0.44043207200E+02 -0.89084593953E+02  0.21370681132E+03  0.17183661521E+03 0.  0.
         24    2    5    5    0    0 -0.37090510411E+02 -0.23487585466E+02  0.56894102046E+01  0.89873161059E+02  0.78214084771E+02 0.  0.
          5    1    5    5  501    0 -0.42073306431E+02  0.67530792666E+02 -0.94774004158E+02  0.12383365026E+03  0.47000000000E+01 0. -1.
        -11    1    6    6    0    0 -0.11076561413E+02 -0.18767638765E+02  0.40601194587E+02  0.46080055116E+02  0.00000000000E+00 0.  1.
         12    1    6    6    0    0 -0.26013948999E+02 -0.47199467016E+01 -0.34911784383E+02  0.43793105943E+02  0.00000000000E+00 0. -1.
         -5    1    3    3    0  503 -0.50556869335E+01  0.15938803801E+02 -0.53649085445E+03  0.53677195562E+03  0.47000000000E+01 0.  1.
         11    1    4    4    0    0  0.51966073203E+02 -0.54783064735E+02 -0.39667872777E+03  0.40380152304E+03  0.00000000000E+00 0. -1.
        -12    1    4    4    0    0  0.32253430573E+02 -0.51989462662E+01 -0.38032807614E+02  0.50137882694E+02  0.00000000000E+00 0.  1.
</event>
<event>
12    1  0.8728348E-002  0.1962478E+03  0.7818608E-02  0.1153072E+00
         21   -1    0    0  501  502  0.00000000000E+00  0.00000000000E+00  0.88012809027E+03  0.88012809027E+03  0.00000000000E+00 0. -1.
         21   -1    0    0  502  503 -0.00000000000E+00 -0.00000000000E+00 -0.92795914212E+02  0.92795914212E+02  0.00000000000E+00 0.  1.
         -6    2    1    2    0  503  0.72834938523E+02  0.58153216408E+02  0.39841437270E+02  0.20025117187E+03  0.17270340721E+03 0.  0.
        -24    2    3    3    0    0  0.39412818639E+02  0.77321965700E+02 -0.28299303172E+02  0.12183096047E+03  0.80683800834E+02 0.  0.
          6    2    1    2  501    0 -0.72834938523E+02 -0.58153216408E+02  0.74749073879E+03  0.77267283262E+03  0.17202958129E+03 0.  0.
         24    2    5    5    0    0  0.29930704840E+01 -0.14001202580E+02  0.55252637034E+03  0.55882129009E+03  0.82406627132E+02 0.  0.
          5    1    5    5  501    0 -0.75828009007E+02 -0.44152013828E+02  0.19496436845E+03  0.21385154252E+03  0.47000000000E+01 0. -1.
        -11    1    6    6    0    0  0.28570343898E+02 -0.26915937875E+02  0.46650440219E+03  0.46815284846E+03  0.00000000000E+00 0.  1.
         12    1    6    6    0    0 -0.25577273414E+02  0.12914735296E+02  0.86021968155E+02  0.90668441634E+02  0.00000000000E+00 0. -1.
         -5    1    3    3    0  503  0.33422119884E+02 -0.19168749292E+02  0.68140740442E+02  0.78420211393E+02  0.47000000000E+01 0.  1.
         13    1    4    4    0    0 -0.17084641202E+02 -0.12559657001E+01  0.74208969249E+01  0.18669015132E+02  0.00000000000E+00 0. -1.
        -14    1    4    4    0    0  0.56497459841E+02  0.78577931401E+02 -0.35720200097E+02  0.10316194534E+03  0.00000000000E+00 0.  1.
</event>
<event>
12    1  0.8728348E-002  0.2746108E+03  0.7818608E-02  0.1098802E+00
         21   -1    0    0  503  502  0.00000000000E+00  0.00000000000E+00  0.17985603193E+04  0.17985603193E+04  0.00000000000E+00 0. -1.
         21   -1    0    0  501  503 -0.00000000000E+00 -0.00000000000E+00 -0.46278001671E+02  0.46278001671E+02  0.00000000000E+00 0.  1.
          6    2    1    2  501    0  0.30042677440E+01  0.21439273166E+03  0.58735022906E+03  0.64797665320E+03  0.17005934991E+03 0.  0.
         24    2    3    3    0    0 -0.43116877346E+02  0.62302535113E+02  0.30516928660E+03  0.32408351928E+03  0.78493076056E+02 0.  0.
         -6    2    1    2    0  502 -0.30042677440E+01 -0.21439273166E+03  0.11649320886E+04  0.11968616678E+04  0.17157450803E+03 0.  0.
        -24    2    5    5    0    0 -0.29483510061E+02 -0.17203423596E+03  0.10889712490E+04  0.11058257870E+04  0.80791301902E+02 0.  0.
          5    1    3    3  501    0  0.46121145090E+02  0.15209019655E+03  0.28218094246E+03  0.32389313392E+03  0.47000000000E+01 0. -1.
        -11    1    4    4    0    0 -0.29040524291E+02  0.26676252228E+02  0.40027052507E+02  0.56188427780E+02  0.00000000000E+00 0.  1.
         12    1    4    4    0    0 -0.14076353055E+02  0.35626282885E+02  0.26514223410E+03  0.26789509150E+03  0.00000000000E+00 0. -1.
         -5    1    5    5    0  502  0.26479242317E+02 -0.42358495703E+02  0.75960839611E+02  0.91035880763E+02  0.47000000000E+01 0.  1.
         13    1    6    6    0    0 -0.34403343305E+02 -0.11802473699E+03  0.52265649089E+03  0.53692013935E+03  0.00000000000E+00 0. -1.
        -14    1    6    6    0    0  0.49198332441E+01 -0.54009498972E+02  0.56631475808E+03  0.56890564767E+03  0.00000000000E+00 0.  1.
</event>
<event>
12    1  0.8728348E-002  0.2316366E+03  0.7818608E-02  0.1126416E+00
         21   -1    0    0  501  502  0.00000000000E+00  0.00000000000E+00  0.21887007175E+03  0.21887007175E+03  0.00000000000E+00 0.  1.
         21   -1    0    0  502  503 -0.00000000000E+00 -0.00000000000E+00 -0.41905472274E+03  0.41905472274E+03  0.00000000000E+00 0. -1.
         -6    2    1    2    0  503  0.85565004972E+02 -0.12549378663E+03 -0.30944202354E+03  0.38653575990E+03  0.17488701263E+03 0.  0.
        -24    2    3    3    0    0  0.57692990498E+02 -0.65065084653E+02 -0.71115526120E+02  0.13904821155E+03  0.81945351825E+02 0.  0.
          6    2    1    2  501    0 -0.85565004972E+02  0.12549378663E+03  0.10925737255E+03  0.25138903459E+03  0.16789643444E+03 0.  0.
         24    2    5    5    0    0 -0.74951982766E+02  0.69869728608E+02  0.19714712648E+01  0.12998464140E+03  0.79953371439E+02 0.  0.
          5    1    5    5  501    0 -0.10613022206E+02  0.55624058027E+02  0.10728590129E+03  0.12140439319E+03  0.47000000000E+01 0. -1.
        -13    1    6    6    0    0 -0.21387605277E+02  0.30273478795E+02  0.38974586671E+02  0.53785979437E+02  0.00000000000E+00 0.  1.
         14    1    6    6    0    0 -0.53564377489E+02  0.39596249813E+02 -0.37003115406E+02  0.76198661962E+02  0.00000000000E+00 0. -1.
         -5    1    3    3    0  503  0.27872014474E+02 -0.60428701982E+02 -0.23832649743E+03  0.24748754835E+03  0.47000000000E+01 0.  1.
         13    1    4    4    0    0  0.61561854313E+02 -0.25330446677E+02 -0.73361396324E+02  0.99062545425E+02  0.00000000000E+00 0. -1.
        -14    1    4    4    0    0 -0.38688638152E+01 -0.39734637976E+02  0.22458702044E+01  0.39985666123E+02  0.00000000000E+00 0.  1.
</event>
<event>
12    1  0.8728348E-002  0.1949642E+03  0.7818608E-02  0.1154188E+00
         21   -1    0    0  503  502  0.00000000000E+00  0.00000000000E+00  0.88042983882E+03  0.88042983882E+03  0.00000000000E+00 0.  1.
         21   -1    0    0  501  503 -0.00000000000E+00 -0.00000000000E+00 -0.98138672491E+02  0.98138672491E+02  0.00000000000E+00 0.  1.
          6    2    1    2  501    0 -0.85551282125E+02  0.28410085281E+02  0.24797522429E+02  0.19653482813E+03  0.17287240014E+03 0.  0.
         24    2    3    3    0    0 -0.10622248711E+03  0.16574858038E+02 -0.28953450778E+02  0.13755492952E+03  0.80778175501E+02 0.  0.
         -6    2    1    2    0  502  0.85551282125E+02 -0.28410085281E+02  0.75749364390E+03  0.78203368318E+03  0.17220309597E+03 0.  0.
        -24    2    5    5    0    0  0.90332239743E+02  0.37040090182E+02  0.28984419651E+03  0.30977879579E+03  0.49207339395E+02 0.  0.
          5    1    3    3  501    0  0.20671204982E+02  0.11835227243E+02  0.53750973206E+02  0.58979898609E+02  0.47000000000E+01 0. -1.
        -11    1    4    4    0    0 -0.31381475250E+02  0.42266895818E+02  0.17669207106E+01  0.52672663496E+02  0.00000000000E+00 0.  1.
         12    1    4    4    0    0 -0.74841011857E+02 -0.25692037780E+02 -0.30720371488E+02  0.84882266024E+02  0.00000000000E+00 0. -1.
         -5    1    5    5    0  502 -0.47809576179E+01 -0.65450175463E+02  0.46764944738E+03  0.47225488739E+03  0.47000000000E+01 0.  1.
         11    1    6    6    0    0  0.73866944134E+02  0.59312985930E+01  0.19316420910E+03  0.20689107621E+03  0.00000000000E+00 0. -1.
        -12    1    6    6    0    0  0.16465295609E+02  0.31108791589E+02  0.96679987409E+02  0.10288771957E+03  0.00000000000E+00 0.  1.
</event>
<event>
12    1  0.8728348E-002  0.2006689E+03  0.7818608E-02  0.1149217E+00
         21   -1    0    0  503  502  0.00000000000E+00  0.00000000000E+00  0.15461252892E+03  0.15461252892E+03  0.00000000000E+00 0.  1.
         21   -1    0    0  501  503 -0.00000000000E+00 -0.00000000000E+00 -0.26619753206E+03  0.26619753206E+03  0.00000000000E+00 0.  1.
          6    2    1    2  501    0  0.10146212128E+03  0.17913990083E+02 -0.87433269267E+02  0.21888940555E+03  0.17219907721E+03 0.  0.
         24    2    3    3    0    0  0.10243155286E+03  0.69752373410E+02 -0.59213255316E+02  0.15967271051E+03  0.81434318690E+02 0.  0.
         -6    2    1    2    0  502 -0.10146212128E+03 -0.17913990083E+02 -0.24151733868E+02  0.20192065543E+03  0.17196851964E+03 0.  0.
        -24    2    5    5    0    0 -0.53205951547E+02  0.94980142567E+01  0.50376409502E+02  0.10887975017E+03  0.79974569752E+02 0.  0.
          5    1    3    3  501    0 -0.96943157869E+00 -0.51838383328E+02 -0.28220013951E+02  0.59216695036E+02  0.47000000000E+01 0. -1.
        -11    1    4    4    0    0  0.26953169816E+02 -0.15124697776E+02 -0.28425603556E+02  0.41991008365E+02  0.00000000000E+00 0.  1.
         12    1    4    4    0    0  0.75478383040E+02  0.84877071187E+02 -0.30787651760E+02  0.11768170215E+03  0.00000000000E+00 0. -1.
         -5    1    5    5    0  502 -0.48256169730E+02 -0.27412004339E+02 -0.74528143370E+02  0.93040905268E+02  0.47000000000E+01 0.  1.
         13    1    6    6    0    0 -0.15434347888E+02  0.12202993648E+02  0.65282627641E+02  0.68183235626E+02  0.00000000000E+00 0. -1.
        -14    1    6    6    0    0 -0.37771603659E+02 -0.27049793914E+01 -0.14906218139E+02  0.40696514540E+02  0.00000000000E+00 0.  1.
</event>
<event>
12    1  0.8728348E-002  0.2228992E+03  0.7818608E-02  0.1131905E+00
         21   -1    0    0  501  502  0.00000000000E+00  0.00000000000E+00  0.87119421062E+02  0.87119421062E+02  0.00000000000E+00 0. -1.
         21   -1    0    0  502  503 -0.00000000000E+00 -0.00000000000E+00 -0.62379885049E+03  0.62379885049E+03  0.00000000000E+00 0. -1.
         -6    2    1    2    0  503 -0.12441457701E+02 -0.14058104940E+03 -0.37415244489E+03  0.43505765954E+03  0.17136888219E+03 0.  0.
        -24    2    3    3    0    0 -0.73473052006E+02 -0.81757654805E+02 -0.24408014830E+03  0.27973238923E+03  0.81194133408E+02 0.  0.
          6    2    1    2  501    0  0.12441457701E+02  0.14058104940E+03 -0.16252698454E+03  0.27586061202E+03  0.17252894029E+03 0.  0.
         24    2    5    5    0    0 -0.14268533001E+02  0.13998205559E+03 -0.18127721230E+03  0.24288420473E+03  0.79578529037E+02 0.  0.
          5    1    5    5  501    0  0.26709990701E+02  0.59899381279E+00  0.18750227761E+02  0.32976407293E+02  0.47000000000E+01 0. -1.
        -13    1    6    6    0    0 -0.24981642848E+02  0.11606569035E+03 -0.18125683752E+03  0.21667802866E+03  0.00000000000E+00 0.  1.
         14    1    6    6    0    0  0.10713109848E+02  0.23916365238E+02 -0.20374781808E-01  0.26206176064E+02  0.00000000000E+00 0. -1.
         -5    1    3    3    0  503  0.61031594306E+02 -0.58823394599E+02 -0.13007229659E+03  0.15532527031E+03  0.47000000000E+01 0.  1.
         11    1    4    4    0    0 -0.40979419702E+02 -0.29480447262E+02 -0.34108271837E+02  0.60924410687E+02  0.00000000000E+00 0. -1.
        -12    1    4    4    0    0 -0.32493632304E+02 -0.52277207544E+02 -0.20997187646E+03  0.21880797854E+03  0.00000000000E+00 0.  1.
</event>
<event>
12    1  0.8728348E-002  0.1865977E+03  0.7818608E-02  0.1161593E+00
         21   -1    0    0  501  502  0.00000000000E+00  0.00000000000E+00  0.23912681912E+02  0.23912681912E+02  0.00000000000E+00 0.  1.
         21   -1    0    0  502  503 -0.00000000000E+00 -0.00000000000E+00 -0.14802092035E+04  0.14802092035E+04  0.00000000000E+00 0.  1.
         -6    2    1    2    0  503 -0.43216503998E+02 -0.57018085117E+02 -0.82621049012E+03  0.84701975044E+03  0.17233675002E+03 0.  0.
        -24    2    3    3    0    0  0.13884812556E+02 -0.37246416220E+02 -0.21321918373E+03  0.23103930355E+03  0.79603115101E+02 0.  0.
          6    2    1    2  501    0  0.43216503998E+02  0.57018085117E+02 -0.63008603152E+03  0.65710213502E+03  0.17220940882E+03 0.  0.
         24    2    5    5    0    0 -0.34559707706E+02  0.23584712960E+02 -0.44635336729E+03  0.45474919735E+03  0.76255438594E+02 0.  0.
          5    1    5    5  501    0  0.77776211704E+02  0.33433372157E+02 -0.18373266423E+03  0.20235293768E+03  0.47000000000E+01 0. -1.
        -11    1    6    6    0    0 -0.77372486736E+01 -0.27152303208E+02 -0.11185035884E+03  0.11535863799E+03  0.00000000000E+00 0.  1.
         12    1    6    6    0    0 -0.26822459033E+02  0.50737016168E+02 -0.33450300845E+03  0.33939055936E+03  0.00000000000E+00 0. -1.
         -5    1    3    3    0  503 -0.57101316554E+02 -0.19771668897E+02 -0.61299130638E+03  0.61598044688E+03  0.47000000000E+01 0.  1.
         11    1    4    4    0    0 -0.98359635264E+01 -0.61985959458E+01 -0.17817439928E+03  0.17855331229E+03  0.00000000000E+00 0. -1.
        -12    1    4    4    0    0  0.23720776083E+02 -0.31047820274E+02 -0.35044784453E+02  0.52485991265E+02  0.00000000000E+00 0.  1.
</event>
<event>
12    1  0.8728348E-002  0.1857537E+03  0.7818608E-02  0.1163555E+00
         21   -1    0    0  503  502  0.00000000000E+00  0.00000000000E+00  0.39468515840E+03  0.39468515840E+03  0.00000000000E+00 0. -1.
         21   -1    0    0  501  503 -0.00000000000E+00 -0.00000000000E+00 -0.35409865122E+03  0.35409865122E+03  0.00000000000E+00 0. -1.
          6    2    1    2  501    0 -0.42705341252E+02 -0.34398060694E+02 -0.30612633357E+03  0.35544650109E+03  0.17211016902E+03 0.  0.
         24    2    3    3    0    0  0.38270068074E+01 -0.48558084911E+01 -0.52837525967E+02  0.96187337052E+02  0.80137224818E+02 0.  0.
         -6    2    1    2    0  502  0.42705341252E+02  0.34398060694E+02  0.34671284074E+03  0.39333730854E+03  0.17747527038E+03 0.  0.
        -24    2    5    5    0    0  0.60244360041E+02  0.52778161073E+02  0.34941075643E+03  0.36736012587E+03  0.80316051747E+02 0.  0.
          5    1    3    3  501    0 -0.46532348060E+02 -0.29542252203E+02 -0.25328880760E+03  0.25925916403E+03  0.47000000000E+01 0. -1.
        -11    1    4    4    0    0  0.62773096748E+01 -0.35565754334E+02 -0.12939479807E+01  0.36138646896E+02  0.00000000000E+00 0.  1.
         12    1    4    4    0    0 -0.24503028674E+01  0.30709945843E+02 -0.51543577987E+02  0.60048690156E+02  0.00000000000E+00 0. -1.
         -5    1    5    5    0  502 -0.17539018789E+02 -0.18380100379E+02 -0.26979156876E+01  0.25977182662E+02  0.47000000000E+01 0.  1.
         13    1    6    6    0    0  0.39640856237E+02 -0.13450193300E+02  0.98194050428E+02  0.10674444586E+03  0.00000000000E+00 0. -1.
        -14    1    6    6    0    0  0.20603503804E+02  0.66228354373E+02  0.25121670600E+03  0.26061568001E+03  0.00000000000E+00 0.  1.
</event>
<event>
12    1  0.8728348E-002  0.2016805E+03  0.7818608E-02  0.1148414E+00
         21   -1    0    0  501  502  0.00000000000E+00  0.00000000000E+00  0.78307122970E+02  0.78307122970E+02  0.00000000000E+00 0. -1.
         21   -1    0    0  502  503 -0.00000000000E+00 -0.00000000000E+00 -0.65288734880E+03  0.65288734880E+03  0.00000000000E+00 0. -1.
         -6    2    1    2    0  503  0.84669358804E+02  0.61460076366E+02 -0.45346776018E+03  0.49629432045E+03  0.17242042130E+03 0.  0.
        -24    2    3    3    0    0  0.11847489715E+03  0.28190637997E+02 -0.26800281775E+03  0.30480279369E+03  0.79045679144E+02 0.  0.
          6    2    1    2  501    0 -0.84669358804E+02 -0.61460076366E+02 -0.12111246565E+03  0.23490015132E+03  0.17194071783E+03 0.  0.
         24    2    5    5    0    0 -0.43362218095E+02  0.22014227174E+02 -0.10606607086E+03  0.14043998394E+03  0.78156698655E+02 0.  0.
          5    1    5    5  501    0 -0.41307140709E+02 -0.83474303539E+02 -0.15046394787E+02  0.94460167378E+02  0.47000000000E+01 0. -1.
        -13    1    6    6    0    0  0.71955980036E+01 -0.23140092650E+02 -0.26332669485E+02  0.35786170523E+02  0.00000000000E+00 0.  1.
         14    1    6    6    0    0 -0.50557816099E+02  0.45154319824E+02 -0.79733401378E+02  0.10465381342E+03  0.00000000000E+00 0. -1.
         -5    1    3    3    0  503 -0.33805538349E+02  0.33269438368E+02 -0.18546494243E+03  0.19149152676E+03  0.47000000000E+01 0.  1.
         11    1    4    4    0    0  0.11440808580E+03 -0.21031371273E+01 -0.20487086394E+03  0.23466082795E+03  0.00000000000E+00 0. -1.
        -12    1    4    4    0    0  0.40668113564E+01  0.30293775125E+02 -0.63131953817E+02  0.70141965746E+02  0.00000000000E+00 0.  1.
</event>
<event>
12    1  0.8728348E-002  0.2037412E+03  0.7818608E-02  0.1146642E+00
         21   -1    0    0  503  502  0.00000000000E+00  0.00000000000E+00  0.32549050692E+03  0.32549050692E+03  0.00000000000E+00 0. -1.
         21   -1    0    0  501  503 -0.00000000000E+00 -0.00000000000E+00 -0.14141780013E+03  0.14141780013E+03  0.00000000000E+00 0.  1.
          6    2    1    2  501    0 -0.10262385839E+03 -0.36023163207E+02  0.18685451313E+02  0.20448991001E+03  0.17215589623E+03 0.  0.
         24    2    3    3    0    0 -0.10063738778E+03 -0.84909154953E+02  0.17637595430E+02  0.15532717762E+03  0.80486016925E+02 0.  0.
         -6    2    1    2    0  502  0.10262385839E+03  0.36023163207E+02  0.16538725548E+03  0.26241839704E+03  0.17228217040E+03 0.  0.
        -24    2    5    5    0    0  0.23289657797E+02  0.46483785539E+02  0.15504200833E+03  0.18159479813E+03  0.78965156142E+02 0.  0.
          5    1    3    3  501    0 -0.19864706088E+01  0.48885991747E+02  0.10478558827E+01  0.49162732394E+02  0.47000000000E+01 0. -1.
        -13    1    4    4    0    0 -0.70163703917E+02 -0.43956935160E+02 -0.27441933534E+02  0.87225095082E+02  0.00000000000E+00 0.  1.
         14    1    4    4    0    0 -0.30473683859E+02 -0.40952219794E+02  0.45079528964E+02  0.68102082535E+02  0.00000000000E+00 0. -1.
         -5    1    5    5    0  502  0.79334200589E+02 -0.10460622332E+02  0.10345247149E+02  0.80823598913E+02  0.47000000000E+01 0.  1.
         13    1    6    6    0    0 -0.12893454545E+02  0.75102247462E+00  0.10184449579E+03  0.10266015063E+03  0.00000000000E+00 0. -1.
        -14    1    6    6    0    0  0.36183112342E+02  0.45732763064E+02  0.53197512539E+02  0.78934647504E+02  0.00000000000E+00 0.  1.
</event>
<event>
12    1  0.8728348E-002  0.2041022E+03  0.7818608E-02  0.1147101E+00
         21   -1    0    0  503  502  0.00000000000E+00  0.00000000000E+00  0.19046824882E+03  0.19046824882E+03  0.00000000000E+00 0.  1.
         21   -1    0    0  501  503 -0.00000000000E+00 -0.00000000000E+00 -0.55344370316E+03  0.55344370316E+03  0.00000000000E+00 0.  1.
          6    2    1    2  501    0  0.94924786700E+02 -0.51528944564E+02 -0.47182299505E+03  0.51259938053E+03  0.16874607848E+03 0.  0.
         24    2    3    3    0    0  0.61085296857E+02 -0.98604533849E+02 -0.35766121151E+03  0.38447356346E+03  0.80275221531E+02 0.  0.
         -6    2    1    2    0  502 -0.94924786700E+02  0.51528944564E+02  0.10884754072E+03  0.23131257144E+03  0.17318132500E+03 0.  0.
        -24    2    5    5    0    0 -0.38459274830E+02  0.89363015500E+02  0.32518499084E+02  0.12899940733E+03  0.78221032648E+02 0.  0.
          5    1    3    3  501    0  0.33839489843E+02  0.47075589285E+02 -0.11416178354E+03  0.12812581708E+03  0.47000000000E+01 0. -1.
        -11    1    4    4    0    0 -0.19413535849E+02 -0.14988091766E+02 -0.51264425888E+02  0.56829302570E+02  0.00000000000E+00 0.  1.
         12    1    4    4    0    0  0.80498832706E+02 -0.83616442083E+02 -0.30639678562E+03  0.32764426089E+03  0.00000000000E+00 0. -1.
         -5    1    5    5    0  502 -0.56465511871E+02 -0.37834070936E+02  0.76329041631E+02  0.10231316411E+03  0.47000000000E+01 0.  1.
         13    1    6    6    0    0 -0.19586988723E+02 -0.57607655067E+01 -0.10442083945E+02  0.22931935452E+02  0.00000000000E+00 0. -1.
        -14    1    6    6    0    0 -0.18872286107E+02  0.95123781007E+02  0.42960583029E+02  0.10606747188E+03  0.00000000000E+00 0.  1.
</event>
<event>
12    1  0.8728348E-002  0.2517093E+03  0.7818608E-02  0.1112737E+00
         21   -1    0    0  501  502  0.00000000000E+00  0.00000000000E+00  0.51194061831E+02  0.51194061831E+02  0.00000000000E+00 0. -1.
         21   -1    0    0  502  503 -0.00000000000E+00 -0.00000000000E+00 -0.13232575617E+04  0.13232575617E+04  0.00000000000E+00 0. -1.
         -6    2    1    2    0  503 -0.10055985647E+03 -0.15418616199E+03 -0.44199318477E+03  0.50705650104E+03  0.16692112683E+03 0.  0.
        -24    2    3    3    0    0 -0.12762087064E+03 -0.10642407621E+03 -0.27178579257E+03  0.32815384123E+03  0.78767098803E+02 0.  0.
          6    2    1    2  501    0  0.10055985647E+03  0.15418616199E+03 -0.83007031515E+03  0.86739512254E+03  0.17167385717E+03 0.  0.
         24    2    5    5    0    0  0.10430181031E+02  0.12526651691E+03 -0.60523350042E+03  0.62340047604E+03  0.80746978611E+02 0.  0.
          5    1    5    5  501    0  0.90129675441E+02  0.28919645074E+02 -0.22483681472E+03  0.24399464650E+03  0.47000000000E+01 0. -1.
        -13    1    6    6    0    0 -0.22005431688E+02  0.39785566325E+01 -0.12742570206E+03  0.12937301683E+03  0.00000000000E+00 0.  1.
         14    1    6    6    0    0  0.32435612718E+02  0.12128796028E+03 -0.47780779836E+03  0.49402745921E+03  0.00000000000E+00 0. -1.
         -5    1    3    3    0  503  0.27061014169E+02 -0.47762085777E+02 -0.17020739221E+03  0.17890265981E+03  0.47000000000E+01 0.  1.
         13    1    4    4    0    0 -0.80196126425E+02 -0.10856714611E+03 -0.18197700481E+03  0.22656979982E+03  0.00000000000E+00 0. -1.
        -14    1    4    4    0    0 -0.47424744215E+02  0.21430699008E+01 -0.89808787754E+02  0.10158404142E+03  0.00000000000E+00 0.  1.
</event>
<event>
12    1  0.8728348E-002  0.1940911E+03  0.7818608E-02  0.1154970E+00
         21   -1    0    0  503  502  0.00000000000E+00  0.00000000000E+00  0.42691237515E+03  0.42691237515E+03  0.00000000000E+00 0. -1.
         21   -1    0    0  501  503 -0.00000000000E+00 -0.00000000000E+00 -0.29700138803E+03  0.29700138803E+03  0.00000000000E+00 0. -1.
          6    2    1    2  501    0 -0.74573041653E+02  0.51457521302E+02 -0.23876012445E+03  0.30727273341E+03  0.17088335387E+03 0.  0.
         24    2    3    3    0    0  0.17402291060E+02  0.27085361959E+02 -0.16816295180E+03  0.18869990868E+03  0.79324779291E+02 0.  0.
         -6    2    1    2    0  502  0.74573041653E+02 -0.51457521302E+02  0.36867111158E+03  0.41664102978E+03  0.17164598493E+03 0.  0.
        -24    2    5    5    0    0  0.11285222796E+03 -0.57248191495E+02  0.32580409228E+03  0.35868846893E+03  0.80598575727E+02 0.  0.
          5    1    3    3  501    0 -0.91975332713E+02  0.24372159343E+02 -0.70597172651E+02  0.11857282473E+03  0.47000000000E+01 0. -1.
        -13    1    4    4    0    0 -0.26924060817E+01 -0.15578688300E+02 -0.12091344276E+03  0.12194263085E+03  0.00000000000E+00 0.  1.
         14    1    4    4    0    0  0.20094697141E+02  0.42664050259E+02 -0.47249509044E+02  0.66757277825E+02  0.00000000000E+00 0. -1.
         -5    1    5    5    0  502 -0.38279186307E+02  0.57906701933E+01  0.42867019292E+02  0.57952560846E+02  0.47000000000E+01 0.  1.
         11    1    6    6    0    0  0.94735403046E+02 -0.55693332350E+02  0.17398715786E+03  0.20578647904E+03  0.00000000000E+00 0. -1.
        -12    1    6    6    0    0  0.18116824914E+02 -0.15548591452E+01  0.15181693443E+03  0.15290198989E+03  0.00000000000E+00 0.  1.
</event>
<event>
12    1  0.8728348E-002  0.1957385E+03  0.7818608E-02  0.1153462E+00
         21   -1    0    0  501  502  0.00000000000E+00  0.00000000000E+00  0.83257263671E+02  0.83257263671E+02  0.00000000000E+00 0.  1.
         21   -1    0    0  502  503 -0.00000000000E+00 -0.00000000000E+00 -0.50056197738E+03  0.50056197738E+03  0.00000000000E+00 0.  1.
         -6    2    1    2    0  503 -0.75579218119E+02  0.52938488010E+02 -0.29258252437E+03  0.35201999226E+03  0.17262340415E+03 0.  0.
        -24    2    3    3    0    0  0.15957430395E+02  0.24834652408E+02 -0.78861861011E+02  0.11778208853E+03  0.82353067411E+02 0.  0.
          6    2    1    2  501    0  0.75579218119E+02 -0.52938488010E+02 -0.12472218934E+03  0.23179924879E+03  0.17222243031E+03 0.  0.
         24    2    5    5    0    0  0.93067458339E+02  0.54250306434E+01 -0.43445028024E+02  0.13011244627E+03  0.79691878222E+02 0.  0.
          5    1    5    5  501    0 -0.17488240220E+02 -0.58363518654E+02 -0.81277161319E+02  0.10168680252E+03  0.47000000000E+01 0. -1.
        -11    1    6    6    0    0  0.46779739398E+02  0.34325636995E+02  0.35014907585E+01  0.58127909053E+02  0.00000000000E+00 0.  1.
         12    1    6    6    0    0  0.46287718941E+02 -0.28900606352E+02 -0.46946518782E+02  0.71984537215E+02  0.00000000000E+00 0. -1.
         -5    1    3    3    0  503 -0.91536648515E+02  0.28103835603E+02 -0.21372066335E+03  0.23423790372E+03  0.47000000000E+01 0.  1.
         11    1    4    4    0    0 -0.26154320010E+02  0.33459504231E+02 -0.26592663930E+02  0.50107451078E+02  0.00000000000E+00 0. -1.
        -12    1    4    4    0    0  0.42111750405E+02 -0.86248518238E+01 -0.52269197081E+02  0.67674637455E+02  0.00000000000E+00 0.  1.
</event>
<event>
12    1  0.8728348E-002  0.1967782E+03  0.7818608E-02  0.1153629E+00
         21   -1    0    0  501  502  0.00000000000E+00  0.00000000000E+00  0.56888286303E+03  0.56888286303E+03  0.00000000000E+00 0. -1.
         21   -1    0    0  502  503 -0.00000000000E+00 -0.00000000000E+00 -0.67033445084E+02  0.67033445084E+02  0.00000000000E+00 0. -1.
         -6    2    1    2    0  503 -0.11914374605E+02  0.85925807332E+02  0.22033445645E+03  0.29541316470E+03  0.17662522043E+03 0.  0.
        -24    2    3    3    0    0  0.12105777768E+02  0.12392866664E+03  0.18949228691E+03  0.24069100778E+03  0.80746332163E+02 0.  0.
          6    2    1    2  501    0  0.11914374605E+02 -0.85925807332E+02  0.28151496149E+03  0.34050314341E+03  0.17078208466E+03 0.  0.
         24    2    5    5    0    0 -0.52488922421E+02 -0.51543609334E+02  0.14300633360E+03  0.18386135395E+03  0.89119893317E+02 0.  0.
          5    1    5    5  501    0  0.64403297026E+02 -0.34382197998E+02  0.13850862789E+03  0.15664178947E+03  0.47000000000E+01 0. -1.
        -11    1    6    6    0    0  0.14550800430E+01  0.23234756120E+02  0.31542567254E+02  0.39203376116E+02  0.00000000000E+00 0.  1.
         12    1    6    6    0    0 -0.53944002464E+02 -0.74778365454E+02  0.11146376635E+03  0.14465797783E+03  0.00000000000E+00 0. -1.
         -5    1    3    3    0  503 -0.24020152372E+02 -0.38002859311E+02  0.30842169547E+02  0.54722156922E+02  0.47000000000E+01 0.  1.
         13    1    4    4    0    0 -0.46275940762E+00  0.11485135754E+03  0.10772398613E+03  0.15746588730E+03  0.00000000000E+00 0. -1.
        -14    1    4    4    0    0  0.12568537175E+02  0.90773091037E+01  0.81768300777E+02  0.83225120482E+02  0.00000000000E+00 0.  1.
</event>
<event>
12    1  0.8728348E-002  0.1738069E+03  0.7818608E-02  0.1174408E+00
         21   -1    0    0  501  502  0.00000000000E+00  0.00000000000E+00  0.28746438423E+03  0.28746438423E+03  0.00000000000E+00 0.  1.
         21   -1    0    0  502  503 -0.00000000000E+00 -0.00000000000E+00 -0.35090390797E+03  0.35090390797E+03  0.00000000000E+00 0.  1.
         -6    2    1    2    0  503 -0.20844103818E+02 -0.72513021578E-01 -0.29952578560E+03  0.34630123833E+03  0.17255251231E+03 0.  0.
        -24    2    3    3    0    0 -0.67479964950E+02 -0.35461583324E+02 -0.15312282576E+03  0.18855712119E+03  0.79348085177E+02 0.  0.
          6    2    1    2  501    0  0.20844103818E+02  0.72513021578E-01  0.23608626187E+03  0.29206705387E+03  0.17068086886E+03 0.  0.
         24    2    5    5    0    0 -0.82180675667E+01 -0.51215704500E+02  0.81704844925E+02  0.12674674974E+03  0.81844192604E+02 0.  0.
          5    1    5    5  501    0  0.29062171385E+02  0.51288217521E+02  0.15438141694E+03  0.16532030413E+03  0.47000000000E+01 0. -1.
        -13    1    6    6    0    0  0.14530156313E+02 -0.35975054722E+02  0.90106877237E+02  0.98104940396E+02  0.00000000000E+00 0.  1.
         14    1    6    6    0    0 -0.22748223880E+02 -0.15240649778E+02 -0.84020323128E+01  0.28641809341E+02  0.00000000000E+00 0. -1.
         -5    1    3    3    0  503  0.46635861132E+02  0.35389070303E+02 -0.14640295984E+03  0.15774411714E+03  0.47000000000E+01 0.  1.
         13    1    4    4    0    0 -0.29225287482E+02 -0.26745163419E+02 -0.10995305189E+02  0.41113476269E+02  0.00000000000E+00 0. -1.
        -14    1    4    4    0    0 -0.38254677468E+02 -0.87164199055E+01 -0.14212752057E+03  0.14744364492E+03  0.00000000000E+00 0.  1.
</event>
<event>
12    1  0.8728348E-002  0.2169064E+03  0.7818608E-02  0.1136342E+00
         21   -1    0    0  501  502  0.00000000000E+00  0.00000000000E+00  0.81511625313E+03  0.81511625313E+03  0.00000000000E+00 0. -1.
         21   -1    0    0  502  503 -0.00000000000E+00 -0.00000000000E+00 -0.17462253009E+03  0.17462253009E+03  0.00000000000E+00 0. -1.
         -6    2    1    2    0  503  0.68493309008E+02 -0.11198492848E+03 -0.85145238350E+02  0.23237473199E+03  0.17180322135E+03 0.  0.
        -24    2    3    3    0    0  0.74445479830E+02 -0.66196298370E+01 -0.20925374361E+02  0.10874805434E+03  0.76172954939E+02 0.  0.
          6    2    1    2  501    0 -0.68493309008E+02  0.11198492848E+03  0.72563896139E+03  0.75736405124E+03  0.17267439367E+03 0.  0.
         24    2    5    5    0    0 -0.11233441819E+03  0.10008103120E+03  0.53305598883E+03  0.55943972997E+03  0.78669498121E+02 0.  0.
          5    1    5    5  501    0  0.43841109178E+02  0.11903897272E+02  0.19258297257E+03  0.19792432126E+03  0.47000000000E+01 0. -1.
        -13    1    6    6    0    0 -0.18880856714E+02  0.23571362743E+02  0.31871272615E+02  0.43907560965E+02  0.00000000000E+00 0.  1.
         14    1    6    6    0    0 -0.93453561473E+02  0.76509668462E+02  0.50118471621E+03  0.51553216901E+03  0.00000000000E+00 0. -1.
         -5    1    3    3    0  503 -0.59521708226E+01 -0.10536529864E+03 -0.64219863989E+02  0.12362667765E+03  0.47000000000E+01 0.  1.
         13    1    4    4    0    0  0.13282150325E+01 -0.85333749550E-01 -0.34134500387E+02  0.34160438429E+02  0.00000000000E+00 0. -1.
        -14    1    4    4    0    0  0.73117264798E+02 -0.65342960875E+01  0.13209126025E+02  0.74587615911E+02  0.00000000000E+00 0.  1.
</event>
<event>
12    1  0.8728348E-002  0.2100058E+03  0.7818608E-02  0.1141764E+00
         21   -1    0    0  501  502  0.00000000000E+00  0.00000000000E+00  0.27781802583E+02  0.27781802583E+02  0.00000000000E+00 0.  1.
         21   -1    0    0  502  503 -0.00000000000E+00 -0.00000000000E+00 -0.15871385937E+04  0.15871385937E+04  0.00000000000E+00 0. -1.
         -6    2    1    2    0  503  0.11198170029E+03  0.35657747802E+02 -0.72270866370E+03  0.75231820411E+03  0.17281056528E+03 0.  0.
        -24    2    3    3    0    0  0.58792254003E+01  0.54566075390E+02 -0.28171715193E+03  0.29832386111E+03  0.81366765558E+02 0.  0.
          6    2    1    2  501    0 -0.11198170029E+03 -0.35657747802E+02 -0.83664812740E+03  0.86260219215E+03  0.17404331832E+03 0.  0.
         24    2    5    5    0    0 -0.60334246875E+02  0.48910369150E+02 -0.46058468219E+03  0.47367413882E+03  0.78717817310E+02 0.  0.
          5    1    5    5  501    0 -0.51647453412E+02 -0.84568116953E+02 -0.37606344520E+03  0.38892805333E+03  0.47000000000E+01 0. -1.
        -11    1    6    6    0    0 -0.50542805143E+02  0.11890424368E+02 -0.11752342032E+03  0.12848233990E+03  0.00000000000E+00 0.  1.
         12    1    6    6    0    0 -0.97914417326E+01  0.37019944782E+02 -0.34306126188E+03  0.34519179892E+03  0.00000000000E+00 0. -1.
         -5    1    3    3    0  503  0.10610247489E+03 -0.18908327588E+02 -0.44099151177E+03  0.45399434300E+03  0.47000000000E+01 0.  1.
         13    1    4    4    0    0  0.68467455646E+01 -0.16257155866E+02 -0.12632095009E+03  0.12754667959E+03  0.00000000000E+00 0. -1.
        -14    1    4    4    0    0 -0.96752016424E+00  0.70823231256E+02 -0.15539620184E+03  0.17077718152E+03  0.00000000000E+00 0.  1.
</event>
<event>
12    1  0.8728348E-002  0.1730087E+03  0.7818608E-02  0.1174821E+00
         21   -1    0    0  501  502  0.00000000000E+00  0.00000000000E+00  0.16985009186E+03  0.16985009186E+03  0.00000000000E+00 0. -1.
         21   -1    0    0  502  503 -0.00000000000E+00 -0.00000000000E+00 -0.82952315660E+03  0.82952315660E+03  0.00000000000E+00 0. -1.
         -6    2    1    2    0  503  0.22423407423E+02  0.55911380333E+01 -0.77332239259E+03  0.79237521584E+03  0.17116334239E+03 0.  0.
        -24    2    3    3    0    0  0.78374484799E+02  0.21689677079E+02 -0.54038856255E+03  0.55222954089E+03  0.79527764609E+02 0.  0.
          6    2    1    2  501    0 -0.22423407423E+02 -0.55911380333E+01  0.11364932785E+03  0.20699803261E+03  0.17145829161E+03 0.  0.
         24    2    5    5    0    0 -0.76618549965E+02 -0.25122334916E+02  0.76012512809E+02  0.13802556729E+03  0.82289860924E+02 0.  0.
          5    1    5    5  501    0  0.54195142543E+02  0.19531196883E+02  0.37636815040E+02  0.68972465327E+02  0.47000000000E+01 0. -1.
        -13    1    6    6    0    0 -0.10145534167E+02 -0.42926539455E+02  0.16661931852E+02  0.47151242043E+02  0.00000000000E+00 0.  1.
         14    1    6    6    0    0 -0.66473015798E+02  0.17804204539E+02  0.59350580958E+02  0.90874325244E+02  0.00000000000E+00 0. -1.
         -5    1    3    3    0  503 -0.55951077377E+02 -0.16098539045E+02 -0.23293383004E+03  0.24014567495E+03  0.47000000000E+01 0.  1.
         13    1    4    4    0    0  0.65803189066E+02  0.22386727518E+02 -0.53324022555E+03  0.53775120958E+03  0.00000000000E+00 0. -1.
        -14    1    4    4    0    0  0.12571295734E+02 -0.69705043911E+00 -0.71483369943E+01  0.14478331310E+02  0.00000000000E+00 0.  1.
</event>
<event>
12    1  0.8728348E-002  0.1780316E+03  0.7818608E-02  0.1169794E+00
         21   -1    0    0  503  502  0.00000000000E+00  0.00000000000E+00  0.21676056000E+03  0.21676056000E+03  0.00000000000E+00 0.  1.
         21   -1    0    0  501  503 -0.00000000000E+00 -0.00000000000E+00 -0.46992619774E+03  0.46992619774E+03  0.00000000000E+00 0.  1.
          6    2    1    2  501    0 -0.20529151875E+02 -0.41767474974E+02 -0.41161907724E+03  0.44835350063E+03  0.17153608582E+03 0.  0.
         24    2    3    3    0    0 -0.52382747493E+02  0.47533423399E+01 -0.35814128942E+03  0.37050234915E+03  0.78995322881E+02 0.  0.
         -6    2    1    2    0  502  0.20529151875E+02  0.41767474974E+02  0.15845343951E+03  0.23833325711E+03  0.17184085926E+03 0.  0.
        -24    2    5    5    0    0  0.39509796584E+02 -0.18671176605E+02  0.14703310790E+03  0.17379172434E+03  0.81701846788E+02 0.  0.
          5    1    3    3  501    0  0.31853595619E+02 -0.46520817314E+02 -0.53477787823E+02  0.77851151487E+02  0.47000000000E+01 0. -1.
        -11    1    4    4    0    0 -0.94063256907E+01  0.33681612403E+02 -0.22384738632E+03  0.22656253516E+03  0.00000000000E+00 0.  1.
         12    1    4    4    0    0 -0.42976421803E+02 -0.28928270063E+02 -0.13429390311E+03  0.14393981399E+03  0.00000000000E+00 0. -1.
         -5    1    5    5    0  502 -0.18980644709E+02  0.60438651579E+02  0.11420331607E+02  0.64541532770E+02  0.47000000000E+01 0.  1.
         11    1    6    6    0    0  0.24182086580E+02 -0.16833593871E+02  0.37759992721E+01  0.29705241363E+02  0.00000000000E+00 0. -1.
        -12    1    6    6    0    0  0.15327710004E+02 -0.18375827336E+01  0.14325710863E+03  0.14408648298E+03  0.00000000000E+00 0.  1.
</event>
<event>
12    1  0.8728348E-002  0.2486273E+03  0.7818608E-02  0.1114288E+00
         21   -1    0    0  503  502  0.00000000000E+00  0.00000000000E+00  0.81111007524E+03  0.81111007524E+03  0.00000000000E+00 0.  1.
         21   -1    0    0  501  503 -0.00000000000E+00 -0.00000000000E+00 -0.32893257131E+03  0.32893257131E+03  0.00000000000E+00 0.  1.
          6    2    1    2  501    0 -0.16487221803E+03  0.71613368706E+02 -0.25868788628E+03  0.35879655023E+03  0.17176792220E+03 0.  0.
         24    2    3    3    0    0 -0.61610751178E+02 -0.12470475481E+02 -0.17229272119E+03  0.19999088931E+03  0.79750715444E+02 0.  0.
         -6    2    1    2    0  502  0.16487221803E+03 -0.71613368706E+02  0.74086539021E+03  0.78124609632E+03  0.17074136508E+03 0.  0.
        -24    2    5    5    0    0  0.20319913577E+02 -0.22422919628E+02  0.37626853247E+03  0.38593858605E+03  0.80342376503E+02 0.  0.
          5    1    3    3  501    0 -0.10326146685E+03  0.84083844186E+02 -0.86395165093E+02  0.15880566092E+03  0.47000000000E+01 0. -1.
        -13    1    4    4    0    0 -0.52388918876E+02  0.23539929539E+02 -0.13776014828E+03  0.14925342729E+03  0.00000000000E+00 0.  1.
         14    1    4    4    0    0 -0.92218323018E+01 -0.36010405020E+02 -0.34532572907E+02  0.50737462020E+02  0.00000000000E+00 0. -1.
         -5    1    5    5    0  502  0.14455230445E+03 -0.49190449078E+02  0.36459685774E+03  0.39530751027E+03  0.47000000000E+01 0.  1.
         13    1    6    6    0    0  0.26685789394E+02 -0.49589223572E+01  0.35618015538E+02  0.44781305222E+02  0.00000000000E+00 0. -1.
        -14    1    6    6    0    0 -0.63658758164E+01 -0.17463997270E+02  0.34065051693E+03  0.34115728082E+03  0.00000000000E+00 0.  1.
</event>
<event>
12    1  0.8728348E-002  0.2237551E+03  0.7818608E-02  0.1131116E+00
         21   -1    0    0  501  502  0.00000000000E+00  0.00000000000E+00  0.17778607109E+03  0.17778607109E+03  0.00000000000E+00 0.  1.
         21   -1    0    0  502  503 -0.00000000000E+00 -0.00000000000E+00 -0.11458150583E+04  0.11458150583E+04  0.00000000000E+00 0.  1.
         -6    2    1    2    0  503 -0.13602294441E+03 -0.44611797585E+02 -0.10587651335E+04  0.10821484919E+04  0.17195725229E+03 0.  0.
        -24    2    3    3    0    0 -0.79686146492E+02 -0.73145136127E+02 -0.44815717255E+03  0.46826563806E+03  0.82022945541E+02 0.  0.
          6    2    1    2  501    0  0.13602294441E+03  0.44611797585E+02  0.90736146327E+02  0.24145263749E+03  0.17197056147E+03 0.  0.
         24    2    5    5    0    0  0.11074113054E+03  0.92661293570E+02  0.50052789862E+02  0.17344418456E+03  0.82023716488E+02 0.  0.
          5    1    5    5  501    0  0.25281813873E+02 -0.48049495985E+02  0.40683356464E+02  0.68008452933E+02  0.47000000000E+01 0. -1.
        -13    1    6    6    0    0  0.64625380946E+02  0.10002411900E+03  0.31385166114E+02  0.12315150383E+03  0.00000000000E+00 0.  1.
         14    1    6    6    0    0  0.46115749591E+02 -0.73628254287E+01  0.18667623748E+02  0.50292680731E+02  0.00000000000E+00 0. -1.
         -5    1    3    3    0  503 -0.56336797918E+02  0.28533338542E+02 -0.61060796099E+03  0.61388285384E+03  0.47000000000E+01 0.  1.
         13    1    4    4    0    0 -0.32872927992E+02 -0.42828096263E+02 -0.35945148005E+03  0.36348348207E+03  0.00000000000E+00 0. -1.
        -14    1    4    4    0    0 -0.46813218500E+02 -0.30317039864E+02 -0.88705692503E+02  0.10478215599E+03  0.00000000000E+00 0.  1.
</event>
<event>
12    1  0.8728348E-002  0.1883148E+03  0.7818608E-02  0.1160036E+00
         21   -1    0    0  501  502  0.00000000000E+00  0.00000000000E+00  0.58410434788E+02  0.58410434788E+02  0.00000000000E+00 0. -1.
         21   -1    0    0  502  503 -0.00000000000E+00 -0.00000000000E+00 -0.13113903931E+04  0.13113903931E+04  0.00000000000E+00 0. -1.
         -6    2    1    2    0  503 -0.66131988603E+02 -0.38931876404E+02 -0.11287859746E+04  0.11443863967E+04  0.17196894368E+03 0.  0.
        -24    2    3    3    0    0  0.11439068316E+02 -0.11423671200E+02 -0.28501211505E+03  0.29659492099E+03  0.80469179737E+02 0.  0.
          6    2    1    2  501    0  0.66131988603E+02  0.38931876404E+02 -0.12419398375E+03  0.22541443122E+03  0.17175095134E+03 0.  0.
         24    2    5    5    0    0  0.78528165491E+02  0.11356266061E+02 -0.16722285149E+02  0.11367215861E+03  0.79662332812E+02 0.  0.
          5    1    5    5  501    0 -0.12396176888E+02  0.27575610343E+02 -0.10747169860E+03  0.11174227260E+03  0.47000000000E+01 0. -1.
        -11    1    6    6    0    0  0.29812636130E+02  0.16094983355E+02 -0.45626156290E+02  0.56829463309E+02  0.00000000000E+00 0.  1.
         12    1    6    6    0    0  0.48715529361E+02 -0.47387172941E+01  0.28903871141E+02  0.56842695304E+02  0.00000000000E+00 0. -1.
         -5    1    3    3    0  503 -0.77571056919E+02 -0.27508205204E+02 -0.84377385951E+03  0.84779147567E+03  0.47000000000E+01 0.  1.
         11    1    4    4    0    0  0.26799864361E+02 -0.15270908975E+02 -0.27724819987E+03  0.27895877423E+03  0.00000000000E+00 0. -1.
        -12    1    4    4    0    0 -0.15360796045E+02  0.38472377748E+01 -0.77639151765E+01  0.17636146759E+02  0.00000000000E+00 0.  1.
</event>
<event>
12    1  0.8728348E-002  0.1939496E+03  0.7818608E-02  0.1155325E+00
         21   -1    0    0  501  502  0.00000000000E+00  0.00000000000E+00  0.15251426018E+03  0.15251426018E+03  0.00000000000E+00 0.  1.
         21   -1    0    0  502  503 -0.00000000000E+00 -0.00000000000E+00 -0.49066532375E+03  0.49066532375E+03  0.00000000000E+00 0. -1.
         -6    2    1    2    0  503 -0.61342520388E+02  0.59500408885E+02 -0.39649981611E+03  0.44064312629E+03  0.17219482310E+03 0.  0.
        -24    2    3    3    0    0 -0.97524168421E+02  0.52513063711E+02 -0.20866537483E+03  0.24917040765E+03  0.79221639171E+02 0.  0.
          6    2    1    2  501    0  0.61342520388E+02 -0.59500408885E+02  0.58348752539E+02  0.20253645765E+03  0.17410696795E+03 0.  0.
         24    2    5    5    0    0  0.69805282978E+02 -0.85815747055E+01  0.93701170766E+02  0.13979708006E+03  0.76268559942E+02 0.  0.
          5    1    5    5  501    0 -0.84627625903E+01 -0.50918834180E+02 -0.35352418226E+02  0.62739377582E+02  0.47000000000E+01 0. -1.
        -13    1    6    6    0    0  0.29422073784E+02 -0.33772951667E+02  0.77511585701E+02  0.89522715597E+02  0.00000000000E+00 0.  1.
         14    1    6    6    0    0  0.40383209193E+02  0.25191376962E+02  0.16189585065E+02  0.50274364467E+02  0.00000000000E+00 0. -1.
         -5    1    3    3    0  503  0.36181648034E+02  0.69873451739E+01 -0.18783444129E+03  0.19147271863E+03  0.47000000000E+01 0.  1.
         13    1    4    4    0    0 -0.21679094900E+02  0.26058937296E+01 -0.12102835893E+03  0.12298226499E+03  0.00000000000E+00 0. -1.
        -14    1    4    4    0    0 -0.75845073521E+02  0.49907169982E+02 -0.87637015897E+02  0.12618814266E+03  0.00000000000E+00 0.  1.
</event>
<event>
12    1  0.8728348E-002  0.1966216E+03  0.7818608E-02  0.1152715E+00
         21   -1    0    0  503  502  0.00000000000E+00  0.00000000000E+00  0.81907267389E+02  0.81907267389E+02  0.00000000000E+00 0. -1.
         21   -1    0    0  501  503 -0.00000000000E+00 -0.00000000000E+00 -0.60681990961E+03  0.60681990961E+03  0.00000000000E+00 0.  1.
          6    2    1    2  501    0 -0.66776641920E+02 -0.66875976231E+02 -0.42517425422E+03  0.46825543820E+03  0.17192583534E+03 0.  0.
         24    2    3    3    0    0 -0.76356765138E+02 -0.17355141764E+02 -0.39238878534E+03  0.40791416894E+03  0.79331291625E+02 0.  0.
         -6    2    1    2    0  502  0.66776641920E+02  0.66875976231E+02 -0.99738388005E+02  0.22047173880E+03  0.17241962030E+03 0.  0.
        -24    2    5    5    0    0  0.23066797801E+02  0.89578832313E+02 -0.26638086710E+02  0.13220105172E+03  0.90615043195E+02 0.  0.
          5    1    3    3  501    0  0.95801232175E+01 -0.49520834467E+02 -0.32785468874E+02  0.60341269265E+02  0.47000000000E+01 0. -1.
        -11    1    4    4    0    0 -0.76667629609E+02 -0.41500411842E+02 -0.29853602322E+03  0.31100476970E+03  0.00000000000E+00 0.  1.
         12    1    4    4    0    0  0.31086447177E+00  0.24145270078E+02 -0.93852762122E+02  0.96909399244E+02  0.00000000000E+00 0. -1.
         -5    1    5    5    0  502  0.43709844119E+02 -0.22702856082E+02 -0.73100301295E+02  0.88270687075E+02  0.47000000000E+01 0.  1.
         13    1    6    6    0    0  0.94196769435E+01 -0.67708698197E+01  0.20896295367E+02  0.23900421584E+02  0.00000000000E+00 0. -1.
        -14    1    6    6    0    0  0.13647120858E+02  0.96349702132E+02 -0.47534382076E+02  0.10830063014E+03  0.00000000000E+00 0.  1.
</event>
<event>
12    1  0.8728348E-002  0.1763127E+03  0.7818608E-02  0.1172001E+00
         21   -1    0    0  503  502  0.00000000000E+00  0.00000000000E+00  0.89327984276E+02  0.89327984276E+02  0.00000000000E+00 0.  1.
         21   -1    0    0  501  503 -0.00000000000E+00 -0.00000000000E+00 -0.61718608937E+03  0.61718608937E+03  0.00000000000E+00 0.  1.
          6    2    1    2  501    0  0.13677290564E+02 -0.36285263325E+02 -0.50016773925E+03  0.53033379181E+03  0.17199556604E+03 0.  0.
         24    2    3    3    0    0  0.35989701553E+02 -0.49735877774E+02 -0.15948083913E+03  0.18861985205E+03  0.79839804496E+02 0.  0.
         -6    2    1    2    0  502 -0.13677290564E+02  0.36285263325E+02 -0.27690365837E+02  0.17618028183E+03  0.16961440603E+03 0.  0.
        -24    2    5    5    0    0 -0.35837884200E+02  0.52323060974E+02  0.33791645510E+02  0.10872340240E+03  0.81589498518E+02 0.  0.
          5    1    3    3  501    0 -0.22312410989E+02  0.13450614449E+02 -0.34068690012E+03  0.34171393976E+03  0.47000000000E+01 0. -1.
        -11    1    4    4    0    0  0.15892536364E+02 -0.55090381440E+02 -0.15763621166E+03  0.16773997158E+03  0.00000000000E+00 0.  1.
         12    1    4    4    0    0  0.20097165189E+02  0.53545036667E+01 -0.18446274773E+01  0.20879880476E+02  0.00000000000E+00 0. -1.
         -5    1    5    5    0  502  0.22160593636E+02 -0.16037797650E+02 -0.61482011347E+02  0.67456879434E+02  0.47000000000E+01 0.  1.
         11    1    6    6    0    0  0.26987635132E+01 -0.17222777787E+02 -0.76786124651E+01  0.19049107291E+02  0.00000000000E+00 0. -1.
        -12    1    6    6    0    0 -0.38536647713E+02  0.69545838761E+02  0.41470257975E+02  0.89674295104E+02  0.00000000000E+00 0.  1.
</event>
<event>
12    1  0.8728348E-002  0.2067334E+03  0.7818608E-02  0.1144472E+00
         21   -1    0    0  501  502  0.00000000000E+00  0.00000000000E+00  0.41213329529E+03  0.41213329529E+03  0.00000000000E+00 0. -1.
         21   -1    0    0  502  503 -0.00000000000E+00 -0.00000000000E+00 -0.14951857021E+03  0.14951857021E+03  0.00000000000E+00 0. -1.
         -6    2    1    2    0  503 -0.42454261317E+02 -0.10554586501E+03 -0.25051169359E+02  0.20824563402E+03  0.17261630594E+03 0.  0.
        -24    2    3    3    0    0 -0.66841333902E+02 -0.66943822467E+01 -0.16293114859E+02  0.10594637463E+03  0.80290659690E+02 0.  0.
          6    2    1    2  501    0  0.42454261317E+02  0.10554586501E+03  0.28766589443E+03  0.35340623148E+03  0.17088593770E+03 0.  0.
         24    2    5    5    0    0  0.51901458860E+02  0.11685500241E+03  0.14177324319E+03  0.20669596661E+03  0.79213111972E+02 0.  0.
          5    1    5    5  501    0 -0.94471975433E+01 -0.11309137406E+02  0.14589265124E+03  0.14671026487E+03  0.47000000000E+01 0. -1.
        -11    1    6    6    0    0 -0.91198006640E+01  0.76807866570E+02  0.76204417278E+02  0.10858053391E+03  0.00000000000E+00 0.  1.
         12    1    6    6    0    0  0.61021259524E+02  0.40047135844E+02  0.65568825913E+02  0.98115432705E+02  0.00000000000E+00 0. -1.
         -5    1    3    3    0  503  0.24387072585E+02 -0.98851482761E+02 -0.87580544998E+01  0.10229925939E+03  0.47000000000E+01 0.  1.
         13    1    4    4    0    0  0.21961151664E+01  0.16120059923E+02 -0.27918995249E+02  0.32313302980E+02  0.00000000000E+00 0. -1.
        -14    1    4    4    0    0 -0.69037449069E+02 -0.22814442170E+02  0.11625880390E+02  0.73633071648E+02  0.00000000000E+00 0.  1.
</event>
<event>
12    1  0.8728348E-002  0.1971812E+03  0.7818608E-02  0.1152315E+00
         21   -1    0    0  501  502  0.00000000000E+00  0.00000000000E+00  0.15665819328E+03  0.15665819328E+03  0.00000000000E+00 0.  1.
         21   -1    0    0  502  503 -0.00000000000E+00 -0.00000000000E+00 -0.49873975678E+03  0.49873975678E+03  0.00000000000E+00 0.  1.
         -6    2    1    2    0  503 -0.91294842802E+02  0.23256496520E+02 -0.40395869915E+03  0.44951426036E+03  0.17321901366E+03 0.  0.
        -24    2    3    3    0    0 -0.12563837185E+03  0.33551112608E+02 -0.36915494880E+03  0.39932613282E+03  0.79216832078E+02 0.  0.
          6    2    1    2  501    0  0.91294842802E+02 -0.23256496520E+02  0.61877135650E+02  0.20588368970E+03  0.17228958418E+03 0.  0.
         24    2    5    5    0    0  0.91046884639E+02 -0.47246076083E+02 -0.12559132132E+02  0.12753568799E+03  0.74738831963E+02 0.  0.
          5    1    5    5  501    0  0.24795816305E+00  0.23989579563E+02  0.74436267782E+02  0.78348001711E+02  0.47000000000E+01 0. -1.
        -13    1    6    6    0    0  0.25043932781E+02 -0.58739445189E+01  0.29392993598E+02  0.39059568175E+02  0.00000000000E+00 0.  1.
         14    1    6    6    0    0  0.66002951859E+02 -0.41372131564E+02 -0.41952125730E+02  0.88476119815E+02  0.00000000000E+00 0. -1.
         -5    1    3    3    0  503  0.34343529050E+02 -0.10294616088E+02 -0.34803750344E+02  0.50188127541E+02  0.47000000000E+01 0.  1.
         13    1    4    4    0    0 -0.33665809668E+02 -0.19617079438E+02 -0.52871658924E+02  0.65678222141E+02  0.00000000000E+00 0. -1.
        -14    1    4    4    0    0 -0.91972562184E+02  0.53168192046E+02 -0.31628328988E+03  0.33364791068E+03  0.00000000000E+00 0.  1.
</event>
<event>
12    1  0.8728348E-002  0.2579699E+03  0.7818608E-02  0.1108509E+00
         21   -1    0    0  501  502  0.00000000000E+00  0.00000000000E+00  0.20765034287E+03  0.20765034287E+03  0.00000000000E+00 0. -1.
         21   -1    0    0  502  503 -0.00000000000E+00 -0.00000000000E+00 -0.32984485474E+03  0.32984485474E+03  0.00000000000E+00 0. -1.
         -6    2    1    2    0  503 -0.70151431080E+02  0.17712851872E+03 -0.10915875053E+03  0.28011442362E+03  0.17393309655E+03 0.  0.
        -24    2    3    3    0    0 -0.54235141177E+02  0.20421146008E+03 -0.92512168734E+02  0.24425340464E+03  0.80358281142E+02 0.  0.
          6    2    1    2  501    0  0.70151431080E+02 -0.17712851872E+03 -0.13035761347E+02  0.25738077399E+03  0.17256649826E+03 0.  0.
         24    2    5    5    0    0  0.40037297101E+02 -0.18286267483E+03  0.29068865129E+02  0.20508707282E+03  0.78574585675E+02 0.  0.
          5    1    5    5  501    0  0.30114133979E+02  0.57341561095E+01 -0.42104626476E+02  0.52293701172E+02  0.47000000000E+01 0. -1.
        -13    1    6    6    0    0  0.42776266210E+02 -0.36065946322E+02  0.12520123107E+02  0.57335110687E+02  0.00000000000E+00 0.  1.
         14    1    6    6    0    0 -0.27389691085E+01 -0.14679672850E+03  0.16548742022E+02  0.14775196213E+03  0.00000000000E+00 0. -1.
         -5    1    3    3    0  503 -0.15916289903E+02 -0.27082941359E+02 -0.16646581797E+02  0.35861018982E+02  0.47000000000E+01 0.  1.
         11    1    4    4    0    0 -0.40277717607E+02  0.28844580157E+02 -0.27795883501E+02  0.56805945813E+02  0.00000000000E+00 0. -1.
        -12    1    4    4    0    0 -0.13957423569E+02  0.17536687992E+03 -0.64716285233E+02  0.18744745882E+03  0.00000000000E+00 0.  1.
</event>
<event>
12    1  0.8728348E-002  0.2130391E+03  0.7818608E-02  0.1140231E+00
         21   -1    0    0  503  502  0.00000000000E+00  0.00000000000E+00  0.12784349994E+04  0.12784349994E+04  0.00000000000E+00 0.  1.
         21   -1    0    0  501  503 -0.00000000000E+00 -0.00000000000E+00 -0.47027319041E+02  0.47027319041E+02  0.00000000000E+00 0.  1.
          6    2    1    2  501    0 -0.12627385173E+03  0.43396487013E+02  0.26955994564E+03  0.34030410371E+03  0.15910995567E+03 0.  0.
         24    2    3    3    0    0 -0.13572456543E+03  0.68760886306E+02  0.25822243620E+03  0.31058377630E+03  0.81450834221E+02 0.  0.
         -6    2    1    2    0  502  0.12627385173E+03 -0.43396487013E+02  0.96184773471E+03  0.98515821472E+03  0.16600392331E+03 0.  0.
        -24    2    5    5    0    0  0.99926089645E+02  0.18523817479E+02  0.41894007202E+03  0.43807581793E+03  0.77918438792E+02 0.  0.
          5    1    3    3  501    0  0.94507137009E+01 -0.25364399293E+02  0.11337509434E+02  0.29720327406E+02  0.47000000000E+01 0. -1.
        -11    1    4    4    0    0 -0.89298621466E+02  0.84594728601E+02  0.17337829998E+03  0.21258068305E+03  0.00000000000E+00 0.  1.
         12    1    4    4    0    0 -0.46425943964E+02 -0.15833842295E+02  0.84844136221E+02  0.98003093246E+02  0.00000000000E+00 0. -1.
         -5    1    5    5    0  502  0.26347762084E+02 -0.61920304492E+02  0.54290766268E+03  0.54708239679E+03  0.47000000000E+01 0.  1.
         13    1    6    6    0    0  0.77036373584E+02  0.46871957069E+02  0.32621243517E+03  0.33844665174E+03  0.00000000000E+00 0. -1.
        -14    1    6    6    0    0  0.22889716062E+02 -0.28348139591E+02  0.92727636851E+02  0.99629166189E+02  0.00000000000E+00 0.  1.
</event>
<event>
12    1  0.8728348E-002  0.2130534E+03  0.7818608E-02  0.1139333E+00
         21   -1    0    0  503  502  0.00000000000E+00  0.00000000000E+00  0.10760621587E+04  0.10760621587E+04  0.00000000000E+00 0.  1.
         21   -1    0    0  501  503 -0.00000000000E+00 -0.00000000000E+00 -0.50536011279E+02  0.50536011279E+02  0.00000000000E+00 0. -1.
          6    2    1    2  501    0 -0.11727774843E+03 -0.46901826378E+02  0.28066779946E+03  0.35186872932E+03  0.17053837523E+03 0.  0.
         24    2    3    3    0    0 -0.71890750383E+02 -0.79431323275E+01  0.60244324349E+02  0.12342539321E+03  0.79831545963E+02 0.  0.
         -6    2    1    2    0  502  0.11727774843E+03  0.46901826378E+02  0.74485834792E+03  0.77472944062E+03  0.17157475367E+03 0.  0.
        -24    2    5    5    0    0  0.10035306545E+03  0.88841797171E+02  0.66014505403E+03  0.67858455929E+03  0.81987249451E+02 0.  0.
          5    1    3    3  501    0 -0.45386998048E+02 -0.38958694051E+02  0.22042347511E+03  0.22844333611E+03  0.47000000000E+01 0. -1.
        -11    1    4    4    0    0 -0.77531890102E+02  0.19279430141E+02  0.45960067040E+02  0.92169507819E+02  0.00000000000E+00 0.  1.
         12    1    4    4    0    0  0.56411397186E+01 -0.27222562468E+02  0.14284257309E+02  0.31255885390E+02  0.00000000000E+00 0. -1.
         -5    1    5    5    0  502  0.16924682986E+02 -0.41939970793E+02  0.84713293892E+02  0.96144881332E+02  0.47000000000E+01 0.  1.
         13    1    6    6    0    0  0.94358011934E+02  0.84515265071E+02  0.42874907165E+03  0.44707049879E+03  0.00000000000E+00 0. -1.
        -14    1    6    6    0    0  0.59950535108E+01  0.43265321003E+01  0.23139598238E+03  0.23151406049E+03  0.00000000000E+00 0.  1.
</event>
<event>
12    1  0.8728348E-002  0.1816212E+03  0.7818608E-02  0.1166344E+00
         21   -1    0    0  503  502  0.00000000000E+00  0.00000000000E+00  0.17426729940E+03  0.17426729940E+03  0.00000000000E+00 0.  1.
         21   -1    0    0  501  503 -0.00000000000E+00 -0.00000000000E+00 -0.38115623846E+03  0.38115623846E+03  0.00000000000E+00 0.  1.
          6    2    1    2  501    0  0.45456552627E+02 -0.31788171563E+02 -0.30076667804E+03  0.35135002920E+03  0.17294352364E+03 0.  0.
         24    2    3    3    0    0  0.77102197379E+02 -0.51573912000E+02 -0.28535716532E+03  0.31069950105E+03  0.80627854456E+02 0.  0.
         -6    2    1    2    0  502 -0.45456552627E+02  0.31788171563E+02  0.93877738986E+02  0.20407350866E+03  0.17249980009E+03 0.  0.
        -24    2    5    5    0    0 -0.12118087975E+02  0.11162174935E+02 -0.19435293231E+02  0.84078432790E+02  0.80124965098E+02 0.  0.
          5    1    3    3  501    0 -0.31645644753E+02  0.19785740437E+02 -0.15409512722E+02  0.40650528149E+02  0.47000000000E+01 0. -1.
        -11    1    4    4    0    0  0.86653572918E+02 -0.19365577718E+02 -0.19374985001E+03  0.21312642183E+03  0.00000000000E+00 0.  1.
         12    1    4    4    0    0 -0.95513755386E+01 -0.32208334282E+02 -0.91607315308E+02  0.97573079227E+02  0.00000000000E+00 0. -1.
         -5    1    5    5    0  502 -0.33338464652E+02  0.20625996628E+02  0.11331303222E+03  0.11999507587E+03  0.47000000000E+01 0.  1.
         11    1    6    6    0    0 -0.50614823891E+01 -0.34854764686E+02 -0.73201299700E+01  0.35973011106E+02  0.00000000000E+00 0. -1.
        -12    1    6    6    0    0 -0.70566055862E+01  0.46016939621E+02 -0.12115163261E+02  0.48105421684E+02  0.00000000000E+00 0.  1.
</event>
<event>
12    1  0.8728348E-002  0.1800471E+03  0.7818608E-02  0.1167992E+00
         21   -1    0    0  503  502  0.00000000000E+00  0.00000000000E+00  0.20311488577E+03  0.20311488577E+03  0.00000000000E+00 0. -1.
         21   -1    0    0  501  503 -0.00000000000E+00 -0.00000000000E+00 -0.15875523055E+03  0.15875523055E+03  0.00000000000E+00 0.  1.
          6    2    1    2  501    0 -0.40256046326E+02  0.36970839104E+02  0.23763220701E+02  0.18160850624E+03  0.17155047849E+03 0.  0.
         24    2    3    3    0    0 -0.85674997638E+02  0.22579450246E+02  0.46821958389E+02  0.12846917433E+03  0.80386542237E+02 0.  0.
         -6    2    1    2    0  502  0.40256046326E+02 -0.36970839104E+02  0.20596434520E+02  0.18026161009E+03  0.17053633849E+03 0.  0.
        -24    2    5    5    0    0  0.80337588430E+02  0.13095126658E+02  0.99363891575E+01  0.11507834911E+03  0.80738368489E+02 0.  0.
          5    1    3    3  501    0  0.45418951312E+02  0.14391388859E+02 -0.23058737688E+02  0.53139331905E+02  0.47000000000E+01 0. -1.
        -13    1    4    4    0    0 -0.55001393615E+02  0.53025785654E+02  0.28933847955E+02  0.81694888465E+02  0.00000000000E+00 0.  1.
         14    1    4    4    0    0 -0.30673604023E+02 -0.30446335409E+02  0.17888110434E+02  0.46774285868E+02  0.00000000000E+00 0. -1.
         -5    1    5    5    0  502 -0.40081542104E+02 -0.50065965763E+02  0.10660045362E+02  0.65183260983E+02  0.47000000000E+01 0.  1.
         11    1    6    6    0    0  0.22313533488E+01 -0.26728888716E+02 -0.19038720793E+00  0.26822540466E+02  0.00000000000E+00 0. -1.
        -12    1    6    6    0    0  0.78106235082E+02  0.39824015374E+02  0.10126776365E+02  0.88255808640E+02  0.00000000000E+00 0.  1.
</event>
<event>
12    1  0.8728348E-002  0.2228770E+03  0.7818608E-02  0.1131996E+00
         21   -1    0    0  501  502  0.00000000000E+00  0.00000000000E+00  0.20538676341E+03  0.20538676341E+03  0.00000000000E+00 0. -1.
         21   -1    0    0  502  503 -0.00000000000E+00 -0.00000000000E+00 -0.24188416578E+03  0.24188416578E+03  0.00000000000E+00 0. -1.
         -6    2    1    2    0  503 -0.10219804388E+03 -0.98682240569E+02 -0.35559648254E+02  0.22569594232E+03  0.17173102521E+03 0.  0.
        -24    2    3    3    0    0 -0.17078125314E+02 -0.99910956518E+02  0.40587327333E+01  0.13168202637E+03  0.83963213144E+02 0.  0.
          6    2    1    2  501    0  0.10219804388E+03  0.98682240569E+02 -0.93775411554E+00  0.22157498688E+03  0.17003520415E+03 0.  0.
         24    2    5    5    0    0  0.10611304751E+03  0.13730350230E+03  0.68647831944E+01  0.18170145306E+03  0.53442138801E+02 0.  0.
          5    1    5    5  501    0 -0.39150036291E+01 -0.38621261727E+02 -0.78025373099E+01  0.39873533820E+02  0.47000000000E+01 0. -1.
        -11    1    6    6    0    0  0.94166855975E+01  0.18090869543E+02  0.18802040377E+02  0.27739326790E+02  0.00000000000E+00 0.  1.
         12    1    6    6    0    0  0.96696361915E+02  0.11921263275E+03 -0.11937257182E+02  0.15396212627E+03  0.00000000000E+00 0. -1.
         -5    1    3    3    0  503 -0.85119918569E+02  0.12287159487E+01 -0.39618380988E+02  0.94013915949E+02  0.47000000000E+01 0.  1.
         11    1    4    4    0    0 -0.51331757951E+02 -0.59727596510E+02  0.44248283190E+01  0.78879111715E+02  0.00000000000E+00 0. -1.
        -12    1    4    4    0    0  0.34253632637E+02 -0.40183360007E+02 -0.36609558574E+00  0.52802914657E+02  0.00000000000E+00 0.  1.
</event>
<event>
12    1  0.8728348E-002  0.1789464E+03  0.7818608E-02  0.1169104E+00
         21   -1    0    0  501  502  0.00000000000E+00  0.00000000000E+00  0.13713097874E+04  0.13713097874E+04  0.00000000000E+00 0.  1.
         21   -1    0    0  502  503 -0.00000000000E+00 -0.00000000000E+00 -0.26128419078E+02  0.26128419078E+02  0.00000000000E+00 0. -1.
         -6    2    1    2    0  503  0.72144345596E+01 -0.48292377400E+02  0.43691680843E+03  0.47171344244E+03  0.17097681861E+03 0.  0.
        -24    2    3    3    0    0  0.77862108111E+01  0.39802968651E+02  0.24092220911E+03  0.25677835948E+03  0.79036154125E+02 0.  0.
          6    2    1    2  501    0 -0.72144345596E+01  0.48292377400E+02  0.90826455984E+03  0.92572476400E+03  0.17215581962E+03 0.  0.
         24    2    5    5    0    0  0.20182087239E+02  0.85506117840E+02  0.52675189358E+03  0.54139491035E+03  0.89007183590E+02 0.  0.
          5    1    5    5  501    0 -0.27396521799E+02 -0.37213740441E+02  0.38151266626E+03  0.38432985365E+03  0.47000000000E+01 0. -1.
        -13    1    6    6    0    0  0.38501809397E+02  0.21462094636E+02  0.34530270905E+03  0.34810482862E+03  0.00000000000E+00 0.  1.
         14    1    6    6    0    0 -0.18319722158E+02  0.64044023205E+02  0.18144918453E+03  0.19329008173E+03  0.00000000000E+00 0. -1.
         -5    1    3    3    0  503 -0.57177625147E+00 -0.88095346051E+02  0.19599459932E+03  0.21493508296E+03  0.47000000000E+01 0.  1.
         11    1    4    4    0    0  0.16194864832E+02  0.14917448026E+02  0.96853396681E+01  0.24054307453E+02  0.00000000000E+00 0. -1.
        -12    1    4    4    0    0 -0.84086540214E+01  0.24885520625E+02  0.23123686945E+03  0.23272405202E+03  0.00000000000E+00 0.  1.
</event>
<event>
12    1  0.8728348E-002  0.1883004E+03  0.7818608E-02  0.1160203E+00
         21   -1    0    0  503  502  0.00000000000E+00  0.00000000000E+00  0.22371563316E+03  0.22371563316E+03  0.00000000000E+00 0. -1.
         21   -1    0    0  501  503 -0.00000000000E+00 -0.00000000000E+00 -0.27343694415E+03  0.27343694415E+03  0.00000000000E+00 0.  1.
          6    2    1    2  501    0 -0.44328982970E+02 -0.59013165789E+02 -0.18657359901E+03  0.26507872880E+03  0.17323224916E+03 0.  0.
         24    2    3    3    0    0  0.30210318748E+02 -0.69436499987E+02 -0.12952803596E+03  0.17052165789E+03  0.81031060830E+02 0.  0.
         -6    2    1    2    0  502  0.44328982970E+02  0.59013165789E+02  0.13685228802E+03  0.23207384851E+03  0.17228496730E+03 0.  0.
        -24    2    5    5    0    0 -0.41336035495E+02  0.19610913071E+02  0.62887208167E+02  0.11214071737E+03  0.80792844973E+02 0.  0.
          5    1    3    3  501    0 -0.74539301718E+02  0.10423334198E+02 -0.57045563052E+02  0.94557070916E+02  0.47000000000E+01 0. -1.
        -11    1    4    4    0    0 -0.87565125217E+01  0.15270254191E+02 -0.22729326904E+02  0.28748556070E+02  0.00000000000E+00 0.  1.
         12    1    4    4    0    0  0.38966831270E+02 -0.84706754178E+02 -0.10679870906E+03  0.14177310182E+03  0.00000000000E+00 0. -1.
         -5    1    5    5    0  502  0.85665018464E+02  0.39402252718E+02  0.73965079857E+02  0.11993313114E+03  0.47000000000E+01 0.  1.
         11    1    6    6    0    0  0.10735907452E+02  0.29464596989E+02  0.47568150993E+02  0.56975004813E+02  0.00000000000E+00 0. -1.
        -12    1    6    6    0    0 -0.52071942947E+02 -0.98536839175E+01  0.15319057173E+02  0.55165712555E+02  0.00000000000E+00 0.  1.
</event>
<event>
12    1  0.8728348E-002  0.1949821E+03  0.7818608E-02  0.1154125E+00
         21   -1    0    0  503  502  0.00000000000E+00  0.00000000000E+00  0.17029699810E+04  0.17029699810E+04  0.00000000000E+00 0.  1.
         21   -1    0    0  501  503 -0.00000000000E+00 -0.00000000000E+00 -0.31006914773E+02  0.31006914773E+02  0.00000000000E+00 0. -1.
          6    2    1    2  501    0 -0.91129576222E+02  0.47608329115E+01  0.37664744302E+03  0.42412419538E+03  0.17231010294E+03 0.  0.
         24    2    3    3    0    0 -0.11609847768E+03 -0.34152639678E+02  0.31555434111E+03  0.34736377921E+03  0.80260784919E+02 0.  0.
         -6    2    1    2    0  502  0.91129576222E+02 -0.47608329115E+01  0.12953156232E+04  0.13098527004E+04  0.17188446071E+03 0.  0.
        -24    2    5    5    0    0 -0.11913005395E+02  0.26013860737E+02  0.46149208036E+03  0.46910978726E+03  0.79185930687E+02 0.  0.
          5    1    3    3  501    0  0.24968901455E+02  0.38913472589E+02  0.61093101915E+02  0.76760416168E+02  0.47000000000E+01 0. -1.
        -11    1    4    4    0    0 -0.53994150781E+02 -0.35654632576E+02  0.24480406584E+03  0.25321068657E+03  0.00000000000E+00 0.  1.
         12    1    4    4    0    0 -0.62104326896E+02  0.15019928986E+01  0.70750275269E+02  0.94153092634E+02  0.00000000000E+00 0. -1.
         -5    1    5    5    0  502  0.10304258162E+03 -0.30774693649E+02  0.83382354286E+03  0.84074291316E+03  0.47000000000E+01 0.  1.
         13    1    6    6    0    0 -0.44124029706E+02  0.14753856674E+02  0.19666007886E+03  0.20208857687E+03  0.00000000000E+00 0. -1.
        -14    1    6    6    0    0  0.32211024311E+02  0.11260004063E+02  0.26483200150E+03  0.26702121039E+03  0.00000000000E+00 0.  1.
</event>
<event>
12    1  0.8728348E-002  0.1763443E+03  0.7818608E-02  0.1171520E+00
         21   -1    0    0  503  502  0.00000000000E+00  0.00000000000E+00  0.33011724786E+02  0.33011724786E+02  0.00000000000E+00 0.  1.
         21   -1    0    0  501  503 -0.00000000000E+00 -0.00000000000E+00 -0.15485350582E+04  0.15485350582E+04  0.00000000000E+00 0.  1.
          6    2    1    2  501    0  0.33920351701E+02 -0.17448769287E+02 -0.12531197832E+04  0.12653934502E+04  0.17162850253E+03 0.  0.
         24    2    3    3    0    0  0.45441517874E+02  0.12789762324E+02 -0.11960824539E+04  0.11996480854E+04  0.79459313750E+02 0.  0.
         -6    2    1    2    0  502 -0.33920351701E+02  0.17448769287E+02 -0.26240355019E+03  0.31615333280E+03  0.17216926809E+03 0.  0.
        -24    2    5    5    0    0  0.20173934619E+02  0.37835849826E+02 -0.23510340645E+03  0.25205019158E+03  0.80107104438E+02 0.  0.
          5    1    3    3  501    0 -0.11521166173E+02 -0.30238531611E+02 -0.57037329273E+02  0.65745364815E+02  0.47000000000E+01 0. -1.
        -11    1    4    4    0    0 -0.97580336754E+01  0.24413535129E+00 -0.74023098138E+03  0.74029533608E+03  0.00000000000E+00 0.  1.
         12    1    4    4    0    0  0.55199551549E+02  0.12545626972E+02 -0.45585147254E+03  0.45935274928E+03  0.00000000000E+00 0. -1.
         -5    1    5    5    0  502 -0.54094286320E+02 -0.20387080539E+02 -0.27300143749E+02  0.64103141219E+02  0.47000000000E+01 0.  1.
         13    1    6    6    0    0  0.37203566928E+01  0.33761507987E+02 -0.23241975668E+03  0.23488853478E+03  0.00000000000E+00 0. -1.
        -14    1    6    6    0    0  0.16453577927E+02  0.40743418388E+01 -0.26836497667E+01  0.17161656799E+02  0.00000000000E+00 0.  1.
</event>
<event>
12    1  0.8728348E-002  0.1795780E+03  0.7818608E-02  0.1168657E+00
         21   -1    0    0  503  502  0.00000000000E+00  0.00000000000E+00  0.15368682477E+04  0.15368682477E+04  0.00000000000E+00 0. -1.
         21   -1    0    0  501  503 -0.00000000000E+00 -0.00000000000E+00 -0.25020977609E+02  0.25020977609E+02  0.00000000000E+00 0. -1.
          6    2    1    2  501    0 -0.20253056600E+02 -0.47164158645E+02  0.43726169275E+03  0.47270078626E+03  0.17208602855E+03 0.  0.
         24    2    3    3    0    0  0.22036591417E+02  0.22288720162E+02  0.16414044541E+03  0.18769302768E+03  0.85464544760E+02 0.  0.
         -6    2    1    2    0  502  0.20253056600E+02  0.47164158645E+02  0.10745855774E+04  0.10891884391E+04  0.17018416075E+03 0.  0.
        -24    2    5    5    0    0  0.75083586753E+02  0.48385638374E+02  0.82897779624E+03  0.83748792021E+03  0.78759855463E+02 0.  0.
          5    1    3    3  501    0 -0.42289648016E+02 -0.69452878807E+02  0.27312124733E+03  0.28500775858E+03  0.47000000000E+01 0. -1.
        -11    1    4    4    0    0  0.13819797743E+02  0.53861867637E+02  0.12449861937E+03  0.13635246173E+03  0.00000000000E+00 0.  1.
         12    1    4    4    0    0  0.82167936738E+01 -0.31573147475E+02  0.39641826039E+02  0.51340565945E+02  0.00000000000E+00 0. -1.
         -5    1    5    5    0  502 -0.54830530153E+02 -0.12214797289E+01  0.24560778113E+03  0.25170051888E+03  0.47000000000E+01 0.  1.
         11    1    6    6    0    0 -0.29091515496E+01  0.35078542096E+02  0.37678302332E+03  0.37842359062E+03  0.00000000000E+00 0. -1.
        -12    1    6    6    0    0  0.77992738303E+02  0.13307096278E+02  0.45219477292E+03  0.45906432958E+03  0.00000000000E+00 0.  1.
</event>
<event>
12    1  0.8728348E-002  0.1900094E+03  0.7818608E-02  0.1158492E+00
         21   -1    0    0  503  502  0.00000000000E+00  0.00000000000E+00  0.42425376880E+03  0.42425376880E+03  0.00000000000E+00 0. -1.
         21   -1    0    0  501  503 -0.00000000000E+00 -0.00000000000E+00 -0.95264051516E+02  0.95264051516E+02  0.00000000000E+00 0. -1.
          6    2    1    2  501    0 -0.29331416228E+02 -0.69407499744E+02  0.79386981233E+02  0.20592682570E+03  0.17443001965E+03 0.  0.
         24    2    3    3    0    0  0.32481909028E+02 -0.38679941222E+02 -0.72443524474E+01  0.95056865807E+02  0.80200466505E+02 0.  0.
         -6    2    1    2    0  502  0.29331416228E+02  0.69407499744E+02  0.24960273606E+03  0.31359099462E+03  0.17424136438E+03 0.  0.
        -24    2    5    5    0    0 -0.23170459931E+02  0.82754602186E+02  0.10245423004E+03  0.15671727162E+03  0.81720496667E+02 0.  0.
          5    1    3    3  501    0 -0.61813325256E+02 -0.30727558522E+02  0.86631333680E+02  0.11086995989E+03  0.47000000000E+01 0. -1.
        -13    1    4    4    0    0 -0.95199039794E+01  0.14742238392E+02  0.15480919280E+02  0.23401303945E+02  0.00000000000E+00 0.  1.
         14    1    4    4    0    0  0.42001813007E+02 -0.53422179614E+02 -0.22725271728E+02  0.71655561862E+02  0.00000000000E+00 0. -1.
         -5    1    5    5    0  502  0.52501876160E+02 -0.13347102442E+02  0.14714850602E+03  0.15687372300E+03  0.47000000000E+01 0.  1.
         13    1    6    6    0    0 -0.40756037257E+02  0.46514070282E+02  0.98415444421E+02  0.11623344186E+03  0.00000000000E+00 0. -1.
        -14    1    6    6    0    0  0.17585577325E+02  0.36240531904E+02  0.40387856170E+01  0.40483829757E+02  0.00000000000E+00 0.  1.
</event>
<event>
12    1  0.8728348E-002  0.1988591E+03  0.7818608E-02  0.1151355E+00
         21   -1    0    0  503  502  0.00000000000E+00  0.00000000000E+00  0.75839633885E+02  0.75839633885E+02  0.00000000000E+00 0.  1.
         21   -1    0    0  501  503 -0.00000000000E+00 -0.00000000000E+00 -0.70352194659E+03  0.70352194659E+03  0.00000000000E+00 0. -1.
          6    2    1    2  501    0  0.96482501595E+02  0.24688367965E+02 -0.51811824818E+03  0.55496978003E+03  0.17212364457E+03 0.  0.
         24    2    3    3    0    0  0.61641655060E+02  0.80901371990E+02 -0.38291888117E+03  0.40438842245E+03  0.80983955378E+02 0.  0.
         -6    2    1    2    0  502 -0.96482501595E+02 -0.24688367965E+02 -0.10956406452E+03  0.22439180045E+03  0.16860903667E+03 0.  0.
        -24    2    5    5    0    0 -0.66795457855E+02 -0.66636073218E+02 -0.12483592084E+03  0.17057498024E+03  0.67895635418E+02 0.  0.
          5    1    3    3  501    0  0.34840846536E+02 -0.56213004025E+02 -0.13519936701E+03  0.15058135757E+03  0.47000000000E+01 0. -1.
        -13    1    4    4    0    0  0.71732132875E+02  0.30315797318E+02 -0.24828592537E+03  0.26021231176E+03  0.00000000000E+00 0.  1.
         14    1    4    4    0    0 -0.10090477815E+02  0.50585574672E+02 -0.13463295580E+03  0.14417611070E+03  0.00000000000E+00 0. -1.
         -5    1    5    5    0  502 -0.29687043740E+02  0.41947705253E+02  0.15271856313E+02  0.53816820208E+02  0.47000000000E+01 0.  1.
         13    1    6    6    0    0  0.10970616511E+02 -0.22930044547E+02 -0.40484341606E+02  0.47802963138E+02  0.00000000000E+00 0. -1.
        -14    1    6    6    0    0 -0.77766074366E+02 -0.43706028671E+02 -0.84351579231E+02  0.12277201710E+03  0.00000000000E+00 0.  1.
</event>
<event>
12    1  0.8728348E-002  0.1765998E+03  0.7818608E-02  0.1173122E+00
         21   -1    0    0  503  502  0.00000000000E+00  0.00000000000E+00  0.35738198695E+03  0.35738198695E+03  0.00000000000E+00 0. -1.
         21   -1    0    0  501  503 -0.00000000000E+00 -0.00000000000E+00 -0.84393553308E+02  0.84393553308E+02  0.00000000000E+00 0.  1.
          6    2    1    2  501    0 -0.32101956349E+02 -0.36101985061E+00  0.11004520907E+03  0.20148825329E+03  0.16570124392E+03 0.  0.
         24    2    3    3    0    0 -0.50848962081E+02  0.32317899609E+02  0.16319405764E+02  0.10036467441E+03  0.78591865256E+02 0.  0.
         -6    2    1    2    0  502  0.32101956349E+02  0.36101985061E+00  0.16294322457E+03  0.24028728697E+03  0.17365719077E+03 0.  0.
        -24    2    5    5    0    0  0.33567734821E+02  0.64403581809E+02  0.12487531533E+03  0.16562234229E+03  0.81008034899E+02 0.  0.
          5    1    3    3  501    0  0.18747005732E+02 -0.32678919460E+02  0.93725803304E+02  0.10112357888E+03  0.47000000000E+01 0. -1.
        -11    1    4    4    0    0 -0.59407880376E+02  0.27867680405E+01 -0.94849792803E+01  0.60224805179E+02  0.00000000000E+00 0.  1.
         12    1    4    4    0    0  0.85589182950E+01  0.29531131568E+02  0.25804385045E+02  0.40139869228E+02  0.00000000000E+00 0. -1.
         -5    1    5    5    0  502 -0.14657784722E+01 -0.64042561959E+02  0.38067909244E+02  0.74664944672E+02  0.47000000000E+01 0.  1.
         11    1    6    6    0    0 -0.19490730386E+02  0.49611862027E+02  0.54215477237E+02  0.76029884893E+02  0.00000000000E+00 0. -1.
        -12    1    6    6    0    0  0.53058465207E+02  0.14791719782E+02  0.70659838089E+02  0.89592457401E+02  0.00000000000E+00 0.  1.
</event>
<event>
12    1  0.8728348E-002  0.1816423E+03  0.7818608E-02  0.1166855E+00
         21   -1    0    0  503  502  0.00000000000E+00  0.00000000000E+00  0.32733363497E+03  0.32733363497E+03  0.00000000000E+00 0.  1.
         21   -1    0    0  501  503 -0.00000000000E+00 -0.00000000000E+00 -0.10612933142E+03  0.10612933142E+03  0.00000000000E+00 0.  1.
          6    2    1    2  501    0 -0.46095244199E+02  0.23234558159E+02  0.56565563222E+02  0.19024614371E+03  0.17415313957E+03 0.  0.
         24    2    3    3    0    0 -0.14369332274E+02  0.26789158137E+02  0.93807542848E+02  0.14096913370E+03  0.10073879520E+03 0.  0.
         -6    2    1    2    0  502  0.46095244199E+02 -0.23234558159E+02  0.16463874032E+03  0.24321682269E+03  0.17141730307E+03 0.  0.
        -24    2    5    5    0    0  0.18423336804E+02 -0.73964643878E+02  0.90767755854E+02  0.14931108057E+03  0.90801020898E+02 0.  0.
          5    1    3    3  501    0 -0.31725911925E+02 -0.35545999786E+01 -0.37241979625E+02  0.49277010003E+02  0.47000000000E+01 0. -1.
        -13    1    4    4    0    0 -0.16805036259E+02  0.30805220363E+02 -0.10443771897E+02  0.36612063814E+02  0.00000000000E+00 0.  1.
         14    1    4    4    0    0  0.24357039850E+01 -0.40160622257E+01  0.10425131474E+03  0.10435706989E+03  0.00000000000E+00 0. -1.
         -5    1    5    5    0  502  0.27671907395E+02  0.50730085719E+02  0.73870984470E+02  0.93905742117E+02  0.47000000000E+01 0.  1.
         13    1    6    6    0    0  0.15420475871E+02  0.19468785362E+02  0.22998225361E+02  0.33848826410E+02  0.00000000000E+00 0. -1.
        -14    1    6    6    0    0  0.30028609324E+01 -0.93433429239E+02  0.67769530493E+02  0.11546225416E+03  0.00000000000E+00 0.  1.
</event>
<event>
12    1  0.8728348E-002  0.1973988E+03  0.7818608E-02  0.1152256E+00
         21   -1    0    0  503  502  0.00000000000E+00  0.00000000000E+00  0.10020693195E+03  0.10020693195E+03  0.00000000000E+00 0. -1.
         21   -1    0    0  501  503 -0.00000000000E+00 -0.00000000000E+00 -0.46324533724E+03  0.46324533724E+03  0.00000000000E+00 0. -1.
          6    2    1    2  501    0 -0.40131994610E+02  0.85803282574E+02 -0.29703661526E+03  0.35664695594E+03  0.17318637384E+03 0.  0.
         24    2    3    3    0    0 -0.98458093913E+02  0.73920575926E+02 -0.20495441943E+03  0.24690018667E+03  0.61604710293E+02 0.  0.
         -6    2    1    2    0  502  0.40131994610E+02 -0.85803282574E+02 -0.66001790035E+02  0.20680531325E+03  0.17157919749E+03 0.  0.
        -24    2    5    5    0    0 -0.43494248614E+02 -0.44565196477E+02 -0.47536116683E+02  0.11163704442E+03  0.79532011779E+02 0.  0.
          5    1    3    3  501    0  0.58326099302E+02  0.11882706648E+02 -0.92082195826E+02  0.10974676927E+03  0.47000000000E+01 0. -1.
        -13    1    4    4    0    0 -0.40924733966E+02  0.27258479318E+02 -0.13998021676E+03  0.14836549339E+03  0.00000000000E+00 0.  1.
         14    1    4    4    0    0 -0.57533359946E+02  0.46662096607E+02 -0.64974202673E+02  0.98534693279E+02  0.00000000000E+00 0. -1.
         -5    1    5    5    0  502  0.83626243224E+02 -0.41238086098E+02 -0.18465673352E+02  0.95168268836E+02  0.47000000000E+01 0.  1.
         13    1    6    6    0    0 -0.27065860939E+02 -0.52336353857E+02  0.19153199262E+01  0.58951872013E+02  0.00000000000E+00 0. -1.
        -14    1    6    6    0    0 -0.16428387675E+02  0.77711573806E+01 -0.49451436609E+02  0.52685172405E+02  0.00000000000E+00 0.  1.
</event>
<event>
12    1  0.8728348E-002  0.2778427E+03  0.7818608E-02  0.1097230E+00
         21   -1    0    0  503  502  0.00000000000E+00  0.00000000000E+00  0.27042802509E+04  0.27042802509E+04  0.00000000000E+00 0.  1.
         21   -1    0    0  501  503 -0.00000000000E+00 -0.00000000000E+00 -0.30379270980E+02  0.30379270980E+02  0.00000000000E+00 0. -1.
          6    2    1    2  501    0 -0.20939691459E+03  0.50143539606E+02  0.17020173536E+04  0.17245462134E+04  0.17559933824E+03 0.  0.
         24    2    3    3    0    0 -0.16864460109E+03  0.83839910913E+02  0.15105609478E+04  0.15258659631E+04  0.10489246084E+03 0.  0.
         -6    2    1    2    0  502  0.20939691459E+03 -0.50143539606E+02  0.97188362631E+03  0.10101133085E+04  0.17149247965E+03 0.  0.
        -24    2    5    5    0    0  0.18941563413E+03 -0.68583046421E+02  0.62191927753E+03  0.65906288139E+03  0.83656303698E+02 0.  0.
          5    1    3    3  501    0 -0.40752313492E+02 -0.33696371307E+02  0.19145640583E+03  0.19868025022E+03  0.47000000000E+01 0. -1.
        -13    1    4    4    0    0 -0.25670896782E+02 -0.21386314420E+02  0.14415036135E+03  0.14797194350E+03  0.00000000000E+00 0.  1.
         14    1    4    4    0    0 -0.14297370431E+03  0.10522622533E+03  0.13664105864E+04  0.13778940196E+04  0.00000000000E+00 0. -1.
         -5    1    5    5    0  502  0.19981280454E+02  0.18439506814E+02  0.34996434878E+03  0.35105042714E+03  0.47000000000E+01 0.  1.
         11    1    6    6    0    0  0.12962828110E+03 -0.28638457488E+02  0.50183595314E+03  0.51909823383E+03  0.00000000000E+00 0. -1.
        -12    1    6    6    0    0  0.59787353031E+02 -0.39944588933E+02  0.12008332440E+03  0.13996464756E+03  0.00000000000E+00 0.  1.
</event>
<event>
12    1  0.8728348E-002  0.2243061E+03  0.7818608E-02  0.1130773E+00
         21   -1    0    0  503  502  0.00000000000E+00  0.00000000000E+00  0.68478044774E+02  0.68478044774E+02  0.00000000000E+00 0. -1.
         21   -1    0    0  501  503 -0.00000000000E+00 -0.00000000000E+00 -0.73428352949E+03  0.73428352949E+03  0.00000000000E+00 0. -1.
          6    2    1    2  501    0 -0.69556576969E+02  0.12618683242E+03 -0.34438159282E+03  0.41080937772E+03  0.17147719754E+03 0.  0.
         24    2    3    3    0    0  0.25654699608E+02  0.40362245197E+02 -0.17854340623E+03  0.20115384813E+03  0.79358983481E+02 0.  0.
         -6    2    1    2    0  502  0.69556576969E+02 -0.12618683242E+03 -0.32142389189E+03  0.39195219654E+03  0.17190687018E+03 0.  0.
        -24    2    5    5    0    0  0.57067356154E+02 -0.60190127682E+02 -0.69830123826E+02  0.13150439025E+03  0.74415212501E+02 0.  0.
          5    1    3    3  501    0 -0.95211276577E+02  0.85824587218E+02 -0.16583818659E+03  0.20965552960E+03  0.47000000000E+01 0. -1.
        -13    1    4    4    0    0  0.36178078099E+02  0.54660696714E+02 -0.92946446388E+02  0.11373516165E+03  0.00000000000E+00 0.  1.
         14    1    4    4    0    0 -0.10523378491E+02 -0.14298451518E+02 -0.85596959842E+02  0.87418686474E+02  0.00000000000E+00 0. -1.
         -5    1    5    5    0  502  0.12489220815E+02 -0.65996704733E+02 -0.25159376807E+03  0.26044780629E+03  0.47000000000E+01 0.  1.
         11    1    6    6    0    0  0.19801804246E+02 -0.39794013612E+01 -0.60052014266E+02  0.63357647557E+02  0.00000000000E+00 0. -1.
        -12    1    6    6    0    0  0.37265551908E+02 -0.56210726321E+02 -0.97781095601E+01  0.68146742688E+02  0.00000000000E+00 0.  1.
</event>
<event>
12    1  0.8728348E-002  0.1980630E+03  0.7818608E-02  0.1151476E+00
         21   -1    0    0  503  502  0.00000000000E+00  0.00000000000E+00  0.26848497462E+03  0.26848497462E+03  0.00000000000E+00 0. -1.
         21   -1    0    0  501  503 -0.00000000000E+00 -0.00000000000E+00 -0.14589111320E+03  0.14589111320E+03  0.00000000000E+00 0.  1.
          6    2    1    2  501    0 -0.10226924929E+02  0.97125659851E+02  0.66753568911E+02  0.20900952660E+03  0.17231064812E+03 0.  0.
         24    2    3    3    0    0 -0.32503138231E+02  0.27830007853E+02 -0.22442606265E+02  0.93787285995E+02  0.80382965275E+02 0.  0.
         -6    2    1    2    0  502  0.10226924929E+02 -0.97125659851E+02  0.55840292515E+02  0.20536656122E+03  0.17181182265E+03 0.  0.
        -24    2    5    5    0    0  0.29647615062E+01 -0.45968989800E+01  0.76424740090E+02  0.11018189812E+03  0.79179470100E+02 0.  0.
          5    1    3    3  501    0  0.22276213303E+02  0.69295651998E+02  0.89196175177E+02  0.11522224061E+03  0.47000000000E+01 0. -1.
        -13    1    4    4    0    0 -0.83627213511E+00  0.58956225520E+01 -0.47474882884E+02  0.47846862188E+02  0.00000000000E+00 0.  1.
         14    1    4    4    0    0 -0.31666866096E+02  0.21934385301E+02  0.25032276619E+02  0.45940423807E+02  0.00000000000E+00 0. -1.
         -5    1    5    5    0  502  0.72621634226E+01 -0.92528760871E+02 -0.20584447575E+02  0.95184663091E+02  0.47000000000E+01 0.  1.
         13    1    6    6    0    0 -0.29782583379E+02  0.15296709939E+02  0.59544388313E+02  0.68311973966E+02  0.00000000000E+00 0. -1.
        -14    1    6    6    0    0  0.32747344885E+02 -0.19893608919E+02  0.16880351778E+02  0.41869924158E+02  0.00000000000E+00 0.  1.
</event>
<event>
12    1  0.8728348E-002  0.2519135E+03  0.7818608E-02  0.1112162E+00
         21   -1    0    0  501  502  0.00000000000E+00  0.00000000000E+00  0.75825240562E+03  0.75825240562E+03  0.00000000000E+00 0. -1.
         21   -1    0    0  502  503 -0.00000000000E+00 -0.00000000000E+00 -0.95595143555E+02  0.95595143555E+02  0.00000000000E+00 0. -1.
         -6    2    1    2    0  503 -0.15795566933E+03 -0.93602896842E+02  0.18009691599E+03  0.30966964177E+03  0.17247867147E+03 0.  0.
        -24    2    3    3    0    0 -0.74997550194E+02 -0.18054755955E+02  0.16861672072E+02  0.11153482408E+03  0.78772420619E+02 0.  0.
          6    2    1    2  501    0  0.15795566933E+03  0.93602896842E+02  0.48256034607E+03  0.54417790741E+03  0.17191163875E+03 0.  0.
         24    2    5    5    0    0  0.16514238898E+03  0.36433370370E+02  0.41582826047E+03  0.45588710978E+03  0.79501670077E+02 0.  0.
          5    1    5    5  501    0 -0.71867196513E+01  0.57169526472E+02  0.66732085600E+02  0.88290797623E+02  0.47000000000E+01 0. -1.
        -13    1    6    6    0    0  0.49241812826E+02 -0.17720683711E+02  0.71837506700E+02  0.88878603333E+02  0.00000000000E+00 0.  1.
         14    1    6    6    0    0  0.11590057615E+03  0.54154054080E+02  0.34399075377E+03  0.36700850645E+03  0.00000000000E+00 0. -1.
         -5    1    3    3    0  503 -0.82958119132E+02 -0.75548140887E+02  0.16323524392E+03  0.19813481769E+03  0.47000000000E+01 0.  1.
         11    1    4    4    0    0 -0.13415115111E+02 -0.39895102270E+02  0.18953326389E+02  0.46160730928E+02  0.00000000000E+00 0. -1.
        -12    1    4    4    0    0 -0.61582435083E+02  0.21840346315E+02 -0.20916543176E+01  0.65374093154E+02  0.00000000000E+00 0.  1.
</event>
<event>
12    1  0.8728348E-002  0.1882005E+03  0.7818608E-02  0.1160514E+00
         21   -1    0    0  503  502  0.00000000000E+00  0.00000000000E+00  0.58490719314E+03  0.58490719314E+03  0.00000000000E+00 0. -1.
         21   -1    0    0  501  503 -0.00000000000E+00 -0.00000000000E+00 -0.87349557057E+02  0.87349557057E+02  0.00000000000E+00 0.  1.
          6    2    1    2  501    0 -0.29563460191E+01 -0.77346936404E+02  0.61425009252E+02  0.19797083994E+03  0.17154630032E+03 0.  0.
         24    2    3    3    0    0  0.35920693061E+02  0.48993937801E+01 -0.16797045117E+01  0.87154875859E+02  0.79239199449E+02 0.  0.
         -6    2    1    2    0  502  0.29563460191E+01  0.77346936404E+02  0.43613262683E+03  0.47428591025E+03  0.16954105086E+03 0.  0.
        -24    2    5    5    0    0 -0.11065472147E+02  0.10463534297E+03  0.41828925851E+03  0.43848445343E+03  0.78941196110E+02 0.  0.
          5    1    3    3  501    0 -0.38877039080E+02 -0.82246330184E+02  0.63104713763E+02  0.11081596408E+03  0.47000000000E+01 0. -1.
        -11    1    4    4    0    0 -0.23163476138E+02 -0.43595287804E+01  0.11015287950E+02  0.26017084514E+02  0.00000000000E+00 0.  1.
         12    1    4    4    0    0  0.59084169199E+02  0.92589225605E+01 -0.12694992462E+02  0.61137791345E+02  0.00000000000E+00 0. -1.
         -5    1    5    5    0  502  0.14021818166E+02 -0.27288406567E+02  0.17843368320E+02  0.35801456823E+02  0.47000000000E+01 0.  1.
         13    1    6    6    0    0 -0.43082056231E+02  0.62425598605E+02  0.20113753374E+03  0.21496354670E+03  0.00000000000E+00 0. -1.
        -14    1    6    6    0    0  0.32016584084E+02  0.42209744366E+02  0.21715172477E+03  0.22352090673E+03  0.00000000000E+00 0.  1.
</event>
<event>
12    1  0.8728348E-002  0.1761873E+03  0.7818608E-02  0.1172003E+00
         21   -1    0    0  503  502  0.00000000000E+00  0.00000000000E+00  0.14256384804E+03  0.14256384804E+03  0.00000000000E+00 0.  1.
         21   -1    0    0  501  503 -0.00000000000E+00 -0.00000000000E+00 -0.33832346876E+03  0.33832346876E+03  0.00000000000E+00 0.  1.
          6    2    1    2  501    0 -0.31519899369E+02 -0.10117162748E+01 -0.24243541370E+03  0.29862215484E+03  0.17148100163E+03 0.  0.
         24    2    3    3    0    0 -0.68799798264E+02 -0.30805965666E+02 -0.21838074679E+03  0.24497324844E+03  0.81482035569E+02 0.  0.
         -6    2    1    2    0  502  0.31519899369E+02  0.10117162748E+01  0.46675792976E+02  0.18226516196E+03  0.17334195103E+03 0.  0.
        -24    2    5    5    0    0 -0.27704895808E+02 -0.39181425382E+02  0.57987240510E+02  0.10964902157E+03  0.79734826283E+02 0.  0.
          5    1    3    3  501    0  0.37279898895E+02  0.29794249391E+02 -0.24054666912E+02  0.53648906407E+02  0.47000000000E+01 0. -1.
        -11    1    4    4    0    0 -0.26422382733E+02 -0.31540933432E+02 -0.27609647468E+02  0.49550634954E+02  0.00000000000E+00 0.  1.
         12    1    4    4    0    0 -0.42377415531E+02  0.73496776660E+00 -0.19077109932E+03  0.19542261348E+03  0.00000000000E+00 0. -1.
         -5    1    5    5    0  502  0.59224795178E+02  0.40193141657E+02 -0.11311447535E+02  0.72616140392E+02  0.47000000000E+01 0.  1.
         13    1    6    6    0    0 -0.29198112531E+02 -0.58304363070E+02  0.21909395697E+02  0.68789171736E+02  0.00000000000E+00 0. -1.
        -14    1    6    6    0    0  0.14932167223E+01  0.19122937688E+02  0.36077844813E+02  0.40859849833E+02  0.00000000000E+00 0.  1.
</event>
<event>
12    1  0.8728348E-002  0.2586113E+03  0.7818608E-02  0.1108121E+00
         21   -1    0    0  501  502  0.00000000000E+00  0.00000000000E+00  0.31235338261E+03  0.31235338261E+03  0.00000000000E+00 0. -1.
         21   -1    0    0  502  503 -0.00000000000E+00 -0.00000000000E+00 -0.25999426038E+03  0.25999426038E+03  0.00000000000E+00 0. -1.
         -6    2    1    2    0  503  0.15974615713E+03  0.10755720425E+03 -0.95072224516E+02  0.27466359159E+03  0.17121324063E+03 0.  0.
        -24    2    3    3    0    0  0.14141786097E+03  0.12669809614E+03 -0.35466592182E+02  0.20926312073E+03  0.80509350822E+02 0.  0.
          6    2    1    2  501    0 -0.15974615713E+03 -0.10755720425E+03  0.14743134675E+03  0.29768405139E+03  0.17260476687E+03 0.  0.
         24    2    5    5    0    0 -0.96633195276E+02 -0.13306316106E+03  0.72693389321E+02  0.19648300364E+03  0.79230439902E+02 0.  0.
          5    1    5    5  501    0 -0.63112961857E+02  0.25505956809E+02  0.74737957428E+02  0.10120104776E+03  0.47000000000E+01 0. -1.
        -11    1    6    6    0    0 -0.56101733458E+01  0.51590703771E+01  0.22167665503E+02  0.23441319203E+02  0.00000000000E+00 0.  1.
         12    1    6    6    0    0 -0.91023021931E+02 -0.13822223143E+03  0.50525723818E+02  0.17304168443E+03  0.00000000000E+00 0. -1.
         -5    1    3    3    0  503  0.18328296163E+02 -0.19140891894E+02 -0.59605632334E+02  0.65400470860E+02  0.47000000000E+01 0.  1.
         11    1    4    4    0    0  0.14784817630E+03  0.10055521130E+03 -0.25781509667E+02  0.18065193050E+03  0.00000000000E+00 0. -1.
        -12    1    4    4    0    0 -0.64303153252E+01  0.26142884840E+02 -0.96850825147E+01  0.28611190228E+02  0.00000000000E+00 0.  1.
</event>
<event>
12    1  0.8728348E-002  0.2290709E+03  0.7818608E-02  0.1128348E+00
         21   -1    0    0  501  502  0.00000000000E+00  0.00000000000E+00  0.10499851471E+04  0.10499851471E+04  0.00000000000E+00 0.  1.
         21   -1    0    0  502  503 -0.00000000000E+00 -0.00000000000E+00 -0.50672077010E+02  0.50672077010E+02  0.00000000000E+00 0.  1.
         -6    2    1    2    0  503  0.12696142092E+03  0.82075916753E+02  0.38497093692E+03  0.44499744826E+03  0.16420855083E+03 0.  0.
        -24    2    3    3    0    0  0.16976828832E+02 -0.97490432689E+00  0.19792724173E+03  0.21261525597E+03  0.75768666996E+02 0.  0.
          6    2    1    2  501    0 -0.12696142092E+03 -0.82075916753E+02  0.61434213315E+03  0.65565977584E+03  0.17209830497E+03 0.  0.
         24    2    5    5    0    0 -0.52593244993E+02 -0.83691290595E+01  0.14079594737E+03  0.17065318185E+03  0.80392275374E+02 0.  0.
          5    1    5    5  501    0 -0.74368175929E+02 -0.73706787694E+02  0.47354618578E+03  0.48500659398E+03  0.47000000000E+01 0. -1.
        -11    1    6    6    0    0 -0.30568285939E+02  0.20478880930E+02  0.12633454622E+03  0.13158351811E+03  0.00000000000E+00 0.  1.
         12    1    6    6    0    0 -0.22024959054E+02 -0.28848009990E+02  0.14461401152E+02  0.39069663743E+02  0.00000000000E+00 0. -1.
         -5    1    3    3    0  503  0.10998459209E+03  0.83050821080E+02  0.18704369519E+03  0.23238219228E+03  0.47000000000E+01 0.  1.
         11    1    4    4    0    0  0.14218032988E+02  0.11266860340E+02  0.19917971358E+03  0.20000413222E+03  0.00000000000E+00 0. -1.
        -12    1    4    4    0    0  0.27587958448E+01 -0.12241764667E+02 -0.12524718459E+01  0.12611123756E+02  0.00000000000E+00 0.  1.
</event>
<event>
12    1  0.8728348E-002  0.2458359E+03  0.7818608E-02  0.1117111E+00
         21   -1    0    0  501  502  0.00000000000E+00  0.00000000000E+00  0.10449518723E+04  0.10449518723E+04  0.00000000000E+00 0.  1.
         21   -1    0    0  502  503 -0.00000000000E+00 -0.00000000000E+00 -0.93709393676E+02  0.93709393676E+02  0.00000000000E+00 0.  1.
         -6    2    1    2    0  503  0.13057437454E+03  0.11529766482E+03  0.11957085416E+03  0.27337245371E+03  0.17347071938E+03 0.  0.
        -24    2    3    3    0    0  0.14374698974E+03  0.40419622780E+02  0.93790808961E+02  0.19295516887E+03  0.78345634092E+02 0.  0.
          6    2    1    2  501    0 -0.13057437454E+03 -0.11529766482E+03  0.83167162443E+03  0.86528881223E+03  0.16341303158E+03 0.  0.
         24    2    5    5    0    0 -0.81043672394E+02 -0.10025317017E+03  0.37158259818E+03  0.40227301406E+03  0.84446288323E+02 0.  0.
          5    1    5    5  501    0 -0.49530702147E+02 -0.15044494648E+02  0.46008902625E+03  0.46301579817E+03  0.47000000000E+01 0. -1.
        -11    1    6    6    0    0 -0.85536743713E+02 -0.60957527077E+02  0.32287137491E+03  0.33952655178E+03  0.00000000000E+00 0.  1.
         12    1    6    6    0    0  0.44930713183E+01 -0.39295643096E+02  0.48711223271E+02  0.62746462281E+02  0.00000000000E+00 0. -1.
         -5    1    3    3    0  503 -0.13172615201E+02  0.74878042041E+02  0.25780045200E+02  0.80417284843E+02  0.47000000000E+01 0.  1.
         11    1    4    4    0    0  0.15522712767E+02  0.36503878110E+02  0.15010082863E+02  0.42412148216E+02  0.00000000000E+00 0. -1.
        -12    1    4    4    0    0  0.12822427698E+03  0.39157446701E+01  0.78780726099E+02  0.15054302065E+03  0.00000000000E+00 0.  1.
</event>
<event>
12    1  0.8728348E-002  0.2093662E+03  0.7818608E-02  0.1142114E+00
         21   -1    0    0  503  502  0.00000000000E+00  0.00000000000E+00  0.79203571444E+02  0.79203571444E+02  0.00000000000E+00 0.  1.
         21   -1    0    0  501  503 -0.00000000000E+00 -0.00000000000E+00 -0.71779871260E+03  0.71779871260E+03  0.00000000000E+00 0. -1.
          6    2    1    2  501    0  0.29120059732E+02 -0.11589742449E+03 -0.12839186534E+03  0.24559858277E+03  0.17191277408E+03 0.  0.
         24    2    3    3    0    0  0.80897196406E+02 -0.46823435806E+02 -0.78333207525E+02  0.14569839750E+03  0.79719138899E+02 0.  0.
         -6    2    1    2    0  502 -0.29120059732E+02  0.11589742449E+03 -0.51020327582E+03  0.55140370127E+03  0.17163469416E+03 0.  0.
        -24    2    5    5    0    0 -0.18510474315E+02  0.25207754055E+02 -0.39655368323E+03  0.40554246749E+03  0.78941755299E+02 0.  0.
          5    1    3    3  501    0 -0.51777136674E+02 -0.69073988681E+02 -0.50058657816E+02  0.99900185269E+02  0.47000000000E+01 0. -1.
        -11    1    4    4    0    0  0.25004205925E+02 -0.35437253451E+02  0.61058748786E+01  0.43798298530E+02  0.00000000000E+00 0.  1.
         12    1    4    4    0    0  0.55892990482E+02 -0.11386182355E+02 -0.84439082403E+02  0.10190009897E+03  0.00000000000E+00 0. -1.
         -5    1    5    5    0  502 -0.10609585417E+02  0.90689670432E+02 -0.11364959259E+03  0.14586123378E+03  0.47000000000E+01 0.  1.
         13    1    6    6    0    0  0.14777259290E+02  0.17106003411E+02 -0.32921144580E+03  0.32998660395E+03  0.00000000000E+00 0. -1.
        -14    1    6    6    0    0 -0.33287733605E+02  0.81017506441E+01 -0.67342237430E+02  0.75555863533E+02  0.00000000000E+00 0.  1.
</event>
<event>
12    1  0.8728348E-002  0.2000524E+03  0.7818608E-02  0.1149773E+00
         21   -1    0    0  501  502  0.00000000000E+00  0.00000000000E+00  0.24115698527E+03  0.24115698527E+03  0.00000000000E+00 0. -1.
         21   -1    0    0  502  503 -0.00000000000E+00 -0.00000000000E+00 -0.16688186495E+03  0.16688186495E+03  0.00000000000E+00 0. -1.
         -6    2    1    2    0  503  0.76976067966E+02 -0.67348111814E+02  0.54732658177E+02  0.20740452109E+03  0.17192989354E+03 0.  0.
        -24    2    3    3    0    0 -0.94349318415E+01 -0.62612465494E+02 -0.18489381529E+02  0.93945963311E+02  0.66892809921E+02 0.  0.
          6    2    1    2  501    0 -0.76976067966E+02  0.67348111814E+02  0.19542462143E+02  0.20063432914E+03  0.17149677256E+03 0.  0.
         24    2    5    5    0    0 -0.95952566032E+02  0.80160389361E+02  0.55152364125E+02  0.15803835452E+03  0.79383595789E+02 0.  0.
          5    1    5    5  501    0  0.18976498066E+02 -0.12812277546E+02 -0.35609901982E+02  0.42595974621E+02  0.47000000000E+01 0. -1.
        -11    1    6    6    0    0 -0.76824646907E+01 -0.33675182804E+01  0.33581144937E+02  0.34612912885E+02  0.00000000000E+00 0.  1.
         12    1    6    6    0    0 -0.88270101341E+02  0.83527907641E+02  0.21571219188E+02  0.12342544164E+03  0.00000000000E+00 0. -1.
         -5    1    3    3    0  503  0.86410999808E+02 -0.47356463203E+01  0.73222039706E+02  0.11345855778E+03  0.47000000000E+01 0.  1.
         13    1    4    4    0    0 -0.14757862282E+02 -0.52827992161E+02  0.16457899380E+02  0.57266514709E+02  0.00000000000E+00 0. -1.
        -14    1    4    4    0    0  0.53229304404E+01 -0.97844733333E+01 -0.34947280909E+02  0.36679448603E+02  0.00000000000E+00 0.  1.
</event>
<event>
12    1  0.8728348E-002  0.2244387E+03  0.7818608E-02  0.1130721E+00
         21   -1    0    0  501  502  0.00000000000E+00  0.00000000000E+00  0.37284226488E+02  0.37284226488E+02  0.00000000000E+00 0.  1.
         21   -1    0    0  502  503 -0.00000000000E+00 -0.00000000000E+00 -0.13950556009E+04  0.13950556009E+04  0.00000000000E+00 0. -1.
         -6    2    1    2    0  503 -0.13961454515E+03 -0.36311059145E+02 -0.54592015461E+03  0.59003636079E+03  0.17118229352E+03 0.  0.
        -24    2    3    3    0    0 -0.63228569167E+02 -0.52004069556E+02 -0.23085864670E+03  0.26543363180E+03  0.10225958598E+03 0.  0.
          6    2    1    2  501    0  0.13961454515E+03  0.36311059145E+02 -0.81185121980E+03  0.84230346659E+03  0.17193607100E+03 0.  0.
         24    2    5    5    0    0  0.19667103708E+02  0.47517565835E+02 -0.27197387232E+03  0.28912843568E+03  0.83550889069E+02 0.  0.
          5    1    5    5  501    0  0.11994744144E+03 -0.11206506690E+02 -0.53987734748E+03  0.55317503091E+03  0.47000000000E+01 0. -1.
        -11    1    6    6    0    0 -0.82914428705E+01  0.27293560377E+02 -0.20084625304E+02  0.34886654132E+02  0.00000000000E+00 0.  1.
         12    1    6    6    0    0  0.27958546579E+02  0.20224005458E+02 -0.25188924702E+03  0.25424178155E+03  0.00000000000E+00 0. -1.
         -5    1    3    3    0  503 -0.76385975981E+02  0.15693010411E+02 -0.31506150791E+03  0.32460272899E+03  0.47000000000E+01 0.  1.
         11    1    4    4    0    0 -0.75908732607E+02 -0.55321122882E+02 -0.23383353203E+03  0.25199341862E+03  0.00000000000E+00 0. -1.
        -12    1    4    4    0    0  0.12680163440E+02  0.33170533264E+01  0.29748853356E+01  0.13440213183E+02  0.00000000000E+00 0.  1.
</event>
<event>
12    1  0.8728348E-002  0.2119365E+03  0.7818608E-02  0.1140221E+00
         21   -1    0    0  503  502  0.00000000000E+00  0.00000000000E+00  0.11175781229E+03  0.11175781229E+03  0.00000000000E+00 0. -1.
         21   -1    0    0  501  503 -0.00000000000E+00 -0.00000000000E+00 -0.54595654359E+03  0.54595654359E+03  0.00000000000E+00 0.  1.
          6    2    1    2  501    0 -0.12219001285E+03  0.12720697404E+02 -0.38737185628E+03  0.44155864605E+03  0.17269877673E+03 0.  0.
         24    2    3    3    0    0 -0.14007214637E+03  0.32137437747E+02 -0.23032450475E+03  0.28223902665E+03  0.77178167773E+02 0.  0.
         -6    2    1    2    0  502  0.12219001285E+03 -0.12720697404E+02 -0.46826875026E+02  0.21615570983E+03  0.17157598691E+03 0.  0.
        -24    2    5    5    0    0  0.53055081704E+02  0.49312161078E+02 -0.58260047161E+02  0.12245127204E+03  0.79709158852E+02 0.  0.
          5    1    3    3  501    0  0.17882133520E+02 -0.19416740343E+02 -0.15704735153E+03  0.15931961941E+03  0.47000000000E+01 0. -1.
        -11    1    4    4    0    0 -0.69003631970E+01  0.45452121386E+01 -0.76376973950E+02  0.76822627626E+02  0.00000000000E+00 0.  1.
         12    1    4    4    0    0 -0.13317178317E+03  0.27592225608E+02 -0.15394753080E+03  0.20541639902E+03  0.00000000000E+00 0. -1.
         -5    1    5    5    0  502  0.69134931145E+02 -0.62032858482E+02  0.11433172134E+02  0.93704437786E+02  0.47000000000E+01 0.  1.
         11    1    6    6    0    0 -0.15429046516E+02  0.26534097735E+02 -0.16725008783E+01  0.30739405951E+02  0.00000000000E+00 0. -1.
        -12    1    6    6    0    0  0.68484128220E+02  0.22778063343E+02 -0.56587546282E+02  0.91711866091E+02  0.00000000000E+00 0.  1.
</event>
<event>
12    1  0.8728348E-002  0.2024593E+03  0.7818608E-02  0.1147786E+00
         21   -1    0    0  503  502  0.00000000000E+00  0.00000000000E+00  0.25808373565E+03  0.25808373565E+03  0.00000000000E+00 0.  1.
         21   -1    0    0  501  503 -0.00000000000E+00 -0.00000000000E+00 -0.16869982542E+03  0.16869982542E+03  0.00000000000E+00 0.  1.
          6    2    1    2  501    0  0.65522551019E+02 -0.81533926626E+02 -0.80227208822E+01  0.20211087781E+03  0.17275258897E+03 0.  0.
         24    2    3    3    0    0  0.70489559390E+02 -0.27092527547E+02  0.50425517451E+02  0.12194340517E+03  0.81392126287E+02 0.  0.
         -6    2    1    2    0  502 -0.65522551019E+02  0.81533926626E+02  0.97406631119E+02  0.22467268326E+03  0.17334583045E+03 0.  0.
        -24    2    5    5    0    0 -0.46421879885E+02  0.12446805062E+03  0.81204500820E+02  0.17474499889E+03  0.79336984606E+02 0.  0.
          5    1    3    3  501    0 -0.49670083718E+01 -0.54441399079E+02 -0.58448238333E+02  0.80167472644E+02  0.47000000000E+01 0. -1.
        -13    1    4    4    0    0  0.26273820521E+02 -0.15698697390E+02 -0.21037065252E+02  0.37139209185E+02  0.00000000000E+00 0.  1.
         14    1    4    4    0    0  0.44215738869E+02 -0.11393830157E+02  0.71462582703E+02  0.84804195981E+02  0.00000000000E+00 0. -1.
         -5    1    5    5    0  502 -0.19100671134E+02 -0.42934123990E+02  0.16202130299E+02  0.49927684372E+02  0.47000000000E+01 0.  1.
         11    1    6    6    0    0  0.91590062778E+01  0.30849734999E+01  0.30404183976E+02  0.31903273511E+02  0.00000000000E+00 0. -1.
        -12    1    6    6    0    0 -0.55580886163E+02  0.12138307712E+03  0.50800316844E+02  0.14284172538E+03  0.00000000000E+00 0.  1.
</event>
<event>
12    1  0.8728348E-002  0.1905041E+03  0.7818608E-02  0.1158035E+00
         21   -1    0    0  501  502  0.00000000000E+00  0.00000000000E+00  0.18653182221E+03  0.18653182221E+03  0.00000000000E+00 0.  1.
         21   -1    0    0  502  503 -0.00000000000E+00 -0.00000000000E+00 -0.27790674278E+03  0.27790674278E+03  0.00000000000E+00 0.  1.
         -6    2    1    2    0  503  0.70432810838E+02 -0.42779538237E+02  0.81569967497E+02  0.20723285404E+03  0.17175833739E+03 0.  0.
        -24    2    3    3    0    0  0.92249229570E+02 -0.66886422261E+02  0.24633112329E+02  0.14149859007E+03  0.80195678990E+02 0.  0.
          6    2    1    2  501    0 -0.70432810838E+02  0.42779538237E+02 -0.17294488807E+03  0.25720571095E+03  0.17162160034E+03 0.  0.
         24    2    5    5    0    0 -0.66411712689E+02 -0.27141122181E+02 -0.14758604227E+03  0.18257174386E+03  0.80022782306E+02 0.  0.
          5    1    5    5  501    0 -0.40210981493E+01  0.69920660418E+02 -0.25358845801E+02  0.74633967093E+02  0.47000000000E+01 0. -1.
        -11    1    6    6    0    0 -0.30056449748E+02  0.19107045696E+02 -0.10233079148E+03  0.10835155861E+03  0.00000000000E+00 0.  1.
         12    1    6    6    0    0 -0.36355262941E+02 -0.46248167877E+02 -0.45255250782E+02  0.74220185252E+02  0.00000000000E+00 0. -1.
         -5    1    3    3    0  503 -0.21816418732E+02  0.24106884024E+02  0.56936855167E+02  0.65734263972E+02  0.47000000000E+01 0.  1.
         11    1    4    4    0    0  0.33755869556E+02 -0.28250270572E+02 -0.29448761485E+02  0.52960042200E+02  0.00000000000E+00 0. -1.
        -12    1    4    4    0    0  0.58493360014E+02 -0.38636151688E+02  0.54081873814E+02  0.88538547866E+02  0.00000000000E+00 0.  1.
</event>
<event>
12    1  0.8728348E-002  0.1813089E+03  0.7818608E-02  0.1166586E+00
         21   -1    0    0  501  502  0.00000000000E+00  0.00000000000E+00  0.67673532234E+02  0.67673532234E+02  0.00000000000E+00 0.  1.
         21   -1    0    0  502  503 -0.00000000000E+00 -0.00000000000E+00 -0.48753976541E+03  0.48753976541E+03  0.00000000000E+00 0.  1.
         -6    2    1    2    0  503 -0.31898921820E+02 -0.47878606584E+02 -0.22876138079E+03  0.29178594794E+03  0.17174797785E+03 0.  0.
        -24    2    3    3    0    0  0.22687197270E+02 -0.40188677416E+01 -0.19884424057E+03  0.21549409800E+03  0.79798584248E+02 0.  0.
          6    2    1    2  501    0  0.31898921820E+02  0.47878606584E+02 -0.19110485239E+03  0.26342734970E+03  0.17193894783E+03 0.  0.
         24    2    5    5    0    0  0.64550026521E+01  0.19961876659E+02 -0.10654791816E+02  0.79006496234E+02  0.75421205769E+02 0.  0.
          5    1    5    5  501    0  0.25443919168E+02  0.27916729925E+02 -0.18045006057E+03  0.18442085347E+03  0.47000000000E+01 0. -1.
        -13    1    6    6    0    0 -0.24809221035E+02  0.34386032976E+02 -0.13393226218E+02  0.44466562951E+02  0.00000000000E+00 0.  1.
         14    1    6    6    0    0  0.31264223687E+02 -0.14424156317E+02  0.27384344017E+01  0.34539933283E+02  0.00000000000E+00 0. -1.
         -5    1    3    3    0  503 -0.54586119090E+02 -0.43859738842E+02 -0.29917140214E+02  0.76291849939E+02  0.47000000000E+01 0.  1.
         11    1    4    4    0    0  0.38643747614E+02  0.24482424107E+02 -0.14930032181E+03  0.15615157512E+03  0.00000000000E+00 0. -1.
        -12    1    4    4    0    0 -0.15956550344E+02 -0.28501291849E+02 -0.49543918757E+02  0.59342522879E+02  0.00000000000E+00 0.  1.
</event>
<event>
12    1  0.8728348E-002  0.2127706E+03  0.7818608E-02  0.1142739E+00
         21   -1    0    0  503  502  0.00000000000E+00  0.00000000000E+00  0.41884063355E+03  0.41884063355E+03  0.00000000000E+00 0.  1.
         21   -1    0    0  501  503 -0.00000000000E+00 -0.00000000000E+00 -0.47101598370E+03  0.47101598370E+03  0.00000000000E+00 0.  1.
          6    2    1    2  501    0 -0.94828498236E+02 -0.50634697784E+01 -0.42119072028E+03  0.47188233490E+03  0.19040281598E+03 0.  0.
         24    2    3    3    0    0 -0.92607692205E+02  0.49992498778E+02 -0.17352901597E+03  0.21812161801E+03  0.79933011142E+02 0.  0.
         -6    2    1    2    0  502  0.94828498236E+02  0.50634697784E+01  0.36901537013E+03  0.41797428235E+03  0.17179078703E+03 0.  0.
        -24    2    5    5    0    0  0.10105205226E+03  0.42585702899E+02  0.18326760275E+03  0.22831412921E+03  0.80717210188E+02 0.  0.
          5    1    3    3  501    0 -0.22208060308E+01 -0.55055968557E+02 -0.24766170431E+03  0.25376071688E+03  0.47000000000E+01 0. -1.
        -13    1    4    4    0    0 -0.53524594351E+02  0.89807331410E+01 -0.26180039965E+02  0.60257200904E+02  0.00000000000E+00 0.  1.
         14    1    4    4    0    0 -0.39083097854E+02  0.41011765637E+02 -0.14734897601E+03  0.15786441711E+03  0.00000000000E+00 0. -1.
         -5    1    5    5    0  502 -0.62235540223E+01 -0.37522233121E+02  0.18574776738E+03  0.18966015314E+03  0.47000000000E+01 0.  1.
         13    1    6    6    0    0  0.11875100039E+02  0.45414138042E+02  0.63249005347E+02  0.78764831064E+02  0.00000000000E+00 0. -1.
        -14    1    6    6    0    0  0.89176952220E+02 -0.28284351431E+01  0.12001859740E+03  0.14954929814E+03  0.00000000000E+00 0.  1.
</event>
<event>
12    1  0.8728348E-002  0.2381347E+03  0.7818608E-02  0.1121300E+00
         21   -1    0    0  501  502  0.00000000000E+00  0.00000000000E+00  0.40711973585E+03  0.40711973585E+03  0.00000000000E+00 0.  1.
         21   -1    0    0  502  503 -0.00000000000E+00 -0.00000000000E+00 -0.74762004164E+03  0.74762004164E+03  0.00000000000E+00 0.  1.
         -6    2    1    2    0  503  0.15507356156E+03  0.59381852243E+02 -0.69134440245E+03  0.73071180888E+03  0.16854866050E+03 0.  0.
        -24    2    3    3    0    0  0.45335414033E+02 -0.54206279300E+01 -0.45030275424E+03  0.45801236144E+03  0.70128951084E+02 0.  0.
          6    2    1    2  501    0 -0.15507356156E+03 -0.59381852243E+02  0.35084409666E+03  0.42402796861E+03  0.17068721140E+03 0.  0.
         24    2    5    5    0    0 -0.10614242491E+02 -0.13488367830E+02  0.16352925751E+03  0.18302247958E+03  0.80379174920E+02 0.  0.
          5    1    5    5  501    0 -0.14445931907E+03 -0.45893484413E+02  0.18731483915E+03  0.24100548903E+03  0.47000000000E+01 0. -1.
        -13    1    6    6    0    0 -0.42402221535E+02 -0.11295014114E+02  0.57636038645E+02  0.72439206826E+02  0.00000000000E+00 0.  1.
         14    1    6    6    0    0  0.31787979044E+02 -0.21933537153E+01  0.10589321886E+03  0.11058327275E+03  0.00000000000E+00 0. -1.
         -5    1    3    3    0  503  0.10973814753E+03  0.64802480172E+02 -0.24104164821E+03  0.27269944743E+03  0.47000000000E+01 0.  1.
         13    1    4    4    0    0  0.55410963730E+01 -0.33964165054E+02 -0.16714735407E+03  0.17065317526E+03  0.00000000000E+00 0. -1.
        -14    1    4    4    0    0  0.39794317660E+02  0.28543537124E+02 -0.28315540018E+03  0.28735918618E+03  0.00000000000E+00 0.  1.
</event>
<event>
12    1  0.8728348E-002  0.1963552E+03  0.7818608E-02  0.1153392E+00
         21   -1    0    0  503  502  0.00000000000E+00  0.00000000000E+00  0.28712352244E+02  0.28712352244E+02  0.00000000000E+00 0.  1.
         21   -1    0    0  501  503 -0.00000000000E+00 -0.00000000000E+00 -0.13584421411E+04  0.13584421411E+04  0.00000000000E+00 0.  1.
          6    2    1    2  501    0 -0.88712505156E+02  0.12904393803E+02 -0.55330836198E+03  0.58628896314E+03  0.17189581996E+03 0.  0.
         24    2    3    3    0    0 -0.69470118178E+02  0.81952739407E+01 -0.55531655107E+03  0.56583002647E+03  0.83029435259E+02 0.  0.
         -6    2    1    2    0  502  0.88712505156E+02 -0.12904393803E+02 -0.77642142690E+03  0.80086553022E+03  0.17469668972E+03 0.  0.
        -24    2    5    5    0    0  0.10301963896E+03  0.33747778811E+02 -0.67244900345E+03  0.68591565364E+03  0.80874366065E+02 0.  0.
          5    1    3    3  501    0 -0.19242386978E+02  0.47091198620E+01  0.20081890970E+01  0.20458936677E+02  0.47000000000E+01 0. -1.
        -13    1    4    4    0    0 -0.65409018854E+02  0.39529985236E+02 -0.36592901387E+03  0.37382482886E+03  0.00000000000E+00 0.  1.
         14    1    4    4    0    0 -0.40610993245E+01 -0.31334711295E+02 -0.18938753721E+03  0.19200519761E+03  0.00000000000E+00 0. -1.
         -5    1    5    5    0  502 -0.14307133805E+02 -0.46652172613E+02 -0.10397242345E+03  0.11494987657E+03  0.47000000000E+01 0.  1.
         13    1    6    6    0    0  0.63533099053E+02  0.49367960664E+02 -0.55936056980E+03  0.56511759596E+03  0.00000000000E+00 0. -1.
        -14    1    6    6    0    0  0.39486539909E+02 -0.15620181853E+02 -0.11308843365E+03  0.12079805769E+03  0.00000000000E+00 0.  1.
</event>
<event>
12    1  0.8728348E-002  0.1839418E+03  0.7818608E-02  0.1164404E+00
         21   -1    0    0  503  502  0.00000000000E+00  0.00000000000E+00  0.16639090205E+03  0.16639090205E+03  0.00000000000E+00 0. -1.
         21   -1    0    0  501  503 -0.00000000000E+00 -0.00000000000E+00 -0.31538932350E+03  0.31538932350E+03  0.00000000000E+00 0. -1.
          6    2    1    2  501    0 -0.23949787136E+02 -0.62204977656E+02  0.70358957907E+02  0.19550722769E+03  0.16979293735E+03 0.  0.
         24    2    3    3    0    0 -0.39299426149E+02  0.62742345349E+01 -0.11229721427E+02  0.87786215278E+02  0.77437084364E+02 0.  0.
         -6    2    1    2    0  502  0.23949787136E+02  0.62204977656E+02 -0.21935737936E+03  0.28627299786E+03  0.17143954583E+03 0.  0.
        -24    2    5    5    0    0  0.54600770156E+02 -0.78440185761E+01 -0.76752644463E+02  0.12439481820E+03  0.80872304495E+02 0.  0.
          5    1    3    3  501    0  0.15349639013E+02 -0.68479212191E+02  0.81588679333E+02  0.10772101241E+03  0.47000000000E+01 0. -1.
        -11    1    4    4    0    0 -0.51633301508E+02 -0.12582502228E+02 -0.27648775304E+02  0.59906359953E+02  0.00000000000E+00 0.  1.
         12    1    4    4    0    0  0.12333875359E+02  0.18856736763E+02  0.16419053877E+02  0.27879855325E+02  0.00000000000E+00 0. -1.
         -5    1    5    5    0  502 -0.30650983019E+02  0.70048996233E+02 -0.14260473490E+03  0.16187817966E+03  0.47000000000E+01 0.  1.
         13    1    6    6    0    0 -0.90972329756E+01  0.14635984719E+02 -0.47967006619E+02  0.50968670971E+02  0.00000000000E+00 0. -1.
        -14    1    6    6    0    0  0.63698003131E+02 -0.22480003296E+02 -0.28785637844E+02  0.73426147231E+02  0.00000000000E+00 0.  1.
</event>
<event>
12    1  0.8728348E-002  0.2391690E+03  0.7818608E-02  0.1120481E+00
         21   -1    0    0  501  502  0.00000000000E+00  0.00000000000E+00  0.63504654833E+03  0.63504654833E+03  0.00000000000E+00 0.  1.
         21   -1    0    0  502  503 -0.00000000000E+00 -0.00000000000E+00 -0.95159238214E+02  0.95159238214E+02  0.00000000000E+00 0.  1.
         -6    2    1    2    0  503 -0.16636675242E+03  0.27256454215E+01  0.18268385832E+03  0.30032659756E+03  0.17069665392E+03 0.  0.
        -24    2    3    3    0    0 -0.10744560850E+02  0.14582217319E+02  0.64407968932E+02  0.10444367126E+03  0.80199796473E+02 0.  0.
          6    2    1    2  501    0  0.16636675242E+03 -0.27256454215E+01  0.35720345180E+03  0.42987918899E+03  0.17180362538E+03 0.  0.
         24    2    5    5    0    0  0.92778018787E+01 -0.97098487644E+00  0.10348736578E+03  0.13142658048E+03  0.80475404707E+02 0.  0.
          5    1    5    5  501    0  0.15708895054E+03 -0.17546605451E+01  0.25371608602E+03  0.29845260850E+03  0.47000000000E+01 0. -1.
        -11    1    6    6    0    0  0.13745088839E+02 -0.51653131969E+01  0.11630039100E+03  0.11722367028E+03  0.00000000000E+00 0.  1.
         12    1    6    6    0    0 -0.44672869601E+01  0.41943283205E+01 -0.12813025222E+02  0.14202910202E+02  0.00000000000E+00 0. -1.
         -5    1    3    3    0  503 -0.15562219157E+03 -0.11856571897E+02  0.11827588938E+03  0.19588292630E+03  0.47000000000E+01 0.  1.
         11    1    4    4    0    0  0.38509945023E+01  0.44511675307E+02  0.20030911689E+02  0.48962810585E+02  0.00000000000E+00 0. -1.
        -12    1    4    4    0    0 -0.14595555352E+02 -0.29929457988E+02  0.44377057243E+02  0.55480860673E+02  0.00000000000E+00 0.  1.
</event>
<event>
12    1  0.8728348E-002  0.1823970E+03  0.7818608E-02  0.1165569E+00
         21   -1    0    0  503  502  0.00000000000E+00  0.00000000000E+00  0.13530162001E+03  0.13530162001E+03  0.00000000000E+00 0.  1.
         21   -1    0    0  501  503 -0.00000000000E+00 -0.00000000000E+00 -0.88315168081E+03  0.88315168081E+03  0.00000000000E+00 0.  1.
          6    2    1    2  501    0 -0.29733037907E+02  0.55493483242E+02 -0.80669734802E+03  0.82706062373E+03  0.17118727695E+03 0.  0.
         24    2    3    3    0    0  0.35417811632E+02  0.70709322649E+02 -0.57462187265E+03  0.58548812688E+03  0.79698309262E+02 0.  0.
         -6    2    1    2    0  502  0.29733037907E+02 -0.55493483242E+02  0.58847287220E+02  0.19139267708E+03  0.17089345629E+03 0.  0.
        -24    2    5    5    0    0  0.50027220266E+02 -0.26749111488E+02 -0.23699602112E+02  0.10153628230E+03  0.80806607095E+02 0.  0.
          5    1    3    3  501    0 -0.65150849539E+02 -0.15215839407E+02 -0.23207547537E+03  0.24157249684E+03  0.47000000000E+01 0. -1.
        -13    1    4    4    0    0 -0.10040427989E+02  0.20168493552E+02 -0.35197709639E+03  0.35269739822E+03  0.00000000000E+00 0.  1.
         14    1    4    4    0    0  0.45458239621E+02  0.50540829097E+02 -0.22264477626E+03  0.23279072866E+03  0.00000000000E+00 0. -1.
         -5    1    5    5    0  502 -0.20294182360E+02 -0.28744371755E+02  0.82546889331E+02  0.89856394784E+02  0.47000000000E+01 0.  1.
         13    1    6    6    0    0  0.11004364510E+02  0.16413807771E+02 -0.36910541885E+02  0.41867615481E+02  0.00000000000E+00 0. -1.
        -14    1    6    6    0    0  0.39022855756E+02 -0.43162919259E+02  0.13210939773E+02  0.59668666819E+02  0.00000000000E+00 0.  1.
</event>
<event>
12    1  0.8728348E-002  0.1961750E+03  0.7818608E-02  0.1153097E+00
         21   -1    0    0  501  502  0.00000000000E+00  0.00000000000E+00  0.24353166079E+03  0.24353166079E+03  0.00000000000E+00 0. -1.
         21   -1    0    0  502  503 -0.00000000000E+00 -0.00000000000E+00 -0.16826433906E+03  0.16826433906E+03  0.00000000000E+00 0.  1.
         -6    2    1    2    0  503 -0.88928188850E+02  0.27626439105E+02 -0.13941949842E+02  0.19666981014E+03  0.17266497428E+03 0.  0.
        -24    2    3    3    0    0 -0.59862329154E+02  0.79693629788E+02 -0.34574495222E+02  0.13339573587E+03  0.81636104436E+02 0.  0.
          6    2    1    2  501    0  0.88928188850E+02 -0.27626439105E+02  0.89209271569E+02  0.21512618971E+03  0.17219041918E+03 0.  0.
         24    2    5    5    0    0  0.11666754777E+02  0.31722886979E+01 -0.13384859817E+02  0.82968947671E+02  0.80984660416E+02 0.  0.
          5    1    5    5  501    0  0.77261434073E+02 -0.30798727803E+02  0.10259413139E+03  0.13215724204E+03  0.47000000000E+01 0. -1.
        -13    1    6    6    0    0  0.43189884451E+02  0.12305788793E+02  0.52717767745E+01  0.45217144835E+02  0.00000000000E+00 0.  1.
         14    1    6    6    0    0 -0.31523129674E+02 -0.91335000953E+01 -0.18656636592E+02  0.37751802835E+02  0.00000000000E+00 0. -1.
         -5    1    3    3    0  503 -0.29065859696E+02 -0.52067190683E+02  0.20632545381E+02  0.63274074267E+02  0.47000000000E+01 0.  1.
         13    1    4    4    0    0  0.18258066224E+02  0.23895642021E+02  0.31743023246E+01  0.30239624420E+02  0.00000000000E+00 0. -1.
        -14    1    4    4    0    0 -0.78120395378E+02  0.55797987767E+02 -0.37748797547E+02  0.10315611145E+03  0.00000000000E+00 0.  1.
</event>
<event>
12    1  0.8728348E-002  0.1853515E+03  0.7818608E-02  0.1163641E+00
         21   -1    0    0  503  502  0.00000000000E+00  0.00000000000E+00  0.28088398122E+03  0.28088398122E+03  0.00000000000E+00 0. -1.
         21   -1    0    0  501  503 -0.00000000000E+00 -0.00000000000E+00 -0.20884224194E+03  0.20884224194E+03  0.00000000000E+00 0. -1.
          6    2    1    2  501    0  0.22650819253E+02  0.54754075503E+02 -0.12368660629E+03  0.22283074289E+03  0.17562487012E+03 0.  0.
         24    2    3    3    0    0 -0.27468245988E+02 -0.11619341813E+02 -0.11327632334E+03  0.13887947597E+03  0.74608778120E+02 0.  0.
         -6    2    1    2    0  502 -0.22650819253E+02 -0.54754075503E+02  0.19572834557E+03  0.26689548026E+03  0.17150085636E+03 0.  0.
        -24    2    5    5    0    0 -0.65472461033E+02 -0.34634277516E-01  0.83578582003E+02  0.13488195929E+03  0.83193264266E+02 0.  0.
          5    1    3    3  501    0  0.50119065241E+02  0.66373417316E+02 -0.10410282944E+02  0.83951266922E+02  0.47000000000E+01 0. -1.
        -11    1    4    4    0    0  0.83381829768E+01 -0.35373573038E+02 -0.40946294927E+02  0.54748644121E+02  0.00000000000E+00 0.  1.
         12    1    4    4    0    0 -0.35806428965E+02  0.23754231225E+02 -0.72330028416E+02  0.84130831846E+02  0.00000000000E+00 0. -1.
         -5    1    5    5    0  502  0.42821641780E+02 -0.54719441225E+02  0.11214976356E+03  0.13201352097E+03  0.47000000000E+01 0.  1.
         11    1    6    6    0    0 -0.63991231823E+02 -0.16012662307E+02  0.94663013197E+02  0.11537924064E+03  0.00000000000E+00 0. -1.
        -12    1    6    6    0    0 -0.14812292107E+01  0.15978028029E+02 -0.11084431194E+02  0.19502718646E+02  0.00000000000E+00 0.  1.
</event>
<event>
12    1  0.8728348E-002  0.3451154E+03  0.7818608E-02  0.1064719E+00
         21   -1    0    0  503  502  0.00000000000E+00  0.00000000000E+00  0.38766877079E+03  0.38766877079E+03  0.00000000000E+00 0. -1.
         21   -1    0    0  501  503 -0.00000000000E+00 -0.00000000000E+00 -0.32117284020E+03  0.32117284020E+03  0.00000000000E+00 0.  1.
          6    2    1    2  501    0  0.29521599272E+03 -0.43864858076E+02  0.10885582597E+03  0.36113628458E+03  0.17173589334E+03 0.  0.
         24    2    3    3    0    0  0.23834188558E+03  0.26092973183E+02  0.65399112982E+02  0.26093978703E+03  0.79528804883E+02 0.  0.
         -6    2    1    2    0  502 -0.29521599272E+03  0.43864858076E+02 -0.42359895379E+02  0.34770532640E+03  0.17328596349E+03 0.  0.
        -24    2    5    5    0    0 -0.99749893256E+02 -0.82304776346E+01 -0.62039623853E+02  0.14440677315E+03  0.83585999053E+02 0.  0.
          5    1    3    3  501    0  0.56874107140E+02 -0.69957831260E+02  0.43456712989E+02  0.10019649755E+03  0.47000000000E+01 0. -1.
        -11    1    4    4    0    0  0.23455338672E+01 -0.35348152468E+00 -0.11176333068E+02  0.11425274576E+02  0.00000000000E+00 0.  1.
         12    1    4    4    0    0  0.23599635171E+03  0.26446454708E+02  0.76575446050E+02  0.24951451245E+03  0.00000000000E+00 0. -1.
         -5    1    5    5    0  502 -0.19546609946E+03  0.52095335711E+02  0.19679728473E+02  0.20329855325E+03  0.47000000000E+01 0.  1.
         13    1    6    6    0    0 -0.26908904401E+01 -0.26525583000E+02  0.19313765655E+01  0.26731585443E+02  0.00000000000E+00 0. -1.
        -14    1    6    6    0    0 -0.97059002816E+02  0.18295105365E+02 -0.63971000418E+02  0.11767518771E+03  0.00000000000E+00 0.  1.
</event>
<event>
12    1  0.8728348E-002  0.2107517E+03  0.7818608E-02  0.1141026E+00
         21   -1    0    0  501  502  0.00000000000E+00  0.00000000000E+00  0.40301012594E+03  0.40301012594E+03  0.00000000000E+00 0. -1.
         21   -1    0    0  502  503 -0.00000000000E+00 -0.00000000000E+00 -0.14059832383E+03  0.14059832383E+03  0.00000000000E+00 0.  1.
         -6    2    1    2    0  503 -0.10879087451E+03  0.52045722033E+02  0.44831792670E+01  0.21052669627E+03  0.17250269386E+03 0.  0.
        -24    2    3    3    0    0 -0.83875258369E+02 -0.15582337440E+02  0.47737145708E+02  0.12634036740E+03  0.80032400616E+02 0.  0.
          6    2    1    2  501    0  0.10879087451E+03 -0.52045722033E+02  0.25792862285E+03  0.33308175350E+03  0.17283537968E+03 0.  0.
         24    2    5    5    0    0  0.13270703037E+03 -0.64235418974E+02  0.16144516037E+03  0.23282348823E+03  0.80030568558E+02 0.  0.
          5    1    5    5  501    0 -0.23916155860E+02  0.12189696941E+02  0.96483462477E+02  0.10025826527E+03  0.47000000000E+01 0. -1.
        -11    1    6    6    0    0  0.22908822357E+02 -0.51502928234E+02  0.65896657703E+02  0.86716407068E+02  0.00000000000E+00 0.  1.
         12    1    6    6    0    0  0.10979820801E+03 -0.12732490740E+02  0.95548502671E+02  0.14610708116E+03  0.00000000000E+00 0. -1.
         -5    1    3    3    0  503 -0.24915616141E+02  0.67628059473E+02 -0.43253966441E+02  0.84186328870E+02  0.47000000000E+01 0.  1.
         13    1    4    4    0    0 -0.72233908408E+02  0.23595246964E+02  0.33687864107E+02  0.83122472240E+02  0.00000000000E+00 0. -1.
        -14    1    4    4    0    0 -0.11641349961E+02 -0.39177584405E+02  0.14049281600E+02  0.43217895161E+02  0.00000000000E+00 0.  1.
</event>
<event>
12    1  0.8728348E-002  0.2007649E+03  0.7818608E-02  0.1152637E+00
         21   -1    0    0  501  502  0.00000000000E+00  0.00000000000E+00  0.32642126842E+03  0.32642126842E+03  0.00000000000E+00 0.  1.
         21   -1    0    0  502  503 -0.00000000000E+00 -0.00000000000E+00 -0.14016661009E+03  0.14016661009E+03  0.00000000000E+00 0. -1.
         -6    2    1    2    0  503 -0.63196669740E+02 -0.48426835491E+01 -0.11232341804E+02  0.18497168949E+03  0.17341017779E+03 0.  0.
        -24    2    3    3    0    0 -0.82923417691E+01  0.30140318993E+02 -0.58693698383E+02  0.10426873995E+03  0.80310759799E+02 0.  0.
          6    2    1    2  501    0  0.63196669740E+02  0.48426835491E+01  0.19748700013E+03  0.28161618901E+03  0.19049748566E+03 0.  0.
         24    2    5    5    0    0  0.92501200565E+02 -0.54970495166E+02  0.12585215797E+03  0.18368757988E+03  0.79524423240E+02 0.  0.
          5    1    5    5  501    0 -0.29304530825E+02  0.59813178716E+02  0.71634842163E+02  0.97928609132E+02  0.47000000000E+01 0. -1.
        -11    1    6    6    0    0  0.13750994100E+02 -0.53166336285E+02  0.55429884050E+02  0.78027054273E+02  0.00000000000E+00 0.  1.
         12    1    6    6    0    0  0.78750206465E+02 -0.18041588815E+01  0.70422273922E+02  0.10566052561E+03  0.00000000000E+00 0. -1.
         -5    1    3    3    0  503 -0.54904327971E+02 -0.34983002542E+02  0.47461356579E+02  0.80702949543E+02  0.47000000000E+01 0.  1.
         11    1    4    4    0    0  0.53170541654E+01 -0.67900672227E+01 -0.63978643661E+02  0.64557284040E+02  0.00000000000E+00 0. -1.
        -12    1    4    4    0    0 -0.13609395935E+02  0.36930386215E+02  0.52849452786E+01  0.39711455908E+02  0.00000000000E+00 0.  1.
</event>
<event>
12    1  0.8728348E-002  0.4305328E+03  0.7818608E-02  0.1033747E+00
         21   -1    0    0  503  502  0.00000000000E+00  0.00000000000E+00  0.66822724150E+03  0.66822724150E+03  0.00000000000E+00 0.  1.
         21   -1    0    0  501  503 -0.00000000000E+00 -0.00000000000E+00 -0.35996865849E+03  0.35996865849E+03  0.00000000000E+00 0. -1.
          6    2    1    2  501    0 -0.34469071255E+02  0.39285388972E+03 -0.92875697581E+02  0.43975116299E+03  0.17097629839E+03 0.  0.
         24    2    3    3    0    0 -0.13377976371E+02  0.22891058575E+03  0.13270240081E+02  0.24325360250E+03  0.80107361301E+02 0.  0.
         -6    2    1    2    0  502  0.34469071255E+02 -0.39285388972E+03  0.40113428060E+03  0.58844473700E+03  0.17273158915E+03 0.  0.
        -24    2    5    5    0    0  0.82933408485E+01 -0.16100860039E+03  0.25980316210E+03  0.31561881796E+03  0.78262419521E+02 0.  0.
          5    1    3    3  501    0 -0.21091094885E+02  0.16394330396E+03 -0.10614593766E+03  0.19649756049E+03  0.47000000000E+01 0. -1.
        -13    1    4    4    0    0 -0.17821324135E+02  0.15586059053E+02 -0.14986382216E+02  0.28019930097E+02  0.00000000000E+00 0.  1.
         14    1    4    4    0    0  0.44433477648E+01  0.21332452670E+03  0.28256622297E+02  0.21523367240E+03  0.00000000000E+00 0. -1.
         -5    1    5    5    0  502  0.26175730407E+02 -0.23184528933E+03  0.14133111850E+03  0.27282591904E+03  0.47000000000E+01 0.  1.
         13    1    6    6    0    0 -0.33290197538E+02 -0.91123571575E+02  0.15676773925E+03  0.18435798496E+03  0.00000000000E+00 0. -1.
        -14    1    6    6    0    0  0.41583538387E+02 -0.69885028817E+02  0.10303542284E+03  0.13126083299E+03  0.00000000000E+00 0.  1.
</event>
<event>
12    1  0.8728348E-002  0.1839025E+03  0.7818608E-02  0.1165906E+00
         21   -1    0    0  501  502  0.00000000000E+00  0.00000000000E+00  0.57181870949E+03  0.57181870949E+03  0.00000000000E+00 0.  1.
         21   -1    0    0  502  503 -0.00000000000E+00 -0.00000000000E+00 -0.77781638670E+02  0.77781638670E+02  0.00000000000E+00 0. -1.
         -6    2    1    2    0  503  0.53707719627E+02  0.30085169783E+02  0.74268204809E+02  0.19131435997E+03  0.16521435016E+03 0.  0.
        -24    2    3    3    0    0  0.18010419544E+02 -0.27479307886E+02  0.90401669959E+02  0.12152650272E+03  0.74274769318E+02 0.  0.
          6    2    1    2  501    0 -0.53707719627E+02 -0.30085169783E+02  0.41976886601E+03  0.45828598819E+03  0.17329313174E+03 0.  0.
         24    2    5    5    0    0  0.22501747236E+02 -0.15114002206E+02  0.32483273245E+03  0.33553836844E+03  0.79592279352E+02 0.  0.
          5    1    5    5  501    0 -0.76209466863E+02 -0.14971167577E+02  0.94936133554E+02  0.12274761974E+03  0.47000000000E+01 0. -1.
        -13    1    6    6    0    0 -0.28458315276E+02 -0.96238103865E+01  0.81360371888E+02  0.86729484885E+02  0.00000000000E+00 0.  1.
         14    1    6    6    0    0  0.50960062513E+02 -0.54901918195E+01  0.24347236057E+03  0.24880888356E+03  0.00000000000E+00 0. -1.
         -5    1    3    3    0  503  0.35697300083E+02  0.57564477669E+02 -0.16133465150E+02  0.69787857255E+02  0.47000000000E+01 0.  1.
         13    1    4    4    0    0  0.29736396130E+02 -0.28009839103E+02  0.12464369329E+02  0.42710242848E+02  0.00000000000E+00 0. -1.
        -14    1    4    4    0    0 -0.11725976586E+02  0.53053121669E+00  0.77937300630E+02  0.78816259870E+02  0.00000000000E+00 0.  1.
</event>
<event>
12    1  0.8728348E-002  0.1847414E+03  0.7818608E-02  0.1163647E+00
         21   -1    0    0  501  502  0.00000000000E+00  0.00000000000E+00  0.13326005928E+03  0.13326005928E+03  0.00000000000E+00 0. -1.
         21   -1    0    0  502  503 -0.00000000000E+00 -0.00000000000E+00 -0.30870246958E+03  0.30870246958E+03  0.00000000000E+00 0.  1.
         -6    2    1    2    0  503 -0.45749661261E+02 -0.45607607891E+02 -0.18043193913E+03  0.25715379685E+03  0.17146225583E+03 0.  0.
        -24    2    3    3    0    0 -0.41315679102E+02  0.39339491849E+02 -0.83325681937E+02  0.12797413460E+03  0.78610615687E+02 0.  0.
          6    2    1    2  501    0  0.45749661261E+02  0.45607607891E+02  0.49895288289E+01  0.18480873201E+03  0.17307884511E+03 0.  0.
         24    2    5    5    0    0  0.10824563214E+02  0.93453673689E+02 -0.60552620468E+01  0.12436796852E+03  0.81116984043E+02 0.  0.
          5    1    5    5  501    0  0.34925098047E+02 -0.47846065798E+02  0.11044790876E+02  0.60440763492E+02  0.47000000000E+01 0. -1.
        -13    1    6    6    0    0 -0.28343195059E+02  0.24116719637E+02 -0.21887801014E+02  0.43174398727E+02  0.00000000000E+00 0.  1.
         14    1    6    6    0    0  0.39167758273E+02  0.69336954052E+02  0.15832538967E+02  0.81193569792E+02  0.00000000000E+00 0. -1.
         -5    1    3    3    0  503 -0.44339821587E+01 -0.84947099741E+02 -0.97106257196E+02  0.12917966225E+03  0.47000000000E+01 0.  1.
         11    1    4    4    0    0 -0.31362967607E+02  0.62082392238E+01  0.56888989512E+01  0.32473705404E+02  0.00000000000E+00 0. -1.
        -12    1    4    4    0    0 -0.99527114952E+01  0.33131252625E+02 -0.89014580888E+02  0.95500429199E+02  0.00000000000E+00 0.  1.
</event>
<event>
12    1  0.8728348E-002  0.1911148E+03  0.7818608E-02  0.1157553E+00
         21   -1    0    0  503  502  0.00000000000E+00  0.00000000000E+00  0.14847495325E+03  0.14847495325E+03  0.00000000000E+00 0. -1.
         21   -1    0    0  501  503 -0.00000000000E+00 -0.00000000000E+00 -0.45703859699E+03  0.45703859699E+03  0.00000000000E+00 0. -1.
          6    2    1    2  501    0 -0.64906536569E+02 -0.52485534455E+02 -0.36036300891E+03  0.40790484171E+03  0.17192228444E+03 0.  0.
         24    2    3    3    0    0 -0.56046491161E+01  0.27133493819E+02 -0.11628281643E+03  0.14436521684E+03  0.80944325668E+02 0.  0.
         -6    2    1    2    0  502  0.64906536569E+02  0.52485534455E+02  0.51799365159E+02  0.19760870853E+03  0.17145972600E+03 0.  0.
        -24    2    5    5    0    0  0.76255748590E+02  0.78974285272E+02 -0.29672353405E+01  0.13554479741E+03  0.79446275503E+02 0.  0.
          5    1    3    3  501    0 -0.59301887453E+02 -0.79619028273E+02 -0.24408019248E+03  0.26353962488E+03  0.47000000000E+01 0. -1.
        -11    1    4    4    0    0  0.36303978402E+02  0.14005441684E+01 -0.47091085242E+02  0.59476976059E+02  0.00000000000E+00 0.  1.
         12    1    4    4    0    0 -0.41908627518E+02  0.25732949650E+02 -0.69191731184E+02  0.84888240779E+02  0.00000000000E+00 0. -1.
         -5    1    5    5    0  502 -0.11349212021E+02 -0.26488750817E+02  0.54766600500E+02  0.62063911121E+02  0.47000000000E+01 0.  1.
         11    1    6    6    0    0  0.77787813458E+02  0.32418604440E+02  0.15040097360E+02  0.85604406224E+02  0.00000000000E+00 0. -1.
        -12    1    6    6    0    0 -0.15320648680E+01  0.46555680832E+02 -0.18007332701E+02  0.49940391182E+02  0.00000000000E+00 0.  1.
</event>
<event>
12    1  0.8728348E-002  0.2010787E+03  0.7818608E-02  0.1149255E+00
         21   -1    0    0  503  502  0.00000000000E+00  0.00000000000E+00  0.75357646804E+03  0.75357646804E+03  0.00000000000E+00 0. -1.
         21   -1    0    0  501  503 -0.00000000000E+00 -0.00000000000E+00 -0.96658793986E+02  0.96658793986E+02  0.00000000000E+00 0. -1.
          6    2    1    2  501    0 -0.29170771674E+02  0.96035151567E+02  0.42238538408E+02  0.20350264972E+03  0.17191727679E+03 0.  0.
         24    2    3    3    0    0  0.48250815615E+02  0.50609295711E+02  0.67392141690E+01  0.10685947831E+03  0.80523841670E+02 0.  0.
         -6    2    1    2    0  502  0.29170771674E+02 -0.96035151567E+02  0.61467913565E+03  0.64673261231E+03  0.17423819262E+03 0.  0.
        -24    2    5    5    0    0 -0.89383728549E+01 -0.10741789038E+03  0.57653254676E+03  0.59142324707E+03  0.75981458371E+02 0.  0.
          5    1    3    3  501    0 -0.77421587288E+02  0.45425855855E+02  0.35499324239E+02  0.96643171408E+02  0.47000000000E+01 0. -1.
        -11    1    4    4    0    0  0.44881307934E+01 -0.11576895226E+02  0.25654103929E+02  0.28500892433E+02  0.00000000000E+00 0.  1.
         12    1    4    4    0    0  0.43762684821E+02  0.62186190938E+02 -0.18914889760E+02  0.78358585877E+02  0.00000000000E+00 0. -1.
         -5    1    5    5    0  502  0.38109144529E+02  0.11382738815E+02  0.38146588891E+02  0.55309365244E+02  0.47000000000E+01 0.  1.
         13    1    6    6    0    0  0.25963114842E+02 -0.69599724344E+02  0.24806289171E+03  0.25894671886E+03  0.00000000000E+00 0. -1.
        -14    1    6    6    0    0 -0.34901487697E+02 -0.37818166038E+02  0.32846965505E+03  0.33247652821E+03  0.00000000000E+00 0.  1.
</event>
<event>
12    1  0.8728348E-002  0.1932845E+03  0.7818608E-02  0.1155590E+00
         21   -1    0    0  503  502  0.00000000000E+00  0.00000000000E+00  0.13889091325E+03  0.13889091325E+03  0.00000000000E+00 0. -1.
         21   -1    0    0  501  503 -0.00000000000E+00 -0.00000000000E+00 -0.74413533386E+03  0.74413533386E+03  0.00000000000E+00 0. -1.
          6    2    1    2  501    0 -0.41869449525E+02 -0.76592839364E+02 -0.65548886868E+03  0.68331794256E+03  0.17215760165E+03 0.  0.
         24    2    3    3    0    0  0.24731935850E+02 -0.69000335131E+02 -0.25475732543E+03  0.27699141080E+03  0.80313335728E+02 0.  0.
         -6    2    1    2    0  502  0.41869449525E+02  0.76592839364E+02  0.50244448066E+02  0.19970830456E+03  0.17245111917E+03 0.  0.
        -24    2    5    5    0    0 -0.39450329849E+02  0.66528103649E+02  0.20966157329E+02  0.11256753493E+03  0.79054114799E+02 0.  0.
          5    1    3    3  501    0 -0.66601385375E+02 -0.75925042330E+01 -0.40073154325E+03  0.40632653176E+03  0.47000000000E+01 0. -1.
        -13    1    4    4    0    0  0.38760406302E+02 -0.71110458677E+02 -0.24872066938E+03  0.26157415356E+03  0.00000000000E+00 0.  1.
         14    1    4    4    0    0 -0.14028470452E+02  0.21101235452E+01 -0.60366560460E+01  0.15417257240E+02  0.00000000000E+00 0. -1.
         -5    1    5    5    0  502  0.81319779374E+02  0.10064735715E+02  0.29278290738E+02  0.87140769626E+02  0.47000000000E+01 0.  1.
         13    1    6    6    0    0 -0.18801885511E-01 -0.17373119066E+02  0.73653482606E+01  0.18869922485E+02  0.00000000000E+00 0. -1.
        -14    1    6    6    0    0 -0.39431527963E+02  0.83901222715E+02  0.13600809068E+02  0.93697612445E+02  0.00000000000E+00 0.  1.
</event>
<event>
12    1  0.8728348E-002  0.1741202E+03  0.7818608E-02  0.1173949E+00
         21   -1    0    0  501  502  0.00000000000E+00  0.00000000000E+00  0.34181607344E+03  0.34181607344E+03  0.00000000000E+00 0. -1.
         21   -1    0    0  502  503 -0.00000000000E+00 -0.00000000000E+00 -0.98156320918E+02  0.98156320918E+02  0.00000000000E+00 0. -1.
         -6    2    1    2    0  503 -0.16208385707E+02  0.86320258972E+01  0.51591157525E+02  0.18160252431E+03  0.17314908508E+03 0.  0.
        -24    2    3    3    0    0  0.13376128568E+02 -0.56247144579E+02  0.29513716915E+02  0.10680911798E+03  0.84820198710E+02 0.  0.
          6    2    1    2  501    0  0.16208385707E+02 -0.86320258972E+01  0.19206859500E+03  0.25836987005E+03  0.17183544723E+03 0.  0.
         24    2    5    5    0    0  0.21353947651E+02 -0.69142566346E+02  0.15147805002E+03  0.18517366349E+03  0.78147299695E+02 0.  0.
          5    1    5    5  501    0 -0.51455619445E+01  0.60510540449E+02  0.40590544975E+02  0.73196206558E+02  0.47000000000E+01 0. -1.
        -11    1    6    6    0    0 -0.18709564324E+02 -0.46429233005E+02  0.11817598517E+03  0.12834050392E+03  0.00000000000E+00 0.  1.
         12    1    6    6    0    0  0.40063511975E+02 -0.22713333340E+02  0.33302064849E+02  0.56833159568E+02  0.00000000000E+00 0. -1.
         -5    1    3    3    0  503 -0.29584514275E+02  0.64879170477E+02  0.22077440609E+02  0.74793406330E+02  0.47000000000E+01 0.  1.
         11    1    4    4    0    0  0.30549654456E+02 -0.49503565201E+02  0.51789521827E+02  0.77884779810E+02  0.00000000000E+00 0. -1.
        -12    1    4    4    0    0 -0.17173525887E+02 -0.67435793784E+01 -0.22275804912E+02  0.28924338172E+02  0.00000000000E+00 0.  1.
</event>
<event>
12    1  0.8728348E-002  0.1768704E+03  0.7818608E-02  0.1171027E+00
         21   -1    0    0  501  502  0.00000000000E+00  0.00000000000E+00  0.81970718191E+02  0.81970718191E+02  0.00000000000E+00 0. -1.
         21   -1    0    0  502  503 -0.00000000000E+00 -0.00000000000E+00 -0.60138687134E+03  0.60138687134E+03  0.00000000000E+00 0. -1.
         -6    2    1    2    0  503  0.33271152802E+02  0.16069296485E+02 -0.46660061785E+03  0.49876991356E+03  0.17230814896E+03 0.  0.
        -24    2    3    3    0    0 -0.14280323746E+02  0.77201582238E+01 -0.42823417083E+03  0.43692393319E+03  0.85173292975E+02 0.  0.
          6    2    1    2  501    0 -0.33271152802E+02 -0.16069296485E+02 -0.52815535306E+02  0.18458767597E+03  0.17296802437E+03 0.  0.
         24    2    5    5    0    0 -0.51329850498E+02  0.13147618182E+02 -0.92156361691E+02  0.13215166463E+03  0.78508942473E+02 0.  0.
          5    1    5    5  501    0  0.18058697696E+02 -0.29216914667E+02  0.39340826385E+02  0.52436011346E+02  0.47000000000E+01 0. -1.
        -13    1    6    6    0    0 -0.17899393513E+02  0.24498162645E+02 -0.91971021676E+02  0.96846358162E+02  0.00000000000E+00 0.  1.
         14    1    6    6    0    0 -0.33430456985E+02 -0.11350544463E+02 -0.18534001493E+00  0.35305306467E+02  0.00000000000E+00 0. -1.
         -5    1    3    3    0  503  0.47551476547E+02  0.83491382615E+01 -0.38366447016E+02  0.61845980372E+02  0.47000000000E+01 0.  1.
         11    1    4    4    0    0 -0.14665863280E+02 -0.37758367108E+02 -0.17389258588E+03  0.17854806988E+03  0.00000000000E+00 0. -1.
        -12    1    4    4    0    0  0.38553953421E+00  0.45478525331E+02 -0.25434158495E+03  0.25837586331E+03  0.00000000000E+00 0.  1.
</event>
<event>
12    1  0.8728348E-002  0.2589353E+03  0.7818608E-02  0.1107820E+00
         21   -1    0    0  503  502  0.00000000000E+00  0.00000000000E+00  0.28634448687E+03  0.28634448687E+03  0.00000000000E+00 0. -1.
         21   -1    0    0  501  503 -0.00000000000E+00 -0.00000000000E+00 -0.24318388871E+03  0.24318388871E+03  0.00000000000E+00 0.  1.
          6    2    1    2  501    0 -0.24502569944E+02  0.19149258170E+03 -0.30054747214E+02  0.26044111580E+03  0.17221063321E+03 0.  0.
         24    2    3    3    0    0  0.20230943301E+01  0.23828552487E+02 -0.36744529150E+02  0.90495004523E+02  0.79166233944E+02 0.  0.
         -6    2    1    2    0  502  0.24502569944E+02 -0.19149258170E+03  0.73215345372E+02  0.26908725978E+03  0.17256210998E+03 0.  0.
        -24    2    5    5    0    0  0.33466628099E+02 -0.10699298251E+03  0.11022091685E+03  0.17628618801E+03  0.79753721339E+02 0.  0.
          5    1    3    3  501    0 -0.26525664274E+02  0.16766402921E+03  0.66897819354E+01  0.16994611128E+03  0.47000000000E+01 0. -1.
        -11    1    4    4    0    0 -0.22611359978E+02  0.36105648634E+02 -0.44794454732E+02  0.61817753422E+02  0.00000000000E+00 0.  1.
         12    1    4    4    0    0  0.24634454308E+02 -0.12277096147E+02  0.80499255822E+01  0.28677251102E+02  0.00000000000E+00 0. -1.
         -5    1    5    5    0  502 -0.89640581557E+01 -0.84499599191E+02 -0.37005571481E+02  0.92801071776E+02  0.47000000000E+01 0.  1.
         11    1    6    6    0    0  0.16764624743E+02 -0.46431028964E+02  0.10149098332E+03  0.11285970401E+03  0.00000000000E+00 0. -1.
        -12    1    6    6    0    0  0.16702003357E+02 -0.60561953543E+02  0.87299335353E+01  0.63426484000E+02  0.00000000000E+00 0.  1.
</event>
<event>
12    1  0.8728348E-002  0.2191110E+03  0.7818608E-02  0.1134580E+00
         21   -1    0    0  501  502  0.00000000000E+00  0.00000000000E+00  0.87635748215E+03  0.87635748215E+03  0.00000000000E+00 0. -1.
         21   -1    0    0  502  503 -0.00000000000E+00 -0.00000000000E+00 -0.71239790555E+02  0.71239790555E+02  0.00000000000E+00 0. -1.
         -6    2    1    2    0  503 -0.13458990035E+03  0.15803788248E+02  0.17466026479E+03  0.28020679388E+03  0.17217850692E+03 0.  0.
        -24    2    3    3    0    0 -0.13054854443E+03  0.57488882023E+02  0.17289607710E+03  0.23802644349E+03  0.80097692323E+02 0.  0.
          6    2    1    2  501    0  0.13458990035E+03 -0.15803788248E+02  0.63045742680E+03  0.66739047882E+03  0.17195721330E+03 0.  0.
         24    2    5    5    0    0  0.10865320244E+03 -0.29584028954E+02  0.62181612541E+03  0.63641678963E+03  0.75434097898E+02 0.  0.
          5    1    5    5  501    0  0.25936697907E+02  0.13780240707E+02  0.86413013903E+01  0.30973689189E+02  0.47000000000E+01 0. -1.
        -11    1    6    6    0    0 -0.11119689108E+02  0.25469304061E+01  0.60441410623E+02  0.61508523462E+02  0.00000000000E+00 0.  1.
         12    1    6    6    0    0  0.11977289155E+03 -0.32130959360E+02  0.56137471479E+03  0.57490826617E+03  0.00000000000E+00 0. -1.
         -5    1    3    3    0  503 -0.40413559112E+01 -0.41685093776E+02  0.17641876846E+01  0.42180350388E+02  0.47000000000E+01 0.  1.
         11    1    4    4    0    0 -0.89179594758E+02  0.77031878230E+02  0.12466435332E+03  0.17154623684E+03  0.00000000000E+00 0. -1.
        -12    1    4    4    0    0 -0.41368949677E+02 -0.19542996207E+02  0.48231723784E+02  0.66480206658E+02  0.00000000000E+00 0.  1.
</event>
<event>
12    1  0.8728348E-002  0.1956874E+03  0.7818608E-02  0.1153473E+00
         21   -1    0    0  501  502  0.00000000000E+00  0.00000000000E+00  0.21786311219E+03  0.21786311219E+03  0.00000000000E+00 0.  1.
         21   -1    0    0  502  503 -0.00000000000E+00 -0.00000000000E+00 -0.20688393659E+03  0.20688393659E+03  0.00000000000E+00 0.  1.
         -6    2    1    2    0  503  0.54685733583E+02 -0.73472030587E+02 -0.77112847152E+02  0.21014566253E+03  0.17270245959E+03 0.  0.
        -24    2    3    3    0    0  0.26372469136E+02 -0.10775096875E+03 -0.31690259377E+02  0.14641193500E+03  0.90146568298E+02 0.  0.
          6    2    1    2  501    0 -0.54685733583E+02  0.73472030587E+02  0.88092022751E+02  0.21460138625E+03  0.17293028009E+03 0.  0.
         24    2    5    5    0    0 -0.50477388774E+01 -0.95065811757E+01 -0.55100043129E+01  0.79943263585E+02  0.79023480635E+02 0.  0.
          5    1    5    5  501    0 -0.49637994705E+02  0.82978611763E+02  0.93602027063E+02  0.13465812266E+03  0.47000000000E+01 0. -1.
        -11    1    6    6    0    0  0.62330276085E+01  0.30358906020E+02  0.14167638649E+02  0.34076909965E+02  0.00000000000E+00 0.  1.
         12    1    6    6    0    0 -0.11280766486E+02 -0.39865487196E+02 -0.19677642962E+02  0.45866353620E+02  0.00000000000E+00 0. -1.
         -5    1    3    3    0  503  0.28313264446E+02  0.34278938159E+02 -0.45422587775E+02  0.63733727532E+02  0.47000000000E+01 0.  1.
         13    1    4    4    0    0  0.41792095026E+02 -0.10335532744E+02 -0.79701272739E+00  0.43058537748E+02  0.00000000000E+00 0. -1.
        -14    1    4    4    0    0 -0.15419625889E+02 -0.97415436002E+02 -0.30893246649E+02  0.10335339725E+03  0.00000000000E+00 0.  1.
</event>
<event>
12    1  0.8728348E-002  0.2509430E+03  0.7818608E-02  0.1112731E+00
         21   -1    0    0  503  502  0.00000000000E+00  0.00000000000E+00  0.18277003903E+03  0.18277003903E+03  0.00000000000E+00 0.  1.
         21   -1    0    0  501  503 -0.00000000000E+00 -0.00000000000E+00 -0.50993277498E+03  0.50993277498E+03  0.00000000000E+00 0. -1.
          6    2    1    2  501    0  0.17345366998E+03  0.58024565375E+02 -0.36096583188E+03  0.43962339073E+03  0.17181201376E+03 0.  0.
         24    2    3    3    0    0  0.12833923083E+03 -0.18070040983E+02 -0.28183917717E+03  0.32084284003E+03  0.81910449049E+02 0.  0.
         -6    2    1    2    0  502 -0.17345366998E+03 -0.58024565375E+02  0.33803095932E+02  0.25307942329E+03  0.17162027672E+03 0.  0.
        -24    2    5    5    0    0 -0.15439521898E+03  0.82745544141E+00  0.62214933947E+02  0.18484374752E+03  0.80361338121E+02 0.  0.
          5    1    3    3  501    0  0.45114439147E+02  0.76094606358E+02 -0.79126654719E+02  0.11878055069E+03  0.47000000000E+01 0.  1.
        -13    1    4    4    0    0  0.54654186646E+02 -0.43990496857E+02 -0.17462740266E+03  0.18819397889E+03  0.00000000000E+00 0.  1.
         14    1    4    4    0    0  0.73685044183E+02  0.25920455875E+02 -0.10721177451E+03  0.13264886114E+03  0.00000000000E+00 0. -1.
         -5    1    5    5    0  502 -0.19058451000E+02 -0.58852020817E+02 -0.28411838015E+02  0.68235675772E+02  0.47000000000E+01 0.  1.
         11    1    6    6    0    0 -0.49612204325E+02 -0.17972414020E+02 -0.13186090462E+02  0.54389810308E+02  0.00000000000E+00 0. -1.
        -12    1    6    6    0    0 -0.10478301465E+03  0.18799869461E+02  0.75401024409E+02  0.13045393721E+03  0.00000000000E+00 0.  1.
</event>
<event>
12    1  0.8728348E-002  0.1805818E+03  0.7818608E-02  0.1167453E+00
         21   -1    0    0  503  502  0.00000000000E+00  0.00000000000E+00  0.10825895177E+03  0.10825895177E+03  0.00000000000E+00 0. -1.
         21   -1    0    0  501  503 -0.00000000000E+00 -0.00000000000E+00 -0.64324496382E+03  0.64324496382E+03  0.00000000000E+00 0.  1.
          6    2    1    2  501    0  0.53479976262E+02  0.12094560085E+02 -0.54237679134E+03  0.57164882812E+03  0.17205642290E+03 0.  0.
         24    2    3    3    0    0 -0.34983155130E+00 -0.22778294793E+02 -0.13213094210E+03  0.15639286966E+03  0.80505718585E+02 0.  0.
         -6    2    1    2    0  502 -0.53479976262E+02 -0.12094560085E+02  0.73907792906E+01  0.17985508748E+03  0.17113399028E+03 0.  0.
        -24    2    5    5    0    0 -0.90914322740E+02  0.26982524927E+02 -0.97344969923E+01  0.12290147515E+03  0.77566367917E+02 0.  0.
          5    1    3    3  501    0  0.53829807814E+02  0.34872854878E+02 -0.41024584924E+03  0.41525595846E+03  0.47000000000E+01 0. -1.
        -13    1    4    4    0    0 -0.86759827949E+01 -0.45648255366E+02 -0.12102880759E+03  0.12964184572E+03  0.00000000000E+00 0.  1.
         14    1    4    4    0    0  0.83261512436E+01  0.22869960573E+02 -0.11102134510E+02  0.26751023940E+02  0.00000000000E+00 0. -1.
         -5    1    5    5    0  502  0.37434346477E+02 -0.39077085012E+02  0.17125276283E+02  0.56953612326E+02  0.47000000000E+01 0.  1.
         11    1    6    6    0    0 -0.43478995993E+02 -0.19336000761E+02  0.18215551750E+02  0.50952039640E+02  0.00000000000E+00 0. -1.
        -12    1    6    6    0    0 -0.47435326747E+02  0.46318525688E+02 -0.27950048743E+02  0.71949435510E+02  0.00000000000E+00 0.  1.
</event>
<event>
12    1  0.8728348E-002  0.2758347E+03  0.7818608E-02  0.1098443E+00
         21   -1    0    0  501  502  0.00000000000E+00  0.00000000000E+00  0.11144394308E+04  0.11144394308E+04  0.00000000000E+00 0.  1.
         21   -1    0    0  502  503 -0.00000000000E+00 -0.00000000000E+00 -0.41279070722E+03  0.41279070722E+03  0.00000000000E+00 0.  1.
         -6    2    1    2    0  503  0.21004354514E+03 -0.29776710873E+02 -0.34726238548E+03  0.44348162311E+03  0.17629475969E+03 0.  0.
        -24    2    3    3    0    0  0.12308320336E+03 -0.74878122854E+02 -0.16415092872E+03  0.23576033387E+03  0.88776119499E+02 0.  0.
          6    2    1    2  501    0 -0.21004354514E+03  0.29776710873E+02  0.10489111090E+04  0.10837485149E+04  0.17114726259E+03 0.  0.
         24    2    5    5    0    0 -0.39435771936E+02 -0.25352937258E+02  0.29056321638E+03  0.30447968664E+03  0.77993238980E+02 0.  0.
          5    1    5    5  501    0 -0.17060777320E+03  0.55129648130E+02  0.75834789265E+03  0.77926882824E+03  0.47000000000E+01 0. -1.
        -13    1    6    6    0    0 -0.58090678196E+02 -0.31769696510E+02  0.25840464892E+03  0.26675232537E+03  0.00000000000E+00 0.  1.
         14    1    6    6    0    0  0.18654906259E+02  0.64167592519E+01  0.32158567462E+02  0.37727361266E+02  0.00000000000E+00 0. -1.
         -5    1    3    3    0  503  0.86960341779E+02  0.45101411981E+02 -0.18311145676E+03  0.20772128924E+03  0.47000000000E+01 0.  1.
         13    1    4    4    0    0  0.10727491990E+03 -0.23121362378E+02 -0.80371386813E+02  0.13602229838E+03  0.00000000000E+00 0. -1.
        -14    1    4    4    0    0  0.15808283462E+02 -0.51756760476E+02 -0.83779541908E+02  0.99738035489E+02  0.00000000000E+00 0.  1.
</event>
<event>
12    1  0.8728348E-002  0.2024200E+03  0.7818608E-02  0.1147985E+00
         21   -1    0    0  501  502  0.00000000000E+00  0.00000000000E+00  0.17543751080E+03  0.17543751080E+03  0.00000000000E+00 0. -1.
         21   -1    0    0  502  503 -0.00000000000E+00 -0.00000000000E+00 -0.26891039039E+03  0.26891039039E+03  0.00000000000E+00 0. -1.
         -6    2    1    2    0  503  0.83934990575E+02  0.67369155592E+02 -0.12886198227E+03  0.23885767592E+03  0.16989377005E+03 0.  0.
        -24    2    3    3    0    0  0.11616875823E+03  0.88672450870E+02 -0.10862824722E+03  0.19499037374E+03  0.69736402426E+02 0.  0.
          6    2    1    2  501    0 -0.83934990575E+02 -0.67369155592E+02  0.35389102679E+02  0.20549022528E+03  0.17143558070E+03 0.  0.
         24    2    5    5    0    0 -0.82333158086E+02  0.29517063636E+00  0.62960132428E+02  0.13225581675E+03  0.82150999643E+02 0.  0.
          5    1    5    5  501    0 -0.16018324887E+01 -0.67664326228E+02 -0.27571029748E+02  0.73234408529E+02  0.47000000000E+01 0. -1.
        -13    1    6    6    0    0 -0.36924630183E+02  0.16844322354E+02 -0.12657025360E+02  0.42513054473E+02  0.00000000000E+00 0.  1.
         14    1    6    6    0    0 -0.45408527904E+02 -0.16549151718E+02  0.75617157787E+02  0.89742762275E+02  0.00000000000E+00 0. -1.
         -5    1    3    3    0  503 -0.32233767653E+02 -0.21303295278E+02 -0.20233735048E+02  0.43867302183E+02  0.47000000000E+01 0.  1.
         13    1    4    4    0    0  0.27411357151E+02  0.23276070663E+02  0.54196924217E+01  0.36366619754E+02  0.00000000000E+00 0. -1.
        -14    1    4    4    0    0  0.88757401077E+02  0.65396380207E+02 -0.11404793964E+03  0.15862375398E+03  0.00000000000E+00 0.  1.
</event>
<event>
12    1  0.8728348E-002  0.1771329E+03  0.7818608E-02  0.1170643E+00
         21   -1    0    0  501  502  0.00000000000E+00  0.00000000000E+00  0.15960825605E+02  0.15960825605E+02  0.00000000000E+00 0.  1.
         21   -1    0    0  502  503 -0.00000000000E+00 -0.00000000000E+00 -0.21753299898E+04  0.21753299898E+04  0.00000000000E+00 0.  1.
         -6    2    1    2    0  503 -0.43661373756E+02 -0.72386667051E+01 -0.14214303050E+04  0.14324245840E+04  0.17151490651E+03 0.  0.
        -24    2    3    3    0    0 -0.83416428785E+02  0.34756308128E+02 -0.10248488930E+04  0.10316217040E+04  0.75906423501E+02 0.  0.
          6    2    1    2  501    0  0.43661373756E+02  0.72386667051E+01 -0.73793885926E+03  0.75886623143E+03  0.17136359979E+03 0.  0.
         24    2    5    5    0    0  0.42964630443E+02 -0.40678243128E+01 -0.73908424043E+03  0.74654859820E+03  0.96056172946E+02 0.  0.
          5    1    5    5  501    0  0.69674331379E+00  0.11306491018E+02  0.11453811615E+01  0.12317633230E+02  0.47000000000E+01 0. -1.
        -13    1    6    6    0    0 -0.20123684103E+02  0.24720616805E+02 -0.14694594880E+03  0.15036350430E+03  0.00000000000E+00 0.  1.
         14    1    6    6    0    0  0.63088314546E+02 -0.28788441117E+02 -0.59213829162E+03  0.59618509389E+03  0.00000000000E+00 0. -1.
         -5    1    3    3    0  503  0.39755055029E+02 -0.41994974833E+02 -0.39658141192E+03  0.40080287997E+03  0.47000000000E+01 0.  1.
         11    1    4    4    0    0 -0.93409620727E+02  0.18344198565E+02 -0.92908693236E+03  0.93395095949E+03  0.00000000000E+00 0. -1.
        -12    1    4    4    0    0  0.99931919420E+01  0.16412109563E+02 -0.95761960684E+02  0.97670744543E+02  0.00000000000E+00 0.  1.
</event>
<event>
12    1  0.8728348E-002  0.1856702E+03  0.7818608E-02  0.1164118E+00
         21   -1    0    0  501  502  0.00000000000E+00  0.00000000000E+00  0.40849814262E+03  0.40849814262E+03  0.00000000000E+00 0. -1.
         21   -1    0    0  502  503 -0.00000000000E+00 -0.00000000000E+00 -0.21221654294E+03  0.21221654294E+03  0.00000000000E+00 0. -1.
         -6    2    1    2    0  503 -0.50913618152E+02  0.44949734350E+02 -0.14498147523E+03  0.23556967026E+03  0.17280268013E+03 0.  0.
        -24    2    3    3    0    0  0.18818209117E+02  0.70482485447E+02 -0.10662259053E+03  0.15185621168E+03  0.79812445555E+02 0.  0.
          6    2    1    2  501    0  0.50913618152E+02 -0.44949734350E+02  0.34126307491E+03  0.38514501530E+03  0.16511669020E+03 0.  0.
         24    2    5    5    0    0  0.51364316416E+01 -0.24586610325E+02  0.86582946738E+02  0.12554096042E+03  0.87367280717E+02 0.  0.
          5    1    5    5  501    0  0.45777186510E+02 -0.20363124026E+02  0.25468012817E+03  0.25960405488E+03  0.47000000000E+01 0. -1.
        -13    1    6    6    0    0  0.20984557438E+02  0.26758011770E+02  0.18192191399E+02  0.38565511440E+02  0.00000000000E+00 0.  1.
         14    1    6    6    0    0 -0.15848125796E+02 -0.51344622095E+02  0.68390755340E+02  0.86975448980E+02  0.00000000000E+00 0. -1.
         -5    1    3    3    0  503 -0.69731827269E+02 -0.25532751097E+02 -0.38358884691E+02  0.83713458581E+02  0.47000000000E+01 0.  1.
         11    1    4    4    0    0  0.19484272125E+02  0.34923082490E+02 -0.10910593868E+03  0.11620397758E+03  0.00000000000E+00 0. -1.
        -12    1    4    4    0    0 -0.66606300818E+00  0.35559402958E+02  0.24833481419E+01  0.35652234105E+02  0.00000000000E+00 0.  1.
</event>
<event>
12    1  0.8728348E-002  0.2028147E+03  0.7818608E-02  0.1147945E+00
         21   -1    0    0  503  502  0.00000000000E+00  0.00000000000E+00  0.22464508175E+03  0.22464508175E+03  0.00000000000E+00 0.  1.
         21   -1    0    0  501  503 -0.00000000000E+00 -0.00000000000E+00 -0.35879479980E+03  0.35879479980E+03  0.00000000000E+00 0.  1.
          6    2    1    2  501    0  0.10703772837E+02  0.10361285659E+03 -0.27237873763E+03  0.33799929947E+03  0.17088930607E+03 0.  0.
         24    2    3    3    0    0  0.66370098350E+02  0.59150129158E+02 -0.11841241369E+03  0.16828367605E+03  0.79963542780E+02 0.  0.
         -6    2    1    2    0  502 -0.10703772837E+02 -0.10361285659E+03  0.13822901958E+03  0.24544058207E+03  0.17402190285E+03 0.  0.
        -24    2    5    5    0    0 -0.42066183738E+02 -0.64968568162E+02  0.15673790163E+03  0.19213344784E+03  0.79737151355E+02 0.  0.
          5    1    3    3  501    0 -0.55666325513E+02  0.44462727427E+02 -0.15396632394E+03  0.16971562343E+03  0.47000000000E+01 0. -1.
        -11    1    4    4    0    0  0.55282567448E+02  0.40126998255E+02 -0.12735491193E+03  0.14451855190E+03  0.00000000000E+00 0.  1.
         12    1    4    4    0    0  0.11087530902E+02  0.19023130903E+02  0.89424982370E+01  0.23765124144E+02  0.00000000000E+00 0. -1.
         -5    1    5    5    0  502  0.31362410902E+02 -0.38644288423E+02 -0.18508882052E+02  0.53307134233E+02  0.47000000000E+01 0.  1.
         11    1    6    6    0    0  0.16210907031E+02  0.70682208010E+01  0.17475067738E+02  0.24862245364E+02  0.00000000000E+00 0. -1.
        -12    1    6    6    0    0 -0.58277090769E+02 -0.72036788963E+02  0.13926283390E+03  0.16727120248E+03  0.00000000000E+00 0.  1.
</event>
<event>
12    1  0.8728348E-002  0.1791366E+03  0.7818608E-02  0.1169466E+00
         21   -1    0    0  501  502  0.00000000000E+00  0.00000000000E+00  0.94145218411E+02  0.94145218411E+02  0.00000000000E+00 0.  1.
         21   -1    0    0  502  503 -0.00000000000E+00 -0.00000000000E+00 -0.45569068495E+03  0.45569068495E+03  0.00000000000E+00 0. -1.
         -6    2    1    2    0  503  0.23572501722E+02  0.28143952065E+02 -0.32128842900E+03  0.36623152814E+03  0.17190559245E+03 0.  0.
        -24    2    3    3    0    0 -0.44656541106E+01 -0.13756447682E+01 -0.31471424480E+03  0.32472424350E+03  0.79868291397E+02 0.  0.
          6    2    1    2  501    0 -0.23572501722E+02 -0.28143952065E+02 -0.40257037540E+02  0.18360437523E+03  0.17533451644E+03 0.  0.
         24    2    5    5    0    0 -0.72124326645E+02 -0.55886380530E+02 -0.11262918157E+02  0.12044053273E+03  0.77806571544E+02 0.  0.
          5    1    5    5  501    0  0.48551824922E+02  0.27742428465E+02 -0.28994119383E+02  0.63163842499E+02  0.47000000000E+01 0. -1.
        -13    1    6    6    0    0  0.45376522364E+01  0.13130686947E+02  0.72020936736E+01  0.15648494522E+02  0.00000000000E+00 0.  1.
         14    1    6    6    0    0 -0.76661978881E+02 -0.69017067477E+02 -0.18465011830E+02  0.10479203820E+03  0.00000000000E+00 0. -1.
         -5    1    3    3    0  503  0.28038155833E+02  0.29519596833E+02 -0.65741841943E+01  0.41507284632E+02  0.47000000000E+01 0.  1.
         11    1    4    4    0    0  0.21946080504E+02 -0.30889019311E+02 -0.11376890109E+03  0.11991298853E+03  0.00000000000E+00 0. -1.
        -12    1    4    4    0    0 -0.26411734615E+02  0.29513374543E+02 -0.20094534372E+03  0.20481125497E+03  0.00000000000E+00 0.  1.
</event>
<event>
12    1  0.8728348E-002  0.2725928E+03  0.7818608E-02  0.1099932E+00
         21   -1    0    0  503  502  0.00000000000E+00  0.00000000000E+00  0.41481785224E+03  0.41481785224E+03  0.00000000000E+00 0. -1.
         21   -1    0    0  501  503 -0.00000000000E+00 -0.00000000000E+00 -0.28600466385E+03  0.28600466385E+03  0.00000000000E+00 0.  1.
          6    2    1    2  501    0 -0.76449897229E+02  0.19628626654E+03 -0.15032136350E+03  0.31129300187E+03  0.17301426378E+03 0.  0.
         24    2    3    3    0    0 -0.60982476757E+02  0.42204237713E+02 -0.10159404752E+03  0.14888316834E+03  0.79654172347E+02 0.  0.
         -6    2    1    2    0  502  0.76449897229E+02 -0.19628626654E+03  0.27913455189E+03  0.38952951421E+03  0.17159329580E+03 0.  0.
        -24    2    5    5    0    0  0.24692058416E+02 -0.23971968041E+02  0.58984316252E+02  0.10517180358E+03  0.79985034246E+02 0.  0.
          5    1    3    3  501    0 -0.15467420473E+02  0.15408202883E+03 -0.48727315982E+02  0.16240983353E+03  0.47000000000E+01 0. -1.
        -11    1    4    4    0    0  0.16649607467E+02  0.20839259242E+02 -0.14849525277E+02  0.30528553119E+02  0.00000000000E+00 0.  1.
         12    1    4    4    0    0 -0.77632084224E+02  0.21364978471E+02 -0.86744522241E+02  0.11835461522E+03  0.00000000000E+00 0. -1.
         -5    1    5    5    0  502  0.51757838813E+02 -0.17231429850E+03  0.22015023564E+03  0.28435771064E+03  0.47000000000E+01 0.  1.
         13    1    6    6    0    0 -0.17721883283E+01 -0.39544127873E+02  0.62795438315E+02  0.74230356148E+02  0.00000000000E+00 0. -1.
        -14    1    6    6    0    0  0.26464246745E+02  0.15572159832E+02 -0.38111220636E+01  0.30941447428E+02  0.00000000000E+00 0.  1.
</event>
<event>
12    1  0.8728348E-002  0.1845002E+03  0.7818608E-02  0.1164148E+00
         21   -1    0    0  501  502  0.00000000000E+00  0.00000000000E+00  0.38607128209E+03  0.38607128209E+03  0.00000000000E+00 0.  1.
         21   -1    0    0  502  503 -0.00000000000E+00 -0.00000000000E+00 -0.88319800645E+02  0.88319800645E+02  0.00000000000E+00 0.  1.
         -6    2    1    2    0  503  0.10053396812E+02  0.61753431858E+02  0.17789460842E+03  0.25437747742E+03  0.17072449204E+03 0.  0.
        -24    2    3    3    0    0  0.16365988178E+02  0.10742088005E+03  0.12350266323E+03  0.18292162857E+03  0.80002020806E+02 0.  0.
          6    2    1    2  501    0 -0.10053396812E+02 -0.61753431858E+02  0.11985687302E+03  0.22001360531E+03  0.17356773714E+03 0.  0.
         24    2    5    5    0    0  0.44086730198E+01 -0.87896074473E+01  0.14076121378E+03  0.16107805048E+03  0.77689931432E+02 0.  0.
          5    1    5    5  501    0 -0.14462069832E+02 -0.52963824410E+02 -0.20904340757E+02  0.58935554824E+02  0.47000000000E+01 0. -1.
        -11    1    6    6    0    0 -0.29028839719E+02 -0.26496913795E+02  0.57813711141E+02  0.69908405589E+02  0.00000000000E+00 0.  1.
         12    1    6    6    0    0  0.33437512738E+02  0.17707306348E+02  0.82947502639E+02  0.91169644895E+02  0.00000000000E+00 0. -1.
         -5    1    3    3    0  503 -0.63125913655E+01 -0.45667448194E+02  0.54391945190E+02  0.71455848857E+02  0.47000000000E+01 0.  1.
         11    1    4    4    0    0  0.57567585752E+01 -0.11357659335E+02  0.23941209764E+01  0.12956408072E+02  0.00000000000E+00 0. -1.
        -12    1    4    4    0    0  0.10609229602E+02  0.11877853939E+03  0.12110854225E+03  0.16996522049E+03  0.00000000000E+00 0.  1.
</event>
<event>
12    1  0.8728348E-002  0.2243667E+03  0.7818608E-02  0.1130685E+00
         21   -1    0    0  503  502  0.00000000000E+00  0.00000000000E+00  0.64529793914E+03  0.64529793914E+03  0.00000000000E+00 0.  1.
         21   -1    0    0  501  503 -0.00000000000E+00 -0.00000000000E+00 -0.88478223453E+02  0.88478223453E+02  0.00000000000E+00 0.  1.
          6    2    1    2  501    0 -0.10573262829E+03  0.97936075713E+02  0.15197907843E+03  0.27091943380E+03  0.17183956390E+03 0.  0.
         24    2    3    3    0    0 -0.49107971901E+01  0.56320242469E+02  0.12506514017E+03  0.15847669604E+03  0.79230601804E+02 0.  0.
         -6    2    1    2    0  502  0.10573262829E+03 -0.97936075713E+02  0.40484063725E+03  0.46285672878E+03  0.17195797801E+03 0.  0.
        -24    2    5    5    0    0  0.74963116850E+02 -0.23452670560E+00  0.13149590920E+03  0.17091189518E+03  0.79373659917E+02 0.  0.
          5    1    3    3  501    0 -0.10082183110E+03  0.41615833244E+02  0.26913938267E+02  0.11244273776E+03  0.47000000000E+01 0. -1.
        -13    1    4    4    0    0 -0.20804266471E+02  0.59234634344E+02  0.12751606266E+03  0.14213340791E+03  0.00000000000E+00 0.  1.
         14    1    4    4    0    0  0.15893469281E+02 -0.29143918758E+01 -0.24509224897E+01  0.16343288128E+02  0.00000000000E+00 0. -1.
         -5    1    5    5    0  502  0.30769511440E+02 -0.97701549007E+02  0.27334472805E+03  0.29194483360E+03  0.47000000000E+01 0.  1.
         11    1    6    6    0    0  0.60460026772E+02 -0.31809152007E+02  0.11166262126E+03  0.13090369733E+03  0.00000000000E+00 0. -1.
        -12    1    6    6    0    0  0.14503090078E+02  0.31574625302E+02  0.19833287935E+02  0.40008197848E+02  0.00000000000E+00 0.  1.
</event>
<event>
12    1  0.8728348E-002  0.2449279E+03  0.7818608E-02  0.1116706E+00
         21   -1    0    0  501  502  0.00000000000E+00  0.00000000000E+00  0.51708386424E+02  0.51708386424E+02  0.00000000000E+00 0. -1.
         21   -1    0    0  502  503 -0.00000000000E+00 -0.00000000000E+00 -0.18229173833E+04  0.18229173833E+04  0.00000000000E+00 0. -1.
         -6    2    1    2    0  503 -0.14335273168E+03  0.97702539555E+02 -0.14515938861E+04  0.14719553333E+04  0.17155728300E+03 0.  0.
        -24    2    3    3    0    0 -0.84453240963E+02  0.56016525815E+02 -0.12691715885E+04  0.12757236886E+04  0.80026292577E+02 0.  0.
          6    2    1    2  501    0  0.14335273168E+03 -0.97702539555E+02 -0.31961511083E+03  0.40267043641E+03  0.17289843658E+03 0.  0.
         24    2    5    5    0    0  0.10727605560E+03 -0.11301570164E+03 -0.31813216302E+03  0.36316969433E+03  0.80021577153E+02 0.  0.
          5    1    5    5  501    0  0.36076676086E+02  0.15313162088E+02 -0.14829478089E+01  0.39500742078E+02  0.47000000000E+01 0. -1.
        -13    1    6    6    0    0  0.96283746699E+02 -0.97631192964E+02 -0.31558910944E+03  0.34409140605E+03  0.00000000000E+00 0.  1.
         14    1    6    6    0    0  0.10992308897E+02 -0.15384508679E+02 -0.25430535754E+01  0.19078288279E+02  0.00000000000E+00 0. -1.
         -5    1    3    3    0  503 -0.58899490718E+02  0.41686013740E+02 -0.18242229754E+03  0.19623164471E+03  0.47000000000E+01 0.  1.
         13    1    4    4    0    0 -0.66818237666E+02  0.74888117264E+02 -0.88209196850E+03  0.88778327754E+03  0.00000000000E+00 0. -1.
        -14    1    4    4    0    0 -0.17635003297E+02 -0.18871591449E+02 -0.38707962004E+03  0.38794041108E+03  0.00000000000E+00 0.  1.
</event>
<event>
12    1  0.8728348E-002  0.1927775E+03  0.7818608E-02  0.1157070E+00
         21   -1    0    0  503  502  0.00000000000E+00  0.00000000000E+00  0.18884324679E+04  0.18884324679E+04  0.00000000000E+00 0. -1.
         21   -1    0    0  501  503 -0.00000000000E+00 -0.00000000000E+00 -0.26263669056E+02  0.26263669056E+02  0.00000000000E+00 0. -1.
          6    2    1    2  501    0  0.24130670927E+02  0.71032042988E+02  0.44283569274E+03  0.48297682777E+03  0.17758188248E+03 0.  0.
         24    2    3    3    0    0  0.22676045014E+02 -0.25151765600E+02  0.13601400971E+03  0.16139468251E+03  0.80010114203E+02 0.  0.
         -6    2    1    2    0  502 -0.24130670927E+02 -0.71032042988E+02  0.14193331061E+04  0.14317193091E+04  0.17229589028E+03 0.  0.
        -24    2    5    5    0    0  0.49883992729E+02 -0.61761456831E+02  0.69586350607E+03  0.70439925146E+03  0.75162464659E+02 0.  0.
          5    1    3    3  501    0  0.14546259131E+01  0.96183808587E+02  0.30682168304E+03  0.32158214526E+03  0.47000000000E+01 0. -1.
        -13    1    4    4    0    0 -0.28658437122E+02 -0.15264489957E+02  0.70188895831E+02  0.77335578940E+02  0.00000000000E+00 0.  1.
         14    1    4    4    0    0  0.51334482136E+02 -0.98872756424E+01  0.65825113875E+02  0.84059103567E+02  0.00000000000E+00 0. -1.
         -5    1    5    5    0  502 -0.74014663656E+02 -0.92705861568E+01  0.72346959998E+03  0.72732005767E+03  0.47000000000E+01 0.  1.
         13    1    6    6    0    0  0.54314652444E+01 -0.64162326677E+02  0.38070662017E+03  0.38611375995E+03  0.00000000000E+00 0. -1.
        -14    1    6    6    0    0  0.44452527484E+02  0.24008698468E+01  0.31515688590E+03  0.31828549151E+03  0.00000000000E+00 0.  1.
</event>
<event>
12    1  0.8728348E-002  0.1781664E+03  0.7818608E-02  0.1169923E+00
         21   -1    0    0  501  502  0.00000000000E+00  0.00000000000E+00  0.21188714803E+03  0.21188714803E+03  0.00000000000E+00 0. -1.
         21   -1    0    0  502  503 -0.00000000000E+00 -0.00000000000E+00 -0.22843411933E+03  0.22843411933E+03  0.00000000000E+00 0. -1.
         -6    2    1    2    0  503  0.35118174579E+02  0.24759146771E+02 -0.13834410134E+03  0.22450231202E+03  0.17151062997E+03 0.  0.
        -24    2    3    3    0    0  0.35837577626E+01 -0.79267986614E+01 -0.16128861674E+01  0.80348554956E+02  0.79859948816E+02 0.  0.
          6    2    1    2  501    0 -0.35118174579E+02 -0.24759146771E+02  0.12179713004E+03  0.21581895533E+03  0.17290742916E+03 0.  0.
         24    2    5    5    0    0 -0.78078109771E+02 -0.34762976856E+02  0.11351005225E+03  0.17069248520E+03  0.94587191296E+02 0.  0.
          5    1    5    5  501    0  0.42959935192E+02  0.10003830084E+02  0.82870777879E+01  0.45126470129E+02  0.47000000000E+01 0. -1.
        -11    1    6    6    0    0  0.12743290340E+02 -0.30962797610E+02  0.48508467317E+02  0.58941985765E+02  0.00000000000E+00 0.  1.
         12    1    6    6    0    0 -0.90821400112E+02 -0.38001792454E+01  0.65001584937E+02  0.11175049944E+03  0.00000000000E+00 0. -1.
         -5    1    3    3    0  503  0.31534416817E+02  0.32685945433E+02 -0.13673121518E+03  0.14415375707E+03  0.47000000000E+01 0.  1.
         13    1    4    4    0    0  0.99821158886E+01 -0.21717795301E+02 -0.35735593552E+02  0.42992300670E+02  0.00000000000E+00 0. -1.
        -14    1    4    4    0    0 -0.63983581260E+01  0.13790996640E+02  0.34122707385E+02  0.37356254286E+02  0.00000000000E+00 0.  1.
</event>
<event>
12    1  0.8728348E-002  0.3465838E+03  0.7818608E-02  0.1064073E+00
         21   -1    0    0  503  502  0.00000000000E+00  0.00000000000E+00  0.45516428071E+03  0.45516428071E+03  0.00000000000E+00 0.  1.
         21   -1    0    0  501  503 -0.00000000000E+00 -0.00000000000E+00 -0.36372696254E+03  0.36372696254E+03  0.00000000000E+00 0. -1.
          6    2    1    2  501    0  0.28145549759E+03 -0.10620858458E+03 -0.16912598601E+03  0.38564741996E+03  0.17211296528E+03 0.  0.
         24    2    3    3    0    0  0.13537120790E+03 -0.10947771019E+03 -0.52523326858E+02  0.19864587719E+03  0.79942177254E+02 0.  0.
         -6    2    1    2    0  502 -0.28145549759E+03  0.10620858458E+03  0.26056330418E+03  0.43324382328E+03  0.17120021719E+03 0.  0.
        -24    2    5    5    0    0 -0.12186747168E+03 -0.14249808195E+02  0.14206861090E+03  0.20077523457E+03  0.71221253330E+02 0.  0.
          5    1    3    3  501    0  0.14608428969E+03  0.32691256144E+01 -0.11660265916E+03  0.18700154277E+03  0.47000000000E+01 0. -1.
        -13    1    4    4    0    0  0.12174219101E+01  0.88272919802E+01 -0.12508391409E+02  0.15357833684E+02  0.00000000000E+00 0.  1.
         14    1    4    4    0    0  0.13415378599E+03 -0.11830500217E+03 -0.40014935449E+02  0.18328804351E+03  0.00000000000E+00 0. -1.
         -5    1    5    5    0  502 -0.15958802591E+03  0.12045839277E+03  0.11849469329E+03  0.23246858872E+03  0.47000000000E+01 0.  1.
         13    1    6    6    0    0 -0.53012045692E+02  0.23743706476E+02  0.34616204156E+02  0.67618948349E+02  0.00000000000E+00 0. -1.
        -14    1    6    6    0    0 -0.68855425993E+02 -0.37993514671E+02  0.10745240674E+03  0.13315628622E+03  0.00000000000E+00 0.  1.
</event>
<event>
12    1  0.8728348E-002  0.2127969E+03  0.7818608E-02  0.1139459E+00
         21   -1    0    0  503  502  0.00000000000E+00  0.00000000000E+00  0.77017511068E+03  0.77017511068E+03  0.00000000000E+00 0. -1.
         21   -1    0    0  501  503 -0.00000000000E+00 -0.00000000000E+00 -0.83168511703E+02  0.83168511703E+02  0.00000000000E+00 0. -1.
          6    2    1    2  501    0 -0.86789781055E+02 -0.90634265832E+02  0.11167226672E+03  0.23991707053E+03  0.17129643703E+03 0.  0.
         24    2    3    3    0    0 -0.11396775174E+03 -0.47444084963E+02  0.37259476258E+02  0.14956560569E+03  0.75776066145E+02 0.  0.
         -6    2    1    2    0  502  0.86789781055E+02  0.90634265832E+02  0.57533433225E+03  0.61342655185E+03  0.17185896661E+03 0.  0.
        -24    2    5    5    0    0  0.36870584715E+02  0.37878321748E+02  0.12214603882E+03  0.15443108879E+03  0.78326873492E+02 0.  0.
          5    1    3    3  501    0  0.27177970686E+02 -0.43190180868E+02  0.74412790464E+02  0.90351464840E+02  0.47000000000E+01 0. -1.
        -13    1    4    4    0    0 -0.37898332312E+02  0.17650412113E+02  0.24966858321E+02  0.48694606007E+02  0.00000000000E+00 0.  1.
         14    1    4    4    0    0 -0.76069419428E+02 -0.65094497076E+02  0.12292617937E+02  0.10087099969E+03  0.00000000000E+00 0. -1.
         -5    1    5    5    0  502  0.49919196340E+02  0.52755944083E+02  0.45318829343E+03  0.45899546305E+03  0.47000000000E+01 0.  1.
         13    1    6    6    0    0  0.51380554323E+02  0.50980608494E+02  0.10910376710E+03  0.13092981250E+03  0.00000000000E+00 0. -1.
        -14    1    6    6    0    0 -0.14509969608E+02 -0.13102286745E+02  0.13042271719E+02  0.23501276297E+02  0.00000000000E+00 0.  1.
</event>
<event>
12    1  0.8728348E-002  0.1967993E+03  0.7818608E-02  0.1152835E+00
         21   -1    0    0  503  502  0.00000000000E+00  0.00000000000E+00  0.16855222176E+03  0.16855222176E+03  0.00000000000E+00 0.  1.
         21   -1    0    0  501  503 -0.00000000000E+00 -0.00000000000E+00 -0.40530579156E+03  0.40530579156E+03  0.00000000000E+00 0.  1.
          6    2    1    2  501    0 -0.42254805812E+02 -0.81906503472E+02 -0.30796971046E+03  0.36456948410E+03  0.17196343289E+03 0.  0.
         24    2    3    3    0    0  0.38608121730E+02 -0.65497080469E+02 -0.20354007967E+03  0.23139396082E+03  0.79587351122E+02 0.  0.
         -6    2    1    2    0  502  0.42254805812E+02  0.81906503472E+02  0.71216140667E+02  0.20928852921E+03  0.17388446119E+03 0.  0.
        -24    2    5    5    0    0  0.68334336720E+01 -0.12620704616E+02 -0.74277132095E+01  0.81237709515E+02  0.79614172877E+02 0.  0.
          5    1    3    3  501    0 -0.80862927542E+02 -0.16409423003E+02 -0.10442963079E+03  0.13317552328E+03  0.47000000000E+01 0. -1.
        -13    1    4    4    0    0  0.44814712355E+02 -0.77332474714E+02 -0.19738953802E+03  0.21668248616E+03  0.00000000000E+00 0.  1.
         14    1    4    4    0    0 -0.62065906248E+01  0.11835394245E+02 -0.61505416524E+01  0.14711474662E+02  0.00000000000E+00 0. -1.
         -5    1    5    5    0  502  0.35421372140E+02  0.94527208088E+02  0.78643853876E+02  0.12805081970E+03  0.47000000000E+01 0.  1.
         13    1    6    6    0    0  0.33261880572E+02  0.17654769206E+02 -0.14649511764E+02  0.40406085802E+02  0.00000000000E+00 0. -1.
        -14    1    6    6    0    0 -0.26428446900E+02 -0.30275473822E+02  0.72217985545E+01  0.40831623713E+02  0.00000000000E+00 0.  1.
</event>
<event>
12    1  0.8728348E-002  0.1923272E+03  0.7818608E-02  0.1156745E+00
         21   -1    0    0  501  502  0.00000000000E+00  0.00000000000E+00  0.84327774874E+02  0.84327774874E+02  0.00000000000E+00 0.  1.
         21   -1    0    0  502  503 -0.00000000000E+00 -0.00000000000E+00 -0.44207234228E+03  0.44207234228E+03  0.00000000000E+00 0.  1.
         -6    2    1    2    0  503  0.73280991983E+02  0.42549337662E+02 -0.14459509354E+03  0.23930702857E+03  0.17082026498E+03 0.  0.
        -24    2    3    3    0    0  0.48681326953E+02 -0.27609286570E+02 -0.28087541003E+02  0.10101937232E+03  0.79270797433E+02 0.  0.
          6    2    1    2  501    0 -0.73280991983E+02 -0.42549337662E+02 -0.21314947387E+03  0.28709308858E+03  0.17265339087E+03 0.  0.
         24    2    5    5    0    0  0.28408992543E+02 -0.19871418480E+02 -0.73512503113E+02  0.11280678799E+03  0.78226205160E+02 0.  0.
          5    1    5    5  501    0 -0.10168998453E+03 -0.22677919182E+02 -0.13963697075E+03  0.17428630059E+03  0.47000000000E+01 0. -1.
        -11    1    6    6    0    0 -0.39189043778E+00 -0.45893858769E+02 -0.31848796954E+02  0.55863635025E+02  0.00000000000E+00 0.  1.
         12    1    6    6    0    0  0.28800882981E+02  0.26022440288E+02 -0.41663706159E+02  0.56943152968E+02  0.00000000000E+00 0. -1.
         -5    1    3    3    0  503  0.24599665031E+02  0.70158624232E+02 -0.11650755254E+03  0.13828765625E+03  0.47000000000E+01 0.  1.
         13    1    4    4    0    0 -0.17772056357E+02 -0.24778222261E+02 -0.76716829769E+01  0.31442980222E+02  0.00000000000E+00 0. -1.
        -14    1    4    4    0    0  0.66453383310E+02 -0.28310643089E+01 -0.20415858026E+02  0.69576392098E+02  0.00000000000E+00 0.  1.
</event>
<event>
12    1  0.8728348E-002  0.1938693E+03  0.7818608E-02  0.1156338E+00
         21   -1    0    0  503  502  0.00000000000E+00  0.00000000000E+00  0.25846510909E+03  0.25846510909E+03  0.00000000000E+00 0.  1.
         21   -1    0    0  501  503 -0.00000000000E+00 -0.00000000000E+00 -0.17512974761E+03  0.17512974761E+03  0.00000000000E+00 0.  1.
          6    2    1    2  501    0  0.82849333293E+02 -0.31541730561E+02 -0.53488503324E+02  0.20111268063E+03  0.17241344938E+03 0.  0.
         24    2    3    3    0    0  0.29432594920E+02  0.28513247343E+02 -0.75156212560E+02  0.11773685720E+03  0.80834573904E+02 0.  0.
         -6    2    1    2    0  502 -0.82849333293E+02  0.31541730561E+02  0.13682386480E+03  0.23248217607E+03  0.16573563110E+03 0.  0.
        -24    2    5    5    0    0 -0.90919107217E+01 -0.35427122980E+02  0.62243755125E+02  0.10794596652E+03  0.80251496888E+02 0.  0.
          5    1    3    3  501    0  0.53416738372E+02 -0.60054977904E+02  0.21667709236E+02  0.83375823432E+02  0.47000000000E+01 0. -1.
        -11    1    4    4    0    0  0.13325109723E+02  0.35104685424E+01 -0.85228726024E+02  0.86335494891E+02  0.00000000000E+00 0.  1.
         12    1    4    4    0    0  0.16107485197E+02  0.25002778800E+02  0.10072513463E+02  0.31401362305E+02  0.00000000000E+00 0. -1.
         -5    1    5    5    0  502 -0.73757422571E+02  0.66968853541E+02  0.74580109678E+02  0.12453620955E+03  0.47000000000E+01 0.  1.
         11    1    6    6    0    0 -0.33479804901E+02  0.22701040673E+00  0.16372263132E+01  0.33520581438E+02  0.00000000000E+00 0. -1.
        -12    1    6    6    0    0  0.24387894180E+02 -0.35654133387E+02  0.60606528812E+02  0.74425385083E+02  0.00000000000E+00 0.  1.
</event>
<event>
12    1  0.8728348E-002  0.2296669E+03  0.7818608E-02  0.1127073E+00
         21   -1    0    0  501  502  0.00000000000E+00  0.00000000000E+00  0.12322414330E+03  0.12322414330E+03  0.00000000000E+00 0.  1.
         21   -1    0    0  502  503 -0.00000000000E+00 -0.00000000000E+00 -0.82190962468E+03  0.82190962468E+03  0.00000000000E+00 0. -1.
         -6    2    1    2    0  503  0.42479402139E+02  0.14470585166E+03 -0.67777887308E+03  0.71563334734E+03  0.17321259747E+03 0.  0.
        -24    2    3    3    0    0  0.82558037344E+02  0.13546154676E+03 -0.62121388702E+03  0.64553740009E+03  0.75141076029E+02 0.  0.
          6    2    1    2  501    0 -0.42479402139E+02 -0.14470585166E+03 -0.20906608311E+02  0.22950042064E+03  0.17172382972E+03 0.  0.
         24    2    5    5    0    0  0.15582812049E+02 -0.10694172149E+02 -0.57576566835E+01  0.82592518550E+02  0.80194664166E+02 0.  0.
          5    1    5    5  501    0 -0.58062214188E+02 -0.13401167951E+03 -0.15148951627E+02  0.14690790209E+03  0.47000000000E+01 0. -1.
        -11    1    6    6    0    0  0.46966997200E+02 -0.17775443887E+02 -0.36108638240E+01  0.50347825861E+02  0.00000000000E+00 0.  1.
         12    1    6    6    0    0 -0.31384185151E+02  0.70812717377E+01 -0.21467928594E+01  0.32244692689E+02  0.00000000000E+00 0. -1.
         -5    1    3    3    0  503 -0.40078635205E+02  0.92443049022E+01 -0.56564986053E+02  0.70095947245E+02  0.47000000000E+01 0.  1.
         11    1    4    4    0    0 -0.27526830487E+01  0.49838844638E+02 -0.25666478689E+03  0.26147332660E+03  0.00000000000E+00 0. -1.
        -12    1    4    4    0    0  0.85310720393E+02  0.85622702120E+02 -0.36454910014E+03  0.38406407349E+03  0.00000000000E+00 0.  1.
</event>
<event>
12    1  0.8728348E-002  0.2196537E+03  0.7818608E-02  0.1134242E+00
         21   -1    0    0  501  502  0.00000000000E+00  0.00000000000E+00  0.96818363088E+02  0.96818363088E+02  0.00000000000E+00 0.  1.
         21   -1    0    0  502  503 -0.00000000000E+00 -0.00000000000E+00 -0.55518176815E+03  0.55518176815E+03  0.00000000000E+00 0. -1.
         -6    2    1    2    0  503 -0.13204801595E+03 -0.30415619651E+02 -0.33436249627E+03  0.39976216109E+03  0.17219093498E+03 0.  0.
        -24    2    3    3    0    0 -0.92304740523E+02  0.18021283043E+02 -0.10429751369E+03  0.16127180973E+03  0.79282365531E+02 0.  0.
          6    2    1    2  501    0  0.13204801595E+03  0.30415619651E+02 -0.12400090880E+03  0.25223797015E+03  0.17287561936E+03 0.  0.
         24    2    5    5    0    0  0.21506011972E+02  0.18003260459E+02 -0.11193433712E+03  0.14025005359E+03  0.79712958583E+02 0.  0.
          5    1    5    5  501    0  0.11054200398E+03  0.12412359192E+02 -0.12066571674E+02  0.11198791657E+03  0.47000000000E+01 0. -1.
        -11    1    6    6    0    0  0.81728397814E+01  0.43650953835E+01  0.11828949442E+02  0.15025758307E+02  0.00000000000E+00 0.  1.
         12    1    6    6    0    0  0.13333172191E+02  0.13638165075E+02 -0.12376328656E+03  0.12522429528E+03  0.00000000000E+00 0. -1.
         -5    1    3    3    0  503 -0.39743275430E+02 -0.48436902694E+02 -0.23006498258E+03  0.23849035136E+03  0.47000000000E+01 0.  1.
         11    1    4    4    0    0 -0.68384544124E+02 -0.21850658555E+02 -0.84109149346E+02  0.11058140060E+03  0.00000000000E+00 0. -1.
        -12    1    4    4    0    0 -0.23920196399E+02  0.39871941599E+02 -0.20188364347E+02  0.50690409128E+02  0.00000000000E+00 0.  1.
</event>
<event>
12    1  0.8728348E-002  0.1997102E+03  0.7818608E-02  0.1150483E+00
         21   -1    0    0  501  502  0.00000000000E+00  0.00000000000E+00  0.12965374220E+03  0.12965374220E+03  0.00000000000E+00 0. -1.
         21   -1    0    0  502  503 -0.00000000000E+00 -0.00000000000E+00 -0.30443623907E+03  0.30443623907E+03  0.00000000000E+00 0. -1.
         -6    2    1    2    0  503 -0.35576279253E+02 -0.95185579176E+02 -0.95967069218E+02  0.22157130183E+03  0.17192497577E+03 0.  0.
        -24    2    3    3    0    0 -0.22060692731E+01 -0.11562614487E+03 -0.11215164697E+03  0.17896357722E+03  0.77946763470E+02 0.  0.
          6    2    1    2  501    0  0.35576279253E+02  0.95185579176E+02 -0.78815427651E+02  0.21251867943E+03  0.16919323670E+03 0.  0.
         24    2    5    5    0    0  0.64119379128E+02  0.80485538044E+02 -0.50139383464E+01  0.13189889536E+03  0.82358742138E+02 0.  0.
          5    1    5    5  501    0 -0.28543099875E+02  0.14700041132E+02 -0.73801489305E+02  0.80619784069E+02  0.47000000000E+01 0. -1.
        -11    1    6    6    0    0 -0.38961334459E+00 -0.15673527112E+02  0.24368459087E+01  0.15866614909E+02  0.00000000000E+00 0.  1.
         12    1    6    6    0    0  0.64508992472E+02  0.96159065157E+02 -0.74507842551E+01  0.11603228046E+03  0.00000000000E+00 0. -1.
         -5    1    3    3    0  503 -0.33370209980E+02  0.20440565691E+02  0.16184577748E+02  0.42607724614E+02  0.47000000000E+01 0.  1.
         11    1    4    4    0    0 -0.20566032475E+02 -0.33187662097E+02 -0.60264926475E+00  0.39047993461E+02  0.00000000000E+00 0. -1.
        -12    1    4    4    0    0  0.18359963201E+02 -0.82438482770E+02 -0.11154899770E+03  0.13991558376E+03  0.00000000000E+00 0.  1.
</event>
<event>
12    1  0.8728348E-002  0.2165967E+03  0.7818608E-02  0.1136882E+00
         21   -1    0    0  501  502  0.00000000000E+00  0.00000000000E+00  0.34379075693E+03  0.34379075693E+03  0.00000000000E+00 0.  1.
         21   -1    0    0  502  503 -0.00000000000E+00 -0.00000000000E+00 -0.46901747193E+03  0.46901747193E+03  0.00000000000E+00 0. -1.
         -6    2    1    2    0  503  0.73648157197E+02 -0.10845912825E+03 -0.40546483048E+03  0.45862250936E+03  0.16954481348E+03 0.  0.
        -24    2    3    3    0    0  0.31348301559E+02 -0.92819913568E+02 -0.39088337311E+03  0.41099298363E+03  0.80790895839E+02 0.  0.
          6    2    1    2  501    0 -0.73648157197E+02  0.10845912825E+03  0.28023811547E+03  0.35418571950E+03  0.17241429458E+03 0.  0.
         24    2    5    5    0    0 -0.72920235834E+01  0.58379746183E+02  0.53932479319E+02  0.11304797477E+03  0.80061001134E+02 0.  0.
          5    1    5    5  501    0 -0.66356133614E+02  0.50079382066E+02  0.22630563616E+03  0.24113774473E+03  0.47000000000E+01 0. -1.
        -13    1    6    6    0    0 -0.43714147139E+02  0.35756648135E+02  0.31007480496E+02  0.64427698955E+02  0.00000000000E+00 0.  1.
         14    1    6    6    0    0  0.36422123556E+02  0.22623098048E+02  0.22924998823E+02  0.48620275818E+02  0.00000000000E+00 0. -1.
         -5    1    3    3    0  503  0.42299855639E+02 -0.15639214681E+02 -0.14581457370E+02  0.47629525737E+02  0.47000000000E+01 0.  1.
         11    1    4    4    0    0 -0.88100782898E+01 -0.25052984066E+01 -0.15457853698E+03  0.15484966288E+03  0.00000000000E+00 0. -1.
        -12    1    4    4    0    0  0.40158379849E+02 -0.90314615162E+02 -0.23630483613E+03  0.25614332075E+03  0.00000000000E+00 0.  1.
</event>
<event>
12    1  0.8728348E-002  0.2258849E+03  0.7818608E-02  0.1129747E+00
         21   -1    0    0  501  502  0.00000000000E+00  0.00000000000E+00  0.45838543182E+02  0.45838543182E+02  0.00000000000E+00 0. -1.
         21   -1    0    0  502  503 -0.00000000000E+00 -0.00000000000E+00 -0.18418409451E+04  0.18418409451E+04  0.00000000000E+00 0.  1.
         -6    2    1    2    0  503  0.10795425679E+03  0.96522977437E+02 -0.14924672354E+04  0.15093177544E+04  0.17207797132E+03 0.  0.
        -24    2    3    3    0    0  0.11450438482E+03  0.59458628041E+02 -0.66124681268E+03  0.67723233129E+03  0.68918072172E+02 0.  0.
          6    2    1    2  501    0 -0.10795425679E+03 -0.96522977437E+02 -0.30353516649E+03  0.37836173387E+03  0.17335858108E+03 0.  0.
         24    2    5    5    0    0 -0.64668248681E+02 -0.12661892434E+02 -0.25333362248E+03  0.27136339231E+03  0.71539223525E+02 0.  0.
          5    1    5    5  501    0 -0.43286008105E+02 -0.83861085003E+02 -0.50201544012E+02  0.10699834156E+03  0.47000000000E+01 0. -1.
        -13    1    6    6    0    0 -0.38464926624E+02  0.10596921125E+02 -0.45152125972E+02  0.60254126807E+02  0.00000000000E+00 0.  1.
         14    1    6    6    0    0 -0.26203322057E+02 -0.23258813560E+02 -0.20818149651E+03  0.21110926551E+03  0.00000000000E+00 0. -1.
         -5    1    3    3    0  503 -0.65501280345E+01  0.37064349396E+02 -0.83122042272E+03  0.83208542309E+03  0.47000000000E+01 0.  1.
         13    1    4    4    0    0  0.10829439631E+03  0.32713113777E+02 -0.59253838938E+03  0.60324088636E+03  0.00000000000E+00 0. -1.
        -14    1    4    4    0    0  0.62099885111E+01  0.26745514264E+02 -0.68708423299E+02  0.73991444929E+02  0.00000000000E+00 0.  1.
</event>
<event>
12    1  0.8728348E-002  0.2476240E+03  0.7818608E-02  0.1114856E+00
         21   -1    0    0  503  502  0.00000000000E+00  0.00000000000E+00  0.65891504310E+03  0.65891504310E+03  0.00000000000E+00 0. -1.
         21   -1    0    0  501  503 -0.00000000000E+00 -0.00000000000E+00 -0.93000168908E+02  0.93000168908E+02  0.00000000000E+00 0. -1.
          6    2    1    2  501    0  0.16329308885E+03  0.68887871645E+02  0.29027202894E+03  0.38137960315E+03  0.17257572015E+03 0.  0.
         24    2    3    3    0    0  0.64389375946E+02  0.82862526462E+02  0.22930498758E+03  0.26426297096E+03  0.79006015371E+02 0.  0.
         -6    2    1    2    0  502 -0.16329308885E+03 -0.68887871645E+02  0.27564284525E+03  0.37053560886E+03  0.17293781417E+03 0.  0.
        -24    2    5    5    0    0 -0.23165573182E+02 -0.33232600711E+02  0.16727736175E+03  0.18978111512E+03  0.79963156340E+02 0.  0.
          5    1    3    3  501    0  0.98903712901E+02 -0.13974654816E+02  0.60967041363E+02  0.11711663219E+03  0.47000000000E+01 0. -1.
        -13    1    4    4    0    0 -0.14833050808E+02 -0.22021755707E+01  0.29917636843E+02  0.33465414502E+02  0.00000000000E+00 0.  1.
         14    1    4    4    0    0  0.79222426754E+02  0.85064702033E+02  0.19938735074E+03  0.23079755646E+03  0.00000000000E+00 0. -1.
         -5    1    5    5    0  502 -0.14012751566E+03 -0.35655270935E+02  0.10836548350E+03  0.18075449373E+03  0.47000000000E+01 0.  1.
         13    1    6    6    0    0 -0.10114513119E+02 -0.53475085823E+02  0.65337123136E+02  0.85034274496E+02  0.00000000000E+00 0. -1.
        -14    1    6    6    0    0 -0.13051060063E+02  0.20242485112E+02  0.10194023861E+03  0.10474684063E+03  0.00000000000E+00 0.  1.
</event>
<event>
12    1  0.8728348E-002  0.1938824E+03  0.7818608E-02  0.1155284E+00
         21   -1    0    0  503  502  0.00000000000E+00  0.00000000000E+00  0.14812488479E+02  0.14812488479E+02  0.00000000000E+00 0. -1.
         21   -1    0    0  501  503 -0.00000000000E+00 -0.00000000000E+00 -0.29496228415E+04  0.29496228415E+04  0.00000000000E+00 0. -1.
          6    2    1    2  501    0 -0.44709554627E+02 -0.78430397398E+02 -0.20281704202E+04  0.20372965231E+04  0.17015169202E+03 0.  0.
         24    2    3    3    0    0 -0.81338686211E+02 -0.60812181003E+02 -0.99097936858E+03  0.99929870889E+03  0.79017070274E+02 0.  0.
         -6    2    1    2    0  502  0.44709554627E+02  0.78430397398E+02 -0.90663993286E+03  0.92713880688E+03  0.17158125731E+03 0.  0.
        -24    2    5    5    0    0  0.50294683137E+02 -0.10134303171E+02 -0.32365981062E+03  0.33742462800E+03  0.80420440919E+02 0.  0.
          5    1    3    3  501    0  0.36629131583E+02 -0.17618216395E+02 -0.10371910516E+04  0.10379978142E+04  0.47000000000E+01 0. -1.
        -11    1    4    4    0    0 -0.77298054260E+02 -0.51040236356E+02 -0.97878419243E+03  0.98315745955E+03  0.00000000000E+00 0.  1.
         12    1    4    4    0    0 -0.40406319510E+01 -0.97719446471E+01 -0.12195176152E+02  0.16141249336E+02  0.00000000000E+00 0. -1.
         -5    1    5    5    0  502 -0.55851285097E+01  0.88564700568E+02 -0.58298012225E+03  0.58971417889E+03  0.47000000000E+01 0.  1.
         13    1    6    6    0    0  0.37247094649E+02  0.53606654111E+01 -0.47862106334E+02  0.60884021025E+02  0.00000000000E+00 0. -1.
        -14    1    6    6    0    0  0.13047588488E+02 -0.15494968582E+02 -0.27579770428E+03  0.27654060697E+03  0.00000000000E+00 0.  1.
</event>
<event>
12    1  0.8728348E-002  0.1897189E+03  0.7818608E-02  0.1159171E+00
         21   -1    0    0  501  502  0.00000000000E+00  0.00000000000E+00  0.58397623262E+02  0.58397623262E+02  0.00000000000E+00 0. -1.
         21   -1    0    0  502  503 -0.00000000000E+00 -0.00000000000E+00 -0.65462276912E+03  0.65462276912E+03  0.00000000000E+00 0.  1.
         -6    2    1    2    0  503 -0.17831364889E+02 -0.74515757820E+02 -0.20634918055E+03  0.28030918330E+03  0.17355891850E+03 0.  0.
        -24    2    3    3    0    0 -0.66205678993E+02 -0.39156815825E+01 -0.12868748046E+03  0.16464642053E+03  0.78418439632E+02 0.  0.
          6    2    1    2  501    0  0.17831364889E+02  0.74515757820E+02 -0.38987596531E+03  0.43271120909E+03  0.17136267506E+03 0.  0.
         24    2    5    5    0    0 -0.27197641091E+01 -0.25474079812E+02 -0.18089938075E+03  0.20008786669E+03  0.81573540938E+02 0.  0.
          5    1    5    5  501    0  0.20551128998E+02  0.99989837631E+02 -0.20897658456E+03  0.23262334240E+03  0.47000000000E+01 0. -1.
        -11    1    6    6    0    0  0.44291899446E+01 -0.98755118833E+01 -0.18253109750E+03  0.18285170224E+03  0.00000000000E+00 0.  1.
         12    1    6    6    0    0 -0.71489540536E+01 -0.15598567928E+02  0.16317167436E+01  0.17236164452E+02  0.00000000000E+00 0. -1.
         -5    1    3    3    0  503  0.48374314104E+02 -0.70600076237E+02 -0.77661700089E+02  0.11566276276E+03  0.47000000000E+01 0.  1.
         13    1    4    4    0    0 -0.37845596780E+02 -0.34738770331E+02 -0.35401068971E+02  0.62388356639E+02  0.00000000000E+00 0. -1.
        -14    1    4    4    0    0 -0.28360082212E+02  0.30823088749E+02 -0.93286411487E+02  0.10225806389E+03  0.00000000000E+00 0.  1.
</event>
<event>
12    1  0.8728348E-002  0.2397442E+03  0.7818608E-02  0.1120044E+00
         21   -1    0    0  501  502  0.00000000000E+00  0.00000000000E+00  0.20090027032E+03  0.20090027032E+03  0.00000000000E+00 0. -1.
         21   -1    0    0  502  503 -0.00000000000E+00 -0.00000000000E+00 -0.44297670884E+03  0.44297670884E+03  0.00000000000E+00 0.  1.
         -6    2    1    2    0  503 -0.10241722481E+03  0.13157709903E+03 -0.31289791243E+03  0.39389105838E+03  0.17159032997E+03 0.  0.
        -24    2    3    3    0    0 -0.85889678268E+02  0.13330023173E+02 -0.17081114306E+03  0.20824012040E+03  0.81441849188E+02 0.  0.
          6    2    1    2  501    0  0.10241722481E+03 -0.13157709903E+03  0.70821473912E+02  0.24998592078E+03  0.17226566255E+03 0.  0.
         24    2    5    5    0    0  0.12750386998E+03 -0.12433099141E+03  0.92416479220E+02  0.21577656394E+03  0.79393246734E+02 0.  0.
          5    1    5    5  501    0 -0.25086645170E+02 -0.72461076161E+01 -0.21595005309E+02  0.34209356845E+02  0.47000000000E+01 0. -1.
        -11    1    6    6    0    0  0.11772924456E+03 -0.73747418034E+02  0.45738293054E+02  0.14625610464E+03  0.00000000000E+00 0.  1.
         12    1    6    6    0    0  0.97746254210E+01 -0.50583573375E+02  0.46678186166E+02  0.69520459300E+02  0.00000000000E+00 0. -1.
         -5    1    3    3    0  503 -0.16527546543E+02  0.11824707585E+03 -0.14208676937E+03  0.18565093798E+03  0.47000000000E+01 0.  1.
         13    1    4    4    0    0 -0.97305548982E+02  0.87859029125E+01 -0.11410565781E+03  0.15021871753E+03  0.00000000000E+00 0. -1.
        -14    1    4    4    0    0  0.11415870714E+02  0.45441202602E+01 -0.56705485250E+02  0.58021402866E+02  0.00000000000E+00 0.  1.
</event>
<event>
12    1  0.8728348E-002  0.2380361E+03  0.7818608E-02  0.1121271E+00
         21   -1    0    0  501  502  0.00000000000E+00  0.00000000000E+00  0.34636098822E+03  0.34636098822E+03  0.00000000000E+00 0. -1.
         21   -1    0    0  502  503 -0.00000000000E+00 -0.00000000000E+00 -0.18003496307E+03  0.18003496307E+03  0.00000000000E+00 0.  1.
         -6    2    1    2    0  503 -0.16352488590E+03  0.32383553002E+01  0.18744051645E+01  0.23707689925E+03  0.17161313328E+03 0.  0.
        -24    2    3    3    0    0 -0.99052262292E+02 -0.46443268541E+02 -0.44410750422E+02  0.14332516023E+03  0.81249362735E+02 0.  0.
          6    2    1    2  501    0  0.16352488590E+03 -0.32383553002E+01  0.16445161999E+03  0.28931905204E+03  0.17294595486E+03 0.  0.
         24    2    5    5    0    0  0.14283301169E+03 -0.24785283440E+02  0.51723923039E+02  0.17260552485E+03  0.78113529489E+02 0.  0.
          5    1    5    5  501    0  0.20691874206E+02  0.21546928139E+02  0.11272769695E+03  0.11671352719E+03  0.47000000000E+01 0. -1.
        -11    1    6    6    0    0  0.31539004880E+02 -0.31498296120E+02  0.41054868477E+02  0.60599948126E+02  0.00000000000E+00 0.  1.
         12    1    6    6    0    0  0.11129400681E+03  0.67130126804E+01  0.10669054562E+02  0.11200557672E+03  0.00000000000E+00 0. -1.
         -5    1    3    3    0  503 -0.64472623604E+02  0.49681623841E+02  0.46285155587E+02  0.93751739021E+02  0.47000000000E+01 0.  1.
         13    1    4    4    0    0 -0.55263746393E+02  0.94013287295E+01  0.58531478314E+01  0.56362451923E+02  0.00000000000E+00 0. -1.
        -14    1    4    4    0    0 -0.43788515899E+02 -0.55844597270E+02 -0.50263898254E+02  0.86962708310E+02  0.00000000000E+00 0.  1.
</event>
<event>
12    1  0.8728348E-002  0.1814902E+03  0.7818608E-02  0.1167176E+00
         21   -1    0    0  501  502  0.00000000000E+00  0.00000000000E+00  0.16389218939E+04  0.16389218939E+04  0.00000000000E+00 0.  1.
         21   -1    0    0  502  503 -0.00000000000E+00 -0.00000000000E+00 -0.44791222627E+02  0.44791222627E+02  0.00000000000E+00 0.  1.
         -6    2    1    2    0  503 -0.32282349705E+02  0.43697816905E+02  0.16410095515E+03  0.24221261975E+03  0.16966490616E+03 0.  0.
        -24    2    3    3    0    0 -0.43215931653E+00 -0.34675988194E+02  0.55434355359E+02  0.10441781628E+03  0.81409469251E+02 0.  0.
          6    2    1    2  501    0  0.32282349705E+02 -0.43697816905E+02  0.14300297161E+04  0.14415004968E+04  0.17316767570E+03 0.  0.
         24    2    5    5    0    0  0.51753974879E+02  0.15847102446E+02  0.11718645703E+04  0.11758012794E+04  0.79451072352E+02 0.  0.
          5    1    5    5  501    0 -0.19471625174E+02 -0.59544919351E+02  0.25816514588E+03  0.26569921745E+03  0.47000000000E+01 0. -1.
        -13    1    6    6    0    0  0.27116824380E+02 -0.31433193253E+02  0.41907010197E+03  0.42112126302E+03  0.00000000000E+00 0.  1.
         14    1    6    6    0    0  0.24637150499E+02  0.47280295699E+02  0.75279446830E+03  0.75468001633E+03  0.00000000000E+00 0. -1.
         -5    1    3    3    0  503 -0.31850190388E+02  0.78373805099E+02  0.10866659979E+03  0.13779480347E+03  0.47000000000E+01 0.  1.
         13    1    4    4    0    0 -0.15156168401E+02 -0.45629020004E+02  0.22238354973E+01  0.48131718767E+02  0.00000000000E+00 0. -1.
        -14    1    4    4    0    0  0.14724009084E+02  0.10953031810E+02  0.53210519861E+02  0.56286097513E+02  0.00000000000E+00 0.  1.
</event>
<event>
12    1  0.8728348E-002  0.2914085E+03  0.7818608E-02  0.1089702E+00
         21   -1    0    0  501  502  0.00000000000E+00  0.00000000000E+00  0.43367618890E+03  0.43367618890E+03  0.00000000000E+00 0.  1.
         21   -1    0    0  502  503 -0.00000000000E+00 -0.00000000000E+00 -0.33510212790E+03  0.33510212790E+03  0.00000000000E+00 0. -1.
         -6    2    1    2    0  503 -0.21350358092E+03  0.97259823258E+02 -0.19896541380E+03  0.35230661676E+03  0.17172496626E+03 0.  0.
        -24    2    3    3    0    0 -0.16286738316E+03  0.52102859556E+01 -0.15416825777E+03  0.23799993703E+03  0.79518467964E+02 0.  0.
          6    2    1    2  501    0  0.21350358092E+03 -0.97259823258E+02  0.29753947480E+03  0.41647170004E+03  0.17284584340E+03 0.  0.
         24    2    5    5    0    0  0.17316133100E+03 -0.59434096322E+02  0.12725585479E+03  0.23737149347E+03  0.81448848827E+02 0.  0.
          5    1    5    5  501    0  0.40342249921E+02 -0.37825726936E+02  0.17028362002E+03  0.17910020657E+03  0.47000000000E+01 0. -1.
        -11    1    6    6    0    0  0.12438862688E+03 -0.43801439635E+02  0.13117460095E+03  0.18600503366E+03  0.00000000000E+00 0.  1.
         12    1    6    6    0    0  0.48772704119E+02 -0.15632656687E+02 -0.39187461633E+01  0.51366459812E+02  0.00000000000E+00 0. -1.
         -5    1    3    3    0  503 -0.50636197766E+02  0.92049537303E+02 -0.44797156024E+02  0.11430667972E+03  0.47000000000E+01 0.  1.
         13    1    4    4    0    0 -0.12366357117E+03  0.38814710580E+02 -0.11321824468E+03  0.17209773828E+03  0.00000000000E+00 0. -1.
        -14    1    4    4    0    0 -0.39203811989E+02 -0.33604424624E+02 -0.40950013094E+02  0.65902198758E+02  0.00000000000E+00 0.  1.
</event>
<event>
12    1  0.8728348E-002  0.2147609E+03  0.7818608E-02  0.1138813E+00
         21   -1    0    0  501  502  0.00000000000E+00  0.00000000000E+00  0.63308420351E+02  0.63308420351E+02  0.00000000000E+00 0.  1.
         21   -1    0    0  502  503 -0.00000000000E+00 -0.00000000000E+00 -0.72884800710E+03  0.72884800710E+03  0.00000000000E+00 0.  1.
         -6    2    1    2    0  503 -0.91091574222E+01 -0.12735721662E+03 -0.38946265911E+03  0.44238402658E+03  0.16649212221E+03 0.  0.
        -24    2    3    3    0    0  0.24087747144E+02 -0.12439742660E+03 -0.37833861037E+03  0.40693505917E+03  0.80006868344E+02 0.  0.
          6    2    1    2  501    0  0.91091574222E+01  0.12735721662E+03 -0.27607692764E+03  0.34977240087E+03  0.17268301904E+03 0.  0.
         24    2    5    5    0    0 -0.13826544226E+02  0.10092122939E+03 -0.83764172928E+02  0.15424441450E+03  0.79991467485E+02 0.  0.
          5    1    5    5  501    0  0.22935701648E+02  0.26435987224E+02 -0.19231275471E+03  0.19552798637E+03  0.47000000000E+01 0. -1.
        -11    1    6    6    0    0  0.15889271567E+02  0.77357236059E+02 -0.85357244677E+02  0.11628615627E+03  0.00000000000E+00 0.  1.
         12    1    6    6    0    0 -0.29715815792E+02  0.23563993333E+02  0.15930717490E+01  0.37958258227E+02  0.00000000000E+00 0. -1.
         -5    1    3    3    0  503 -0.33196904566E+02 -0.29597900136E+01 -0.11124048741E+02  0.35448967405E+02  0.47000000000E+01 0.  1.
         11    1    4    4    0    0 -0.15644672997E+02 -0.52536755716E+02 -0.23895888369E+03  0.24516568803E+03  0.00000000000E+00 0. -1.
        -12    1    4    4    0    0  0.39732420141E+02 -0.71860670886E+02 -0.13937972668E+03  0.16176937114E+03  0.00000000000E+00 0.  1.
</event>
<event>
12    1  0.8728348E-002  0.1928244E+03  0.7818608E-02  0.1155968E+00
         21   -1    0    0  503  502  0.00000000000E+00  0.00000000000E+00  0.18415507331E+03  0.18415507331E+03  0.00000000000E+00 0. -1.
         21   -1    0    0  501  503 -0.00000000000E+00 -0.00000000000E+00 -0.24128770229E+03  0.24128770229E+03  0.00000000000E+00 0. -1.
          6    2    1    2  501    0 -0.30704828763E+02  0.82520529797E+02 -0.11467404768E+03  0.22434660414E+03  0.17154835246E+03 0.  0.
         24    2    3    3    0    0  0.34670728619E+02  0.81425503241E+01 -0.28482426782E+02  0.92980197299E+02  0.81029055934E+02 0.  0.
         -6    2    1    2    0  502  0.30704828763E+02 -0.82520529797E+02  0.57541418706E+02  0.20109617146E+03  0.17139495606E+03 0.  0.
        -24    2    5    5    0    0  0.19848155007E+02 -0.29020886206E+02 -0.34942842477E+02  0.93599623627E+02  0.79396008775E+02 0.  0.
          5    1    3    3  501    0 -0.65375557382E+02  0.74377979473E+02 -0.86191620902E+02  0.13136640684E+03  0.47000000000E+01 0. -1.
        -11    1    4    4    0    0 -0.19945210137E+02 -0.18734378426E+02 -0.12258252468E+02  0.29984214114E+02  0.00000000000E+00 0.  1.
         12    1    4    4    0    0  0.54615938756E+02  0.26876928751E+02 -0.16224174314E+02  0.62995983185E+02  0.00000000000E+00 0. -1.
         -5    1    5    5    0  502  0.10856673756E+02 -0.53499643591E+02  0.92484261183E+02  0.10749654783E+03  0.47000000000E+01 0.  1.
         13    1    6    6    0    0 -0.83310191693E+01  0.18177832930E+02  0.10219338088E+02  0.22456054003E+02  0.00000000000E+00 0. -1.
        -14    1    6    6    0    0  0.28179174176E+02 -0.47198719136E+02 -0.45162180565E+02  0.71143569623E+02  0.00000000000E+00 0.  1.
</event>
<event>
12    1  0.8728348E-002  0.2060131E+03  0.7818608E-02  0.1144784E+00
         21   -1    0    0  503  502  0.00000000000E+00  0.00000000000E+00  0.11972424087E+03  0.11972424087E+03  0.00000000000E+00 0.  1.
         21   -1    0    0  501  503 -0.00000000000E+00 -0.00000000000E+00 -0.35541847310E+03  0.35541847310E+03  0.00000000000E+00 0.  1.
          6    2    1    2  501    0  0.10596914672E+03 -0.41387935618E+02 -0.10457155497E+03  0.23094084288E+03  0.17162762461E+03 0.  0.
         24    2    3    3    0    0  0.89451008565E+02 -0.52316021020E+02 -0.13894849372E+03  0.19098917387E+03  0.80198077548E+02 0.  0.
         -6    2    1    2    0  502 -0.10596914672E+03  0.41387935618E+02 -0.13112267726E+03  0.24420187109E+03  0.17175265960E+03 0.  0.
        -24    2    5    5    0    0 -0.73951194150E+02  0.12602212731E+02 -0.15902547312E+03  0.19268077690E+03  0.78798387054E+02 0.  0.
          5    1    3    3  501    0  0.16518138159E+02  0.10928085402E+02  0.34376938749E+02  0.39951669009E+02  0.47000000000E+01 0. -1.
        -11    1    4    4    0    0  0.24537844328E+02 -0.43148082442E+02 -0.16877146454E+02  0.52428054466E+02  0.00000000000E+00 0.  1.
         12    1    4    4    0    0  0.64913164237E+02 -0.91679385775E+01 -0.12207134726E+03  0.13856111941E+03  0.00000000000E+00 0. -1.
         -5    1    5    5    0  502 -0.32017952574E+02  0.28785722887E+02  0.27902795867E+02  0.51521094188E+02  0.47000000000E+01 0.  1.
         13    1    6    6    0    0 -0.51302505760E+02 -0.25364211841E+02 -0.53808091403E+02  0.78553173328E+02  0.00000000000E+00 0. -1.
        -14    1    6    6    0    0 -0.22648688389E+02  0.37966424572E+02 -0.10521738172E+03  0.11412760357E+03  0.00000000000E+00 0.  1.
</event>
<event>
12    1  0.8728348E-002  0.2261198E+03  0.7818608E-02  0.1129656E+00
         21   -1    0    0  503  502  0.00000000000E+00  0.00000000000E+00  0.76956716654E+03  0.76956716654E+03  0.00000000000E+00 0.  1.
         21   -1    0    0  501  503 -0.00000000000E+00 -0.00000000000E+00 -0.98333386926E+02  0.98333386926E+02  0.00000000000E+00 0.  1.
          6    2    1    2  501    0  0.12778358144E+03  0.69325575773E+02  0.58505726644E+03  0.62723374641E+03  0.17319205665E+03 0.  0.
         24    2    3    3    0    0  0.14450880072E+03  0.19065936413E+02  0.49721318718E+03  0.52454763942E+03  0.81749428743E+02 0.  0.
         -6    2    1    2    0  502 -0.12778358144E+03 -0.69325575773E+02  0.86176513174E+02  0.24066680705E+03  0.17134597005E+03 0.  0.
        -24    2    5    5    0    0 -0.38404054971E+02 -0.82885717247E+02  0.77310385314E+01  0.12088216830E+03  0.78789695358E+02 0.  0.
          5    1    3    3  501    0 -0.16725219277E+02  0.50259639360E+02  0.87844079256E+02  0.10268610699E+03  0.47000000000E+01 0. -1.
        -13    1    4    4    0    0  0.80733201912E+02  0.40472182367E+02  0.36742631510E+03  0.37836218688E+03  0.00000000000E+00 0.  1.
         14    1    4    4    0    0  0.63775598805E+02 -0.21406245954E+02  0.12978687209E+03  0.14618545254E+03  0.00000000000E+00 0. -1.
         -5    1    5    5    0  502 -0.89379526469E+02  0.13560141474E+02  0.78445474643E+02  0.11978463875E+03  0.47000000000E+01 0.  1.
         13    1    6    6    0    0 -0.52860971387E+02 -0.47715391545E+02  0.29484531236E+02  0.77073850744E+02  0.00000000000E+00 0. -1.
        -14    1    6    6    0    0  0.14456916417E+02 -0.35170325702E+02 -0.21753492705E+02  0.43808317557E+02  0.00000000000E+00 0.  1.
</event>
<event>
12    1  0.8728348E-002  0.1991117E+03  0.7818608E-02  0.1150674E+00
         21   -1    0    0  503  502  0.00000000000E+00  0.00000000000E+00  0.99344064897E+03  0.99344064897E+03  0.00000000000E+00 0. -1.
         21   -1    0    0  501  503 -0.00000000000E+00 -0.00000000000E+00 -0.10881952087E+03  0.10881952087E+03  0.00000000000E+00 0.  1.
          6    2    1    2  501    0 -0.98337791241E+02  0.99428523790E+01  0.35321017391E+01  0.19914304940E+03  0.17284761173E+03 0.  0.
         24    2    3    3    0    0  0.19741963760E+01 -0.21792394376E+01  0.56590235433E+02  0.84920917037E+02  0.63249196582E+02 0.  0.
         -6    2    1    2    0  502  0.98337791241E+02 -0.99428523790E+01  0.88108902636E+03  0.90311712045E+03  0.17185307496E+03 0.  0.
        -24    2    5    5    0    0  0.80132194551E+02  0.18006762335E+02  0.30300573017E+03  0.32405321029E+03  0.80328067881E+02 0.  0.
          5    1    3    3  501    0 -0.10031198762E+03  0.12122091817E+02 -0.53058133694E+02  0.11422213236E+03  0.47000000000E+01 0. -1.
        -13    1    4    4    0    0  0.21496677163E+02 -0.65562289432E+01 -0.24267439740E+01  0.22604874548E+02  0.00000000000E+00 0.  1.
         14    1    4    4    0    0 -0.19522480787E+02  0.43769895056E+01  0.59016979407E+02  0.62316042489E+02  0.00000000000E+00 0. -1.
         -5    1    5    5    0  502  0.18205596691E+02 -0.27949614714E+02  0.57808329619E+03  0.57906391016E+03  0.47000000000E+01 0.  1.
         11    1    6    6    0    0  0.78612975293E+02  0.41665560639E+02  0.26190882674E+03  0.27660848207E+03  0.00000000000E+00 0. -1.
        -12    1    6    6    0    0  0.15192192580E+01 -0.23658798305E+02  0.41096903422E+02  0.47444728213E+02  0.00000000000E+00 0.  1.
</event>
<event>
12    1  0.8728348E-002  0.1820195E+03  0.7818608E-02  0.1166060E+00
         21   -1    0    0  503  502  0.00000000000E+00  0.00000000000E+00  0.44273550679E+03  0.44273550679E+03  0.00000000000E+00 0. -1.
         21   -1    0    0  501  503 -0.00000000000E+00 -0.00000000000E+00 -0.10635483213E+03  0.10635483213E+03  0.00000000000E+00 0. -1.
          6    2    1    2  501    0  0.61836495721E+02  0.10344769396E+02  0.18191622261E+02  0.18292626547E+03  0.17088100252E+03 0.  0.
         24    2    3    3    0    0  0.84125729672E+02 -0.25953656585E+02 -0.22426189538E+02  0.12388151707E+03  0.84219745970E+02 0.  0.
         -6    2    1    2    0  502 -0.61836495721E+02 -0.10344769396E+02  0.31818905241E+03  0.36616407345E+03  0.17000320337E+03 0.  0.
        -24    2    5    5    0    0 -0.93384443957E+02 -0.42804248115E+02  0.18994151624E+03  0.23008170380E+03  0.79416325784E+02 0.  0.
          5    1    3    3  501    0 -0.22289233951E+02  0.36298425982E+02  0.40617811800E+02  0.59044748405E+02  0.47000000000E+01 0. -1.
        -13    1    4    4    0    0  0.19051686373E+02 -0.17673644990E+01  0.30898015106E+02  0.36342504983E+02  0.00000000000E+00 0.  1.
         14    1    4    4    0    0  0.65074043299E+02 -0.24186292086E+02 -0.53324204644E+02  0.87539012087E+02  0.00000000000E+00 0. -1.
         -5    1    5    5    0  502  0.31547948235E+02  0.32459478718E+02  0.12824753617E+03  0.13608236965E+03  0.47000000000E+01 0.  1.
         11    1    6    6    0    0 -0.95509002934E+02 -0.47380519695E+02  0.19543390721E+03  0.22262366311E+03  0.00000000000E+00 0. -1.
        -12    1    6    6    0    0  0.21245589769E+01  0.45762715805E+01 -0.54923909676E+01  0.74580406921E+01  0.00000000000E+00 0.  1.
</event>
<event>
12    1  0.8728348E-002  0.1880842E+03  0.7818608E-02  0.1160792E+00
         21   -1    0    0  501  502  0.00000000000E+00  0.00000000000E+00  0.17623644626E+03  0.17623644626E+03  0.00000000000E+00 0. -1.
         21   -1    0    0  502  503 -0.00000000000E+00 -0.00000000000E+00 -0.21077508133E+03  0.21077508133E+03  0.00000000000E+00 0.  1.
         -6    2    1    2    0  503 -0.71481429772E+02 -0.19800686797E+02  0.30261931876E+02  0.19050317752E+03  0.17284100822E+03 0.  0.
        -24    2    3    3    0    0 -0.53163541899E+02  0.50695362756E+02 -0.88776194009E+01  0.10768269398E+03  0.78232783827E+02 0.  0.
          6    2    1    2  501    0  0.71481429772E+02  0.19800686797E+02 -0.64800566946E+02  0.19650835007E+03  0.17004339497E+03 0.  0.
         24    2    5    5    0    0 -0.25743035487E+01  0.11257940335E+02  0.20435561179E+02  0.83174693585E+02  0.79793791945E+02 0.  0.
          5    1    5    5  501    0  0.74055733321E+02  0.85427464624E+01 -0.85236128126E+02  0.11333365649E+03  0.47000000000E+01 0. -1.
        -11    1    6    6    0    0 -0.18394359627E+01 -0.17610996097E+02 -0.24215585759E+02  0.29998755004E+02  0.00000000000E+00 0.  1.
         12    1    6    6    0    0 -0.73486758603E+00  0.28868936432E+02  0.44651146938E+02  0.53175938581E+02  0.00000000000E+00 0. -1.
         -5    1    3    3    0  503 -0.18317887873E+02 -0.70496049553E+02  0.39139551277E+02  0.82820483535E+02  0.47000000000E+01 0.  1.
         13    1    4    4    0    0 -0.28348870369E+02  0.17883475098E+02  0.34360212276E+02  0.48001055410E+02  0.00000000000E+00 0. -1.
        -14    1    4    4    0    0 -0.24814671530E+02  0.32811887658E+02 -0.43237831677E+02  0.59681638575E+02  0.00000000000E+00 0.  1.
</event>
<event>
12    1  0.8728348E-002  0.1729816E+03  0.7818608E-02  0.1175014E+00
         21   -1    0    0  501  502  0.00000000000E+00  0.00000000000E+00  0.43415798259E+02  0.43415798259E+02  0.00000000000E+00 0. -1.
         21   -1    0    0  502  503 -0.00000000000E+00 -0.00000000000E+00 -0.69741939568E+03  0.69741939568E+03  0.00000000000E+00 0. -1.
         -6    2    1    2    0  503  0.80057328591E+01  0.71859883829E+01 -0.37460190210E+03  0.41222002958E+03  0.17170625366E+03 0.  0.
        -24    2    3    3    0    0  0.79659783126E+01  0.70281084707E+02 -0.25547195635E+03  0.27733108736E+03  0.81509041554E+02 0.  0.
          6    2    1    2  501    0 -0.80057328591E+01 -0.71859883829E+01 -0.27940169532E+03  0.32861516435E+03  0.17264671647E+03 0.  0.
         24    2    5    5    0    0  0.30921826299E+02  0.87485876450E+01 -0.27317660605E+03  0.28583541083E+03  0.77741410227E+02 0.  0.
          5    1    5    5  501    0 -0.38927559158E+02 -0.15934576028E+02 -0.62250892709E+01  0.42779753525E+02  0.47000000000E+01 0. -1.
        -13    1    6    6    0    0  0.31020849731E+02 -0.31301280273E+02 -0.14424584751E+03  0.15082747690E+03  0.00000000000E+00 0.  1.
         14    1    6    6    0    0 -0.99023432510E-01  0.40049867918E+02 -0.12893075854E+03  0.13500793392E+03  0.00000000000E+00 0. -1.
         -5    1    3    3    0  503  0.39754546425E-01 -0.63095096324E+02 -0.11912994575E+03  0.13488894222E+03  0.47000000000E+01 0.  1.
         11    1    4    4    0    0  0.35771441517E+01  0.14495731637E+02  0.86681528397E+00  0.14955720134E+02  0.00000000000E+00 0. -1.
        -12    1    4    4    0    0  0.43888341609E+01  0.55785353069E+02 -0.25633877164E+03  0.26237536722E+03  0.00000000000E+00 0.  1.
</event>
<event>
12    1  0.8728348E-002  0.1767392E+03  0.7818608E-02  0.1171260E+00
         21   -1    0    0  503  502  0.00000000000E+00  0.00000000000E+00  0.78377571465E+03  0.78377571465E+03  0.00000000000E+00 0.  1.
         21   -1    0    0  501  503 -0.00000000000E+00 -0.00000000000E+00 -0.47594061702E+02  0.47594061702E+02  0.00000000000E+00 0.  1.
          6    2    1    2  501    0  0.23612194225E+02  0.17740842705E+02  0.19882040106E+03  0.26601932082E+03  0.17425399266E+03 0.  0.
         24    2    3    3    0    0  0.24191793692E+02  0.22489951607E+02  0.22388291784E+03  0.24007496270E+03  0.80133551111E+02 0.  0.
         -6    2    1    2    0  502 -0.23612194225E+02 -0.17740842705E+02  0.53736125189E+03  0.56535045553E+03  0.17318126144E+03 0.  0.
        -24    2    5    5    0    0 -0.76155171356E+02  0.18645935259E+02  0.37647091090E+03  0.39216687120E+03  0.76923514527E+02 0.  0.
          5    1    3    3  501    0 -0.57959946690E+00 -0.47491089024E+01 -0.25062516779E+02  0.25944358119E+02  0.47000000000E+01 0. -1.
        -11    1    4    4    0    0 -0.29251611722E+02  0.12666835726E+02  0.95002706960E+02  0.10020788315E+03  0.00000000000E+00 0.  1.
         12    1    4    4    0    0  0.53443405414E+02  0.98231158815E+01  0.12888021088E+03  0.13986707955E+03  0.00000000000E+00 0. -1.
         -5    1    5    5    0  502  0.52542977131E+02 -0.36386777963E+02  0.16089034099E+03  0.17318358433E+03  0.47000000000E+01 0.  1.
         13    1    6    6    0    0 -0.27031359982E+02  0.45840071529E+02  0.16505502365E+03  0.17342193463E+03  0.00000000000E+00 0. -1.
        -14    1    6    6    0    0 -0.49123811374E+02 -0.27194136271E+02  0.21141588725E+03  0.21874493656E+03  0.00000000000E+00 0.  1.
</event>
<event>
12    1  0.8728348E-002  0.1812229E+03  0.7818608E-02  0.1167774E+00
         21   -1    0    0  503  502  0.00000000000E+00  0.00000000000E+00  0.18894435510E+03  0.18894435510E+03  0.00000000000E+00 0. -1.
         21   -1    0    0  501  503 -0.00000000000E+00 -0.00000000000E+00 -0.18449868325E+03  0.18449868325E+03  0.00000000000E+00 0.  1.
          6    2    1    2  501    0 -0.24511969810E+01  0.39566350755E+02  0.55754504289E+02  0.18509667554E+03  0.17199043598E+03 0.  0.
         24    2    3    3    0    0 -0.28791128047E+02 -0.37985492804E+02  0.17171719325E+02  0.94439068561E+02  0.79699705196E+02 0.  0.
         -6    2    1    2    0  502  0.24511969810E+01 -0.39566350755E+02 -0.51308832433E+02  0.18834636281E+03  0.17683396625E+03 0.  0.
        -24    2    5    5    0    0 -0.44950282072E+02 -0.67911109652E+02 -0.37377736943E+00  0.11306824243E+03  0.78433673032E+02 0.  0.
          5    1    3    3  501    0  0.26339931066E+02  0.77551843558E+02  0.38582784963E+02  0.90657606980E+02  0.47000000000E+01 0. -1.
        -13    1    4    4    0    0 -0.45248140981E+02 -0.15902593000E+02 -0.16698388681E+02  0.50785065826E+02  0.00000000000E+00 0.  1.
         14    1    4    4    0    0  0.16457012934E+02 -0.22082899803E+02  0.33870108006E+02  0.43654002735E+02  0.00000000000E+00 0. -1.
         -5    1    5    5    0  502  0.47401479053E+02  0.28344758897E+02 -0.50935055064E+02  0.75278120378E+02  0.47000000000E+01 0.  1.
         13    1    6    6    0    0 -0.31082943397E+01 -0.63279008397E+02  0.19812644531E+02  0.66380985837E+02  0.00000000000E+00 0. -1.
        -14    1    6    6    0    0 -0.41841987732E+02 -0.46321012543E+01 -0.20186421901E+02  0.46687256597E+02  0.00000000000E+00 0.  1.
</event>
<event>
12    1  0.8728348E-002  0.2228079E+03  0.7818608E-02  0.1132181E+00
         21   -1    0    0  503  502  0.00000000000E+00  0.00000000000E+00  0.86401428197E+03  0.86401428197E+03  0.00000000000E+00 0. -1.
         21   -1    0    0  501  503 -0.00000000000E+00 -0.00000000000E+00 -0.61572918527E+02  0.61572918527E+02  0.00000000000E+00 0.  1.
          6    2    1    2  501    0  0.12484765239E+03  0.67994167724E+02  0.27589328054E+03  0.35462718549E+03  0.17156105410E+03 0.  0.
         24    2    3    3    0    0  0.50738389190E+01  0.30944555908E+02  0.59306648011E+02  0.10432676695E+03  0.79896723473E+02 0.  0.
         -6    2    1    2    0  502 -0.12484765239E+03 -0.67994167724E+02  0.52654808291E+03  0.57096001501E+03  0.16891510288E+03 0.  0.
        -24    2    5    5    0    0 -0.10517874330E+03  0.12155142357E+02  0.25919616254E+03  0.29112092337E+03  0.79739738013E+02 0.  0.
          5    1    3    3  501    0  0.11977381347E+03  0.37049611817E+02  0.21658663253E+03  0.25030041854E+03  0.47000000000E+01 0. -1.
        -13    1    4    4    0    0  0.40759337976E+02  0.14455330330E+02  0.16709912778E+02  0.46362715540E+02  0.00000000000E+00 0.  1.
         14    1    4    4    0    0 -0.35685499057E+02  0.16489225577E+02  0.42596735233E+02  0.57964051407E+02  0.00000000000E+00 0. -1.
         -5    1    5    5    0  502 -0.19668909093E+02 -0.80149310081E+02  0.26735192036E+03  0.27983909165E+03  0.47000000000E+01 0.  1.
         13    1    6    6    0    0 -0.12961160436E+02 -0.43031506410E+01  0.13433364478E+03  0.13502606010E+03  0.00000000000E+00 0. -1.
        -14    1    6    6    0    0 -0.92217582864E+02  0.16458292998E+02  0.12486251776E+03  0.15609486327E+03  0.00000000000E+00 0.  1.
</event>
<event>
12    1  0.8728348E-002  0.1785438E+03  0.7818608E-02  0.1169368E+00
         21   -1    0    0  503  502  0.00000000000E+00  0.00000000000E+00  0.90972520934E+02  0.90972520934E+02  0.00000000000E+00 0.  1.
         21   -1    0    0  501  503 -0.00000000000E+00 -0.00000000000E+00 -0.78665712296E+03  0.78665712296E+03  0.00000000000E+00 0.  1.
          6    2    1    2  501    0 -0.17540911083E+02  0.43413894848E+02 -0.67532901367E+03  0.69853216067E+03  0.17229466898E+03 0.  0.
         24    2    3    3    0    0  0.41924678645E+02 -0.21622427650E+02 -0.32895935048E+03  0.34109697328E+03  0.76861452341E+02 0.  0.
         -6    2    1    2    0  502  0.17540911083E+02 -0.43413894848E+02 -0.20355588352E+02  0.17909748322E+03  0.17166568874E+03 0.  0.
        -24    2    5    5    0    0  0.15423529320E+02 -0.93376536755E+02  0.29078280663E+01  0.12374384346E+03  0.79668189738E+02 0.  0.
          5    1    3    3  501    0 -0.59465589728E+02  0.65036322498E+02 -0.34636966319E+03  0.35743518739E+03  0.47000000000E+01 0. -1.
        -13    1    4    4    0    0  0.34706932373E+02  0.24175510941E+02 -0.12601465544E+03  0.13292373704E+03  0.00000000000E+00 0.  1.
         14    1    4    4    0    0  0.72177462723E+01 -0.45797938590E+02 -0.20294469505E+03  0.20817323624E+03  0.00000000000E+00 0. -1.
         -5    1    5    5    0  502  0.21173817633E+01  0.49962641907E+02 -0.23263416419E+02  0.55353639765E+02  0.47000000000E+01 0.  1.
         13    1    6    6    0    0  0.20275654781E+02 -0.97690580581E+01  0.28367571318E+02  0.36211265852E+02  0.00000000000E+00 0. -1.
        -14    1    6    6    0    0 -0.48521254608E+01 -0.83607478697E+02 -0.25459743252E+02  0.87532577604E+02  0.00000000000E+00 0.  1.
</event>
<event>
12    1  0.8728348E-002  0.1909880E+03  0.7818608E-02  0.1157919E+00
         21   -1    0    0  501  502  0.00000000000E+00  0.00000000000E+00  0.70316361141E+03  0.70316361141E+03  0.00000000000E+00 0. -1.
         21   -1    0    0  502  503 -0.00000000000E+00 -0.00000000000E+00 -0.85333377729E+02  0.85333377729E+02  0.00000000000E+00 0. -1.
         -6    2    1    2    0  503 -0.45663369881E+02 -0.66491019681E+02  0.61268218463E+02  0.20057469764E+03  0.17311907951E+03 0.  0.
        -24    2    3    3    0    0 -0.58539642208E+02 -0.95490992434E+02  0.75034531126E+01  0.13796849346E+03  0.80209625560E+02 0.  0.
          6    2    1    2  501    0  0.45663369881E+02  0.66491019681E+02  0.55656201522E+03  0.58792229150E+03  0.17142095850E+03 0.  0.
         24    2    5    5    0    0 -0.36320270258E+01 -0.25188577659E+02  0.21505777120E+03  0.23087548308E+03  0.80037414171E+02 0.  0.
          5    1    5    5  501    0  0.49295396907E+02  0.91679597340E+02  0.34150424402E+03  0.35704680843E+03  0.47000000000E+01 0. -1.
        -11    1    6    6    0    0  0.33764572388E+02 -0.24276481768E+02  0.15171825215E+03  0.15731440478E+03  0.00000000000E+00 0.  1.
         12    1    6    6    0    0 -0.37396599414E+02 -0.91209589041E+00  0.63339519050E+02  0.73561078297E+02  0.00000000000E+00 0. -1.
         -5    1    3    3    0  503  0.12876272327E+02  0.28999972753E+02  0.53764765350E+02  0.62606204181E+02  0.47000000000E+01 0.  1.
         11    1    4    4    0    0 -0.11981813652E+02 -0.79640085837E+02  0.27175898794E+02  0.84997862360E+02  0.00000000000E+00 0. -1.
        -12    1    4    4    0    0 -0.46557828556E+02 -0.15850906598E+02 -0.19672445682E+02  0.52970631098E+02  0.00000000000E+00 0.  1.
</event>
<event>
12    1  0.8728348E-002  0.3783217E+03  0.7818608E-02  0.1051592E+00
         21   -1    0    0  503  502  0.00000000000E+00  0.00000000000E+00  0.69767864813E+03  0.69767864813E+03  0.00000000000E+00 0.  1.
         21   -1    0    0  501  503 -0.00000000000E+00 -0.00000000000E+00 -0.21388149765E+03  0.21388149765E+03  0.00000000000E+00 0. -1.
          6    2    1    2  501    0  0.13875210060E+03  0.30722467191E+03  0.33523553743E+03  0.50548012037E+03  0.17172111716E+03 0.  0.
         24    2    3    3    0    0 -0.11725943446E+02  0.79419041341E+02  0.86620109745E+02  0.13619599135E+03  0.67833787826E+02 0.  0.
         -6    2    1    2    0  502 -0.13875210060E+03 -0.30722467191E+03  0.14856161306E+03  0.40608002541E+03  0.17085458645E+03 0.  0.
        -24    2    5    5    0    0 -0.61432543515E+02 -0.63997107330E+02  0.22171131195E+02  0.12123865555E+03  0.79609455412E+02 0.  0.
          5    1    3    3  501    0  0.15047804405E+03  0.22780563057E+03  0.24861542768E+03  0.36928412902E+03  0.47000000000E+01 0. -1.
        -13    1    4    4    0    0  0.17645519668E+02  0.30291609474E+02  0.67127139791E+02  0.75729775289E+02  0.00000000000E+00 0.  1.
         14    1    4    4    0    0 -0.29371463113E+02  0.49127431867E+02  0.19492969954E+02  0.60466216062E+02  0.00000000000E+00 0. -1.
         -5    1    5    5    0  502 -0.77319557089E+02 -0.24322756458E+03  0.12639048186E+03  0.28484136987E+03  0.47000000000E+01 0.  1.
         13    1    6    6    0    0 -0.50078126100E+02 -0.74831491831E+02  0.39090370947E+02  0.98161234630E+02  0.00000000000E+00 0. -1.
        -14    1    6    6    0    0 -0.11354417415E+02  0.10834384501E+02 -0.16919239753E+02  0.23077420916E+02  0.00000000000E+00 0.  1.
</event>
<event>
12    1  0.8728348E-002  0.1781797E+03  0.7818608E-02  0.1169848E+00
         21   -1    0    0  503  502  0.00000000000E+00  0.00000000000E+00  0.23333673336E+03  0.23333673336E+03  0.00000000000E+00 0. -1.
         21   -1    0    0  501  503 -0.00000000000E+00 -0.00000000000E+00 -0.15457084210E+03  0.15457084210E+03  0.00000000000E+00 0. -1.
          6    2    1    2  501    0  0.34558747088E+02 -0.25206014887E+02 -0.29135540870E+02  0.18054603471E+03  0.17296919009E+03 0.  0.
         24    2    3    3    0    0 -0.25624112078E+02 -0.25568434097E+02 -0.64343015732E+02  0.11066210114E+03  0.82436260302E+02 0.  0.
         -6    2    1    2    0  502 -0.34558747088E+02  0.25206014887E+02  0.10790143213E+03  0.20736154076E+03  0.17183259104E+03 0.  0.
        -24    2    5    5    0    0 -0.22504617968E+02  0.11797671780E+02  0.14332393898E+03  0.16733742695E+03  0.82549500811E+02 0.  0.
          5    1    3    3  501    0  0.60182859166E+02  0.36241920999E+00  0.35207474862E+02  0.69883933570E+02  0.47000000000E+01 0. -1.
        -11    1    4    4    0    0 -0.22124695093E+02 -0.55334748072E+02 -0.48024909954E+02  0.76536451794E+02  0.00000000000E+00 0.  1.
         12    1    4    4    0    0 -0.34994169848E+01  0.29766313975E+02 -0.16318105778E+02  0.34125649343E+02  0.00000000000E+00 0. -1.
         -5    1    5    5    0  502 -0.12054129120E+02  0.13408343107E+02 -0.35422506858E+02  0.40024113804E+02  0.47000000000E+01 0.  1.
         13    1    6    6    0    0 -0.50909007334E+02  0.79834869935E+01  0.59307758706E+02  0.78567635417E+02  0.00000000000E+00 0. -1.
        -14    1    6    6    0    0  0.28404389366E+02  0.38141847869E+01  0.84016180279E+02  0.88769791537E+02  0.00000000000E+00 0.  1.
</event>
<event>
12    1  0.8728348E-002  0.1763917E+03  0.7818608E-02  0.1172501E+00
         21   -1    0    0  503  502  0.00000000000E+00  0.00000000000E+00  0.28256837743E+02  0.28256837743E+02  0.00000000000E+00 0.  1.
         21   -1    0    0  501  503 -0.00000000000E+00 -0.00000000000E+00 -0.11018495731E+04  0.11018495731E+04  0.00000000000E+00 0.  1.
          6    2    1    2  501    0 -0.84426660152E+01 -0.37742690236E+02 -0.63578186649E+03  0.65979740950E+03  0.17209953674E+03 0.  0.
         24    2    3    3    0    0 -0.40597898830E+02  0.32151627454E+02 -0.26195306792E+03  0.27810481685E+03  0.77723631053E+02 0.  0.
         -6    2    1    2    0  502  0.84426660152E+01  0.37742690236E+02 -0.43781086886E+03  0.47030900134E+03  0.16738103409E+03 0.  0.
        -24    2    5    5    0    0 -0.19193043291E+02 -0.23508529078E+02 -0.13675543083E+03  0.16180955067E+03  0.80989252225E+02 0.  0.
          5    1    3    3  501    0  0.32155232815E+02 -0.69894317690E+02 -0.37382879857E+03  0.38169259265E+03  0.47000000000E+01 0. -1.
        -11    1    4    4    0    0 -0.96832754847E+01  0.28903075002E+00 -0.20803941678E+03  0.20826485132E+03  0.00000000000E+00 0.  1.
         12    1    4    4    0    0 -0.30914623346E+02  0.31862596704E+02 -0.53913651146E+02  0.69839965530E+02  0.00000000000E+00 0. -1.
         -5    1    5    5    0  502  0.27635709306E+02  0.61251219314E+02 -0.30105543803E+03  0.30849945067E+03  0.47000000000E+01 0.  1.
         13    1    6    6    0    0 -0.75466074688E+01 -0.36621216569E+02 -0.13917067436E+03  0.14410600747E+03  0.00000000000E+00 0. -1.
        -14    1    6    6    0    0 -0.11646435822E+02  0.13112687491E+02  0.24152435263E+01  0.17703543201E+02  0.00000000000E+00 0.  1.
</event>
<event>
12    1  0.8728348E-002  0.2461378E+03  0.7818608E-02  0.1115783E+00
         21   -1    0    0  501  502  0.00000000000E+00  0.00000000000E+00  0.26711592531E+03  0.26711592531E+03  0.00000000000E+00 0.  1.
         21   -1    0    0  502  503 -0.00000000000E+00 -0.00000000000E+00 -0.34902484396E+03  0.34902484396E+03  0.00000000000E+00 0. -1.
         -6    2    1    2    0  503 -0.38789396928E+01  0.17583337374E+03 -0.22331389077E+03  0.33234454279E+03  0.17219576015E+03 0.  0.
        -24    2    3    3    0    0  0.62401838291E+02  0.91458819900E+02 -0.14398562658E+03  0.19882574124E+03  0.80877126307E+02 0.  0.
          6    2    1    2  501    0  0.38789396928E+01 -0.17583337374E+03  0.14140497212E+03  0.28379622648E+03  0.17208285950E+03 0.  0.
         24    2    5    5    0    0  0.63405349481E+02 -0.11535146767E+03  0.10846709700E+03  0.19264553784E+03  0.89559994864E+02 0.  0.
          5    1    5    5  501    0 -0.59526409788E+02 -0.60481906065E+02  0.32937875119E+02  0.91150688647E+02  0.47000000000E+01 0. -1.
        -11    1    6    6    0    0  0.36863586964E+02 -0.21444470225E+02 -0.50540600274E+01  0.42945696756E+02  0.00000000000E+00 0.  1.
         12    1    6    6    0    0  0.26541762517E+02 -0.93906997449E+02  0.11352115702E+03  0.14969984108E+03  0.00000000000E+00 0. -1.
         -5    1    3    3    0  503 -0.66280777984E+02  0.84374553839E+02 -0.79328264191E+02  0.13351880154E+03  0.47000000000E+01 0.  1.
         11    1    4    4    0    0  0.29301437260E+01  0.11097362891E+02 -0.78451718603E+02  0.79286880107E+02  0.00000000000E+00 0. -1.
        -12    1    4    4    0    0  0.59471694565E+02  0.80361457009E+02 -0.65533907979E+02  0.11953886114E+03  0.00000000000E+00 0.  1.
</event>
<event>
12    1  0.8728348E-002  0.1887492E+03  0.7818608E-02  0.1162495E+00
         21   -1    0    0  501  502  0.00000000000E+00  0.00000000000E+00  0.76504379685E+02  0.76504379685E+02  0.00000000000E+00 0.  1.
         21   -1    0    0  502  503 -0.00000000000E+00 -0.00000000000E+00 -0.67243282075E+03  0.67243282075E+03  0.00000000000E+00 0.  1.
         -6    2    1    2    0  503 -0.25375237131E+02 -0.31905502008E+02 -0.51350850108E+03  0.54297772605E+03  0.17167401258E+03 0.  0.
        -24    2    3    3    0    0 -0.25886541279E+02  0.15691890743E+02 -0.12857693953E+03  0.15508576905E+03  0.81260186626E+02 0.  0.
          6    2    1    2  501    0  0.25375237131E+02  0.31905502008E+02 -0.82419939987E+02  0.20595947438E+03  0.18429431587E+03 0.  0.
         24    2    5    5    0    0  0.43412761627E+02 -0.49454736068E+02 -0.57831729186E+02  0.11894504603E+03  0.80454808954E+02 0.  0.
          5    1    5    5  501    0 -0.18037524496E+02  0.81360238077E+02 -0.24588210800E+02  0.87014428345E+02  0.47000000000E+01 0. -1.
        -11    1    6    6    0    0  0.34847308928E+02  0.58233938557E+01  0.40104596246E+01  0.35557427381E+02  0.00000000000E+00 0.  1.
         12    1    6    6    0    0  0.85654526990E+01 -0.55278129924E+02 -0.61842188811E+02  0.83387618654E+02  0.00000000000E+00 0. -1.
         -5    1    3    3    0  503  0.51130414812E+00 -0.47597392751E+02 -0.38493156155E+03  0.38789195700E+03  0.47000000000E+01 0.  1.
         13    1    4    4    0    0 -0.38295100464E+02  0.95384216281E+00 -0.17089863359E+02  0.41946250894E+02  0.00000000000E+00 0. -1.
        -14    1    4    4    0    0  0.12408559185E+02  0.14738048580E+02 -0.11148707617E+03  0.11313951816E+03  0.00000000000E+00 0.  1.
</event>
<event>
12    1  0.8728348E-002  0.2146801E+03  0.7818608E-02  0.1138648E+00
         21   -1    0    0  501  502  0.00000000000E+00  0.00000000000E+00  0.53378747735E+03  0.53378747735E+03  0.00000000000E+00 0.  1.
         21   -1    0    0  502  503 -0.00000000000E+00 -0.00000000000E+00 -0.11744682028E+03  0.11744682028E+03  0.00000000000E+00 0.  1.
         -6    2    1    2    0  503 -0.46196401759E+02  0.11405001682E+03  0.37902032234E+02  0.21800026110E+03  0.17591485418E+03 0.  0.
        -24    2    3    3    0    0  0.36068156433E+02  0.20603125917E+02  0.10924716519E+02  0.90526167585E+02  0.79688373559E+02 0.  0.
          6    2    1    2  501    0  0.46196401759E+02 -0.11405001682E+03  0.37843862484E+03  0.43323403654E+03  0.17127295108E+03 0.  0.
         24    2    5    5    0    0  0.88336091544E+02 -0.89344828996E+02  0.20679925210E+03  0.25471719130E+03  0.79555976113E+02 0.  0.
          5    1    5    5  501    0 -0.42139689785E+02 -0.24705187828E+02  0.17163937274E+03  0.17851684524E+03  0.47000000000E+01 0. -1.
        -13    1    6    6    0    0  0.48675764436E+02 -0.21458749473E+02  0.14581599986E+03  0.15521634510E+03  0.00000000000E+00 0.  1.
         14    1    6    6    0    0  0.39660327109E+02 -0.67886079524E+02  0.60983252243E+02  0.99500846195E+02  0.00000000000E+00 0. -1.
         -5    1    3    3    0  503 -0.82264558192E+02  0.93446890907E+02  0.26977315715E+02  0.12747409352E+03  0.47000000000E+01 0.  1.
         13    1    4    4    0    0 -0.17475910559E+02 -0.21538996401E+01  0.25085190609E+02  0.30648222157E+02  0.00000000000E+00 0. -1.
        -14    1    4    4    0    0  0.53544066992E+02  0.22757025557E+02 -0.14160474090E+02  0.59877945428E+02  0.00000000000E+00 0.  1.
</event>
<event>
12    1  0.8728348E-002  0.1737434E+03  0.7818608E-02  0.1174060E+00
         21   -1    0    0  503  502  0.00000000000E+00  0.00000000000E+00  0.11673293824E+03  0.11673293824E+03  0.00000000000E+00 0. -1.
         21   -1    0    0  501  503 -0.00000000000E+00 -0.00000000000E+00 -0.25825165239E+03  0.25825165239E+03  0.00000000000E+00 0. -1.
          6    2    1    2  501    0  0.34096732668E+02  0.55385818613E+00 -0.69597662533E+02  0.18694358357E+03  0.17012105946E+03 0.  0.
         24    2    3    3    0    0  0.20933768841E+02 -0.55375171992E+02 -0.62254321703E+01  0.10127299577E+03  0.81931869961E+02 0.  0.
         -6    2    1    2    0  502 -0.34096732668E+02 -0.55385818613E+00 -0.71921051613E+02  0.18804100706E+03  0.17036398895E+03 0.  0.
        -24    2    5    5    0    0 -0.56682174747E+02 -0.48240854015E+02 -0.15050978283E+02  0.11032069436E+03  0.80025462990E+02 0.  0.
          5    1    3    3  501    0  0.13162963827E+02  0.55929030178E+02 -0.63372230363E+02  0.85670587803E+02  0.47000000000E+01 0. -1.
        -11    1    4    4    0    0  0.31742525038E+02 -0.41059947368E+02 -0.38315176528E+02  0.64510153666E+02  0.00000000000E+00 0.  1.
         12    1    4    4    0    0 -0.10808756197E+02 -0.14315224624E+02  0.32089744358E+02  0.36762842103E+02  0.00000000000E+00 0. -1.
         -5    1    5    5    0  502  0.22585442078E+02  0.47686995829E+02 -0.56870073330E+02  0.77720312696E+02  0.47000000000E+01 0.  1.
         11    1    6    6    0    0 -0.32074294025E+02 -0.68020372927E+02 -0.21246112052E+02  0.78146840932E+02  0.00000000000E+00 0. -1.
        -12    1    6    6    0    0 -0.24607880722E+02  0.19779518912E+02  0.61951337694E+01  0.32173853428E+02  0.00000000000E+00 0.  1.
</event>
<event>
12    1  0.8728348E-002  0.1989165E+03  0.7818608E-02  0.1150965E+00
         21   -1    0    0  501  502  0.00000000000E+00  0.00000000000E+00  0.19264697693E+03  0.19264697693E+03  0.00000000000E+00 0.  1.
         21   -1    0    0  502  503 -0.00000000000E+00 -0.00000000000E+00 -0.21749154958E+03  0.21749154958E+03  0.00000000000E+00 0.  1.
         -6    2    1    2    0  503  0.90073798783E+02  0.38374214932E+02 -0.63642214139E+02  0.20747371646E+03  0.17149093855E+03 0.  0.
        -24    2    3    3    0    0 -0.11666560876E+02 -0.10193823176E+02 -0.45229030031E+02  0.93144846715E+02  0.79939193381E+02 0.  0.
          6    2    1    2  501    0 -0.90073798783E+02 -0.38374214932E+02  0.38797641489E+02  0.20266481004E+03  0.17315281876E+03 0.  0.
         24    2    5    5    0    0 -0.55780524816E+01 -0.24324144903E+02  0.72168939709E+02  0.11061770712E+03  0.80032134645E+02 0.  0.
          5    1    5    5  501    0 -0.84495746301E+02 -0.14050070029E+02 -0.33371298220E+02  0.92047102919E+02  0.47000000000E+01 0. -1.
        -11    1    6    6    0    0 -0.26732531454E+02 -0.23791946841E+02  0.39453581299E+00  0.35788833886E+02  0.00000000000E+00 0.  1.
         12    1    6    6    0    0  0.21154478972E+02 -0.53219806175E+00  0.71774403896E+02  0.74828873237E+02  0.00000000000E+00 0. -1.
         -5    1    3    3    0  503  0.10174035966E+03  0.48568038108E+02 -0.18413184109E+02  0.11432886975E+03  0.47000000000E+01 0.  1.
         11    1    4    4    0    0  0.53958738287E+01 -0.10768142109E+02  0.21294970697E+02  0.24465161268E+02  0.00000000000E+00 0. -1.
        -12    1    4    4    0    0 -0.17062434704E+02  0.57431893344E+00 -0.66524000728E+02  0.68679685447E+02  0.00000000000E+00 0.  1.
</event>
<event>
12    1  0.8728348E-002  0.2360920E+03  0.7818608E-02  0.1122610E+00
         21   -1    0    0  503  502  0.00000000000E+00  0.00000000000E+00  0.15891454478E+03  0.15891454478E+03  0.00000000000E+00 0. -1.
         21   -1    0    0  501  503 -0.00000000000E+00 -0.00000000000E+00 -0.37289938095E+03  0.37289938095E+03  0.00000000000E+00 0.  1.
          6    2    1    2  501    0  0.14076412197E+03 -0.77467353105E+02 -0.17435985563E+03  0.29349749180E+03  0.17298465136E+03 0.  0.
         24    2    3    3    0    0  0.11517725513E+03  0.12131751320E+02 -0.88883322497E+02  0.16696285233E+03  0.81014625538E+02 0.  0.
         -6    2    1    2    0  502 -0.14076412197E+03  0.77467353105E+02 -0.39624980541E+02  0.23831643393E+03  0.17149010107E+03 0.  0.
        -24    2    5    5    0    0 -0.81213379625E+02  0.11633354192E+03 -0.40393028182E+02  0.16704546197E+03  0.78380377865E+02 0.  0.
          5    1    3    3  501    0  0.25586866837E+02 -0.89599104425E+02 -0.85476533132E+02  0.12653463947E+03  0.47000000000E+01 0. -1.
        -11    1    4    4    0    0  0.75476127173E+02 -0.26578744767E+02 -0.28402627159E+02  0.84910450923E+02  0.00000000000E+00 0.  1.
         12    1    4    4    0    0  0.39701127959E+02  0.38710496087E+02 -0.60480695338E+02  0.82052401410E+02  0.00000000000E+00 0. -1.
         -5    1    5    5    0  502 -0.59550742343E+02 -0.38866188812E+02  0.76804764081E+00  0.71270971956E+02  0.47000000000E+01 0.  1.
         13    1    6    6    0    0 -0.92691658909E+00  0.61813668044E+02  0.27400196120E+00  0.61821224580E+02  0.00000000000E+00 0. -1.
        -14    1    6    6    0    0 -0.80286463036E+02  0.54519873873E+02 -0.40667030143E+02  0.10522423739E+03  0.00000000000E+00 0.  1.
</event>
<event>
12    1  0.8728348E-002  0.1994791E+03  0.7818608E-02  0.1150761E+00
         21   -1    0    0  501  502  0.00000000000E+00  0.00000000000E+00  0.21623843679E+03  0.21623843679E+03  0.00000000000E+00 0. -1.
         21   -1    0    0  502  503 -0.00000000000E+00 -0.00000000000E+00 -0.31656131349E+03  0.31656131349E+03  0.00000000000E+00 0. -1.
         -6    2    1    2    0  503 -0.71828505368E+02  0.68496274355E+02 -0.22396411096E+03  0.29811044121E+03  0.16987889326E+03 0.  0.
        -24    2    3    3    0    0 -0.60784367310E+02  0.71240242219E+02 -0.24453389252E+03  0.27413736760E+03  0.81145303664E+02 0.  0.
          6    2    1    2  501    0  0.71828505368E+02 -0.68496274355E+02  0.12364123426E+03  0.23468930907E+03  0.17303422551E+03 0.  0.
         24    2    5    5    0    0  0.41813113084E+02  0.37736033726E+02  0.40250916604E+02  0.96261486239E+02  0.66886416994E+02 0.  0.
          5    1    5    5  501    0  0.30015392284E+02 -0.10623230808E+03  0.83390317657E+02  0.13842782283E+03  0.47000000000E+01 0. -1.
        -13    1    6    6    0    0 -0.15827501030E+02  0.32971339305E+01 -0.29290852936E+01  0.16430472350E+02  0.00000000000E+00 0.  1.
         14    1    6    6    0    0  0.57640614113E+02  0.34438899796E+02  0.43180001897E+02  0.79831013888E+02  0.00000000000E+00 0. -1.
         -5    1    3    3    0  503 -0.11044138058E+02 -0.27439678642E+01  0.20569781551E+02  0.23973073606E+02  0.47000000000E+01 0.  1.
         11    1    4    4    0    0 -0.57852261946E+02  0.57264349148E+01 -0.10718623903E+03  0.12193672994E+03  0.00000000000E+00 0. -1.
        -12    1    4    4    0    0 -0.29321053632E+01  0.65513807304E+02 -0.13734765348E+03  0.15220063767E+03  0.00000000000E+00 0.  1.
</event>
<event>
12    1  0.8728348E-002  0.2056025E+03  0.7818608E-02  0.1145643E+00
         21   -1    0    0  501  502  0.00000000000E+00  0.00000000000E+00  0.17166536479E+03  0.17166536479E+03  0.00000000000E+00 0.  1.
         21   -1    0    0  502  503 -0.00000000000E+00 -0.00000000000E+00 -0.37004471183E+03  0.37004471183E+03  0.00000000000E+00 0.  1.
         -6    2    1    2    0  503 -0.79203089109E+02 -0.74325900619E+02 -0.25827523729E+03  0.33011891757E+03  0.17457070978E+03 0.  0.
        -24    2    3    3    0    0 -0.31932362452E+02 -0.72006542798E+02 -0.71737545148E+02  0.13761358879E+03  0.87101127763E+02 0.  0.
          6    2    1    2  501    0  0.79203089109E+02  0.74325900619E+02  0.59895890253E+02  0.21159115905E+03  0.17142296255E+03 0.  0.
         24    2    5    5    0    0  0.60542914926E+02 -0.18405134271E+02  0.37867882511E+01  0.10151133228E+03  0.79284407683E+02 0.  0.
          5    1    5    5  501    0  0.18660174183E+02  0.92731034890E+02  0.56109102002E+02  0.11007982676E+03  0.47000000000E+01 0. -1.
        -13    1    6    6    0    0  0.51129295010E+02  0.25075742339E+02  0.26320067976E+01  0.57008114526E+02  0.00000000000E+00 0.  1.
         14    1    6    6    0    0  0.94136199165E+01 -0.43480876610E+02  0.11547814535E+01  0.44503217759E+02  0.00000000000E+00 0. -1.
         -5    1    3    3    0  503 -0.47270726657E+02 -0.23193578208E+01 -0.18653769214E+03  0.19250532878E+03  0.47000000000E+01 0.  1.
         13    1    4    4    0    0 -0.20438893911E+02  0.20869692524E+01 -0.57808837065E+02  0.61351165171E+02  0.00000000000E+00 0. -1.
        -14    1    4    4    0    0 -0.11493468541E+02 -0.74093512051E+02 -0.13928708083E+02  0.76262423617E+02  0.00000000000E+00 0.  1.
</event>
<event>
12    1  0.8728348E-002  0.1825202E+03  0.7818608E-02  0.1167269E+00
         21   -1    0    0  503  502  0.00000000000E+00  0.00000000000E+00  0.47458002488E+03  0.47458002488E+03  0.00000000000E+00 0.  1.
         21   -1    0    0  501  503 -0.00000000000E+00 -0.00000000000E+00 -0.10712590417E+03  0.10712590417E+03  0.00000000000E+00 0. -1.
          6    2    1    2  501    0  0.46050996615E+01 -0.56402031660E+02  0.35865385599E+03  0.39897371580E+03  0.16536336162E+03 0.  0.
         24    2    3    3    0    0 -0.27046053159E+02 -0.87674250394E+02  0.30179017354E+03  0.32661823556E+03  0.84757889200E+02 0.  0.
         -6    2    1    2    0  502 -0.46050996615E+01  0.56402031660E+02  0.88002647213E+01  0.18273221326E+03  0.17352585105E+03 0.  0.
        -24    2    5    5    0    0 -0.21368185749E+02  0.84890809972E+01 -0.56568248855E+02  0.99835986180E+02  0.78984767517E+02 0.  0.
          5    1    3    3  501    0  0.31651152820E+02  0.31272218734E+02  0.56863682451E+02  0.72355480244E+02  0.47000000000E+01 0. -1.
        -11    1    4    4    0    0 -0.28563693536E+02 -0.85491842916E+02  0.30743631823E+03  0.32037763586E+03  0.00000000000E+00 0.  1.
         12    1    4    4    0    0  0.15176403772E+01 -0.21824074778E+01 -0.56461446910E+01  0.62405996976E+01  0.00000000000E+00 0. -1.
         -5    1    5    5    0  502  0.16763086087E+02  0.47912950663E+02  0.65368513576E+02  0.82896227076E+02  0.47000000000E+01 0.  1.
         13    1    6    6    0    0  0.27137569144E+00  0.19015831062E+02 -0.69820420679E+02  0.72364125225E+02  0.00000000000E+00 0. -1.
        -14    1    6    6    0    0 -0.21639561440E+02 -0.10526750065E+02  0.13252171825E+02  0.27471860955E+02  0.00000000000E+00 0.  1.
</event>
<event>
12    1  0.8728348E-002  0.2500953E+03  0.7818608E-02  0.1113678E+00
         21   -1    0    0  503  502  0.00000000000E+00  0.00000000000E+00  0.33126900983E+03  0.33126900983E+03  0.00000000000E+00 0.  1.
         21   -1    0    0  501  503 -0.00000000000E+00 -0.00000000000E+00 -0.27371633703E+03  0.27371633703E+03  0.00000000000E+00 0. -1.
          6    2    1    2  501    0  0.17014592488E+03 -0.56303163725E+02 -0.14182845836E+03  0.28514085413E+03  0.17050018502E+03 0.  0.
         24    2    3    3    0    0  0.94946812299E+02 -0.96868104013E+02 -0.69146461322E+02  0.17286804528E+03  0.81876744097E+02 0.  0.
         -6    2    1    2    0  502 -0.17014592488E+03  0.56303163725E+02  0.19938113115E+03  0.31984449273E+03  0.17443618339E+03 0.  0.
        -24    2    5    5    0    0 -0.12982127729E+03 -0.21196399241E+02  0.83712893733E+02  0.17481521772E+03  0.79054793597E+02 0.  0.
          5    1    3    3  501    0  0.75199112581E+02  0.40564940288E+02 -0.72681997037E+02  0.11227280885E+03  0.47000000000E+01 0. -1.
        -11    1    4    4    0    0  0.22124641244E+02 -0.49379983807E+02 -0.66710203701E+02  0.85896064105E+02  0.00000000000E+00 0.  1.
         12    1    4    4    0    0  0.72822171055E+02 -0.47488120206E+02 -0.24362576214E+01  0.86971981173E+02  0.00000000000E+00 0. -1.
         -5    1    5    5    0  502 -0.40324647586E+02  0.77499562967E+02  0.11566823742E+03  0.14502927501E+03  0.47000000000E+01 0.  1.
         11    1    6    6    0    0 -0.35944655979E+01 -0.25908254646E+02  0.71798855102E+01  0.27123948785E+02  0.00000000000E+00 0. -1.
        -12    1    6    6    0    0 -0.12622681170E+03  0.47118554049E+01  0.76533008222E+02  0.14769126894E+03  0.00000000000E+00 0.  1.
</event>
<event>
12    1  0.8728348E-002  0.1815959E+03  0.7818608E-02  0.1167473E+00
         21   -1    0    0  503  502  0.00000000000E+00  0.00000000000E+00  0.48649790591E+03  0.48649790591E+03  0.00000000000E+00 0.  1.
         21   -1    0    0  501  503 -0.00000000000E+00 -0.00000000000E+00 -0.22312930416E+03  0.22312930416E+03  0.00000000000E+00 0.  1.
          6    2    1    2  501    0 -0.32677286724E+02  0.25545431798E+02 -0.16664913186E+03  0.24283781408E+03  0.17169128296E+03 0.  0.
         24    2    3    3    0    0 -0.99462175924E+01 -0.50740138908E+02 -0.99658869295E+02  0.13869380283E+03  0.81428445724E+02 0.  0.
         -6    2    1    2    0  502  0.32677286724E+02 -0.25545431798E+02  0.43001773361E+03  0.46678939599E+03  0.17679568670E+03 0.  0.
        -24    2    5    5    0    0  0.74783981805E+02 -0.49029927083E+02  0.37103781250E+03  0.39046629081E+03  0.82451732999E+02 0.  0.
          5    1    3    3  501    0 -0.22731069132E+02  0.76285570706E+02 -0.66990262565E+02  0.10414401126E+03  0.47000000000E+01 0. -1.
        -11    1    4    4    0    0  0.30433174465E+02 -0.16539073926E+01 -0.18670977708E+02  0.35742396762E+02  0.00000000000E+00 0.  1.
         12    1    4    4    0    0 -0.40379392058E+02 -0.49086231516E+02 -0.80987891587E+02  0.10295140607E+03  0.00000000000E+00 0. -1.
         -5    1    5    5    0  502 -0.42106695081E+02  0.23484495285E+02  0.58979921111E+02  0.76323105176E+02  0.47000000000E+01 0.  1.
         13    1    6    6    0    0 -0.14820117556E+02  0.63027376079E+01  0.41767062754E+02  0.44764359895E+02  0.00000000000E+00 0. -1.
        -14    1    6    6    0    0  0.89604099361E+02 -0.55332664691E+02  0.32927074974E+03  0.34570193092E+03  0.00000000000E+00 0.  1.
</event>
<event>
12    1  0.8728348E-002  0.3138688E+03  0.7818608E-02  0.1078600E+00
         21   -1    0    0  501  502  0.00000000000E+00  0.00000000000E+00  0.20493150178E+03  0.20493150178E+03  0.00000000000E+00 0.  1.
         21   -1    0    0  502  503 -0.00000000000E+00 -0.00000000000E+00 -0.54400170004E+03  0.54400170004E+03  0.00000000000E+00 0. -1.
         -6    2    1    2    0  503  0.16999183651E+03 -0.20001005441E+03 -0.29866605322E+03  0.43326092630E+03  0.17208245864E+03 0.  0.
        -24    2    3    3    0    0  0.19195920988E+03 -0.19342853364E+03 -0.24650374232E+03  0.37608681864E+03  0.80089102204E+02 0.  0.
          6    2    1    2  501    0 -0.16999183651E+03  0.20001005441E+03 -0.40404145047E+02  0.31567227552E+03  0.17063189693E+03 0.  0.
         24    2    5    5    0    0 -0.15699826263E+03  0.86807255914E+02 -0.45441501120E+02  0.20151811875E+03  0.79753796241E+02 0.  0.
          5    1    5    5  501    0 -0.12993573878E+02  0.11320279850E+03  0.50373560731E+01  0.11415415676E+03  0.47000000000E+01 0. -1.
        -13    1    6    6    0    0 -0.13815566899E+02 -0.12243982242E+02  0.69127061800E+01  0.19712191573E+02  0.00000000000E+00 0.  1.
         14    1    6    6    0    0 -0.14318269573E+03  0.99051238156E+02 -0.52354207300E+02  0.18180592718E+03  0.00000000000E+00 0. -1.
         -5    1    3    3    0  503 -0.21967373375E+02 -0.65815207740E+01 -0.52162310903E+02  0.57174107667E+02  0.47000000000E+01 0.  1.
         11    1    4    4    0    0  0.11473427111E+03 -0.91278702889E+02 -0.17883101262E+03  0.23124940139E+03  0.00000000000E+00 0. -1.
        -12    1    4    4    0    0  0.77224938773E+02 -0.10214983075E+03 -0.67672729700E+02  0.14483741725E+03  0.00000000000E+00 0.  1.
</event>
<event>
12    1  0.8728348E-002  0.1810937E+03  0.7818608E-02  0.1169921E+00
         21   -1    0    0  501  502  0.00000000000E+00  0.00000000000E+00  0.39269397799E+03  0.39269397799E+03  0.00000000000E+00 0.  1.
         21   -1    0    0  502  503 -0.00000000000E+00 -0.00000000000E+00 -0.77815236199E+02  0.77815236199E+02  0.00000000000E+00 0. -1.
         -6    2    1    2    0  503 -0.32645654140E+02 -0.45330523242E+02  0.15829787916E+03  0.23110893675E+03  0.15884749613E+03 0.  0.
        -24    2    3    3    0    0  0.19241713502E+02 -0.72382690949E+02  0.11106002182E+03  0.15575892769E+03  0.79479667983E+02 0.  0.
          6    2    1    2  501    0  0.32645654140E+02  0.45330523242E+02  0.15658086262E+03  0.23940027743E+03  0.17226239062E+03 0.  0.
         24    2    5    5    0    0  0.47188256561E+02  0.11180825719E+02  0.17960683047E+02  0.95819870303E+02  0.80666715492E+02 0.  0.
          5    1    5    5  501    0 -0.14542602420E+02  0.34149697523E+02  0.13862017957E+03  0.14358040713E+03  0.47000000000E+01 0. -1.
        -11    1    6    6    0    0 -0.69864384518E+01  0.17876487297E+02  0.33897557800E+02  0.38954121028E+02  0.00000000000E+00 0.  1.
         12    1    6    6    0    0  0.54174695012E+02 -0.66956615776E+01 -0.15936874753E+02  0.56865749274E+02  0.00000000000E+00 0. -1.
         -5    1    3    3    0  503 -0.51887367642E+02  0.27052167707E+02  0.47237857345E+02  0.75350009058E+02  0.47000000000E+01 0.  1.
         13    1    4    4    0    0 -0.18599427915E+02 -0.41849462091E+02  0.15166625624E+02  0.48242540655E+02  0.00000000000E+00 0. -1.
        -14    1    4    4    0    0  0.37841141416E+02 -0.30533228858E+02  0.95893396195E+02  0.10751638704E+03  0.00000000000E+00 0.  1.
</event>
<event>
12    1  0.8728348E-002  0.1971100E+03  0.7818608E-02  0.1152438E+00
         21   -1    0    0  501  502  0.00000000000E+00  0.00000000000E+00  0.13572273871E+03  0.13572273871E+03  0.00000000000E+00 0. -1.
         21   -1    0    0  502  503 -0.00000000000E+00 -0.00000000000E+00 -0.34097978894E+03  0.34097978894E+03  0.00000000000E+00 0. -1.
         -6    2    1    2    0  503  0.61973393145E+02 -0.66606702024E+02 -0.60039217529E+01  0.19720146754E+03  0.17485770646E+03 0.  0.
        -24    2    3    3    0    0  0.10992082212E+03 -0.40055553825E+02 -0.98952262454E+01  0.14205482968E+03  0.79966396718E+02 0.  0.
          6    2    1    2  501    0 -0.61973393145E+02  0.66606702024E+02 -0.19925312848E+03  0.27950106011E+03  0.17361416757E+03 0.  0.
         24    2    5    5    0    0 -0.10676462254E+03  0.27448864956E+02 -0.13658496018E+03  0.19296216854E+03  0.80167464281E+02 0.  0.
          5    1    5    5  501    0  0.44791229397E+02  0.39157837068E+02 -0.62668168307E+02  0.86538891567E+02  0.47000000000E+01 0. -1.
        -13    1    6    6    0    0 -0.39405898533E+02  0.14476757241E+02 -0.11280057787E+03  0.12035934408E+03  0.00000000000E+00 0.  1.
         14    1    6    6    0    0 -0.67358724009E+02  0.12972107715E+02 -0.23784382307E+02  0.72602824466E+02  0.00000000000E+00 0. -1.
         -5    1    3    3    0  503 -0.47947428978E+02 -0.26551148198E+02  0.38913044925E+01  0.55146637857E+02  0.47000000000E+01 0.  1.
         13    1    4    4    0    0  0.41680681702E+02 -0.57437255946E+02 -0.16855032007E+00  0.70967217833E+02  0.00000000000E+00 0. -1.
        -14    1    4    4    0    0  0.68240140422E+02  0.17381702121E+02 -0.97266759253E+01  0.71087611846E+02  0.00000000000E+00 0.  1.
</event>
<event>
12    1  0.8728348E-002  0.3956422E+03  0.7818608E-02  0.1045305E+00
         21   -1    0    0  503  502  0.00000000000E+00  0.00000000000E+00  0.10635921251E+03  0.10635921251E+03  0.00000000000E+00 0.  1.
         21   -1    0    0  501  503 -0.00000000000E+00 -0.00000000000E+00 -0.16297258247E+04  0.16297258247E+04  0.00000000000E+00 0. -1.
          6    2    1    2  501    0 -0.28508842881E+03  0.21274883998E+03 -0.10320942159E+04  0.11053066998E+04  0.17305186759E+03 0.  0.
         24    2    3    3    0    0 -0.27135161523E+03  0.15815183466E+03 -0.73968335437E+03  0.80748840787E+03  0.79135088447E+02 0.  0.
         -6    2    1    2    0  502  0.28508842881E+03 -0.21274883998E+03 -0.49127239627E+03  0.63077833744E+03  0.17319140422E+03 0.  0.
        -24    2    5    5    0    0  0.20738173590E+03 -0.21869126003E+03 -0.34452350800E+03  0.46455268152E+03  0.79244525023E+02 0.  0.
          5    1    3    3  501    0 -0.13736813577E+02  0.54597005325E+02 -0.29241086158E+03  0.29781829193E+03  0.47000000000E+01 0. -1.
        -11    1    4    4    0    0 -0.22567548419E+03  0.10597155781E+03 -0.63208831411E+03  0.67948144350E+03  0.00000000000E+00 0.  1.
         12    1    4    4    0    0 -0.45676131042E+02  0.52180276852E+02 -0.10759504026E+03  0.12800696437E+03  0.00000000000E+00 0. -1.
         -5    1    5    5    0  502  0.77706692905E+02  0.59424200406E+01 -0.14674888827E+03  0.16622565592E+03  0.47000000000E+01 0.  1.
         13    1    6    6    0    0  0.10885679548E+03 -0.71062593210E+02 -0.18367405873E+03  0.22502411855E+03  0.00000000000E+00 0. -1.
        -14    1    6    6    0    0  0.98524940416E+02 -0.14762866681E+03 -0.16084944926E+03  0.23952856297E+03  0.00000000000E+00 0.  1.
</event>
<event>
12    1  0.8728348E-002  0.1874791E+03  0.7818608E-02  0.1160817E+00
         21   -1    0    0  503  502  0.00000000000E+00  0.00000000000E+00  0.12524326735E+03  0.12524326735E+03  0.00000000000E+00 0.  1.
         21   -1    0    0  501  503 -0.00000000000E+00 -0.00000000000E+00 -0.28025744498E+03  0.28025744498E+03  0.00000000000E+00 0.  1.
          6    2    1    2  501    0 -0.42916953917E+02 -0.61713715639E+02 -0.75693653753E+02  0.20193217304E+03  0.17145444193E+03 0.  0.
         24    2    3    3    0    0 -0.23613683281E+02 -0.95085606627E+02 -0.10898781736E+02  0.12638904096E+03  0.79098214926E+02 0.  0.
         -6    2    1    2    0  502  0.42916953917E+02  0.61713715639E+02 -0.79320523874E+02  0.20356853929E+03  0.17174969301E+03 0.  0.
        -24    2    5    5    0    0 -0.25817405606E+01  0.61874277393E+02  0.96607949255E+01  0.10351894122E+03  0.82387794274E+02 0.  0.
          5    1    3    3  501    0 -0.19303270635E+02  0.33371890988E+02 -0.64794872017E+02  0.75543132084E+02  0.47000000000E+01 0. -1.
        -13    1    4    4    0    0  0.25227699443E+02 -0.23546125076E+02 -0.18991972905E+02  0.39389743082E+02  0.00000000000E+00 0.  1.
         14    1    4    4    0    0 -0.48841382725E+02 -0.71539481551E+02  0.80931911691E+01  0.86999297873E+02  0.00000000000E+00 0. -1.
         -5    1    5    5    0  502  0.45498694477E+02 -0.16056175386E+00 -0.88981318799E+02  0.10004959807E+03  0.47000000000E+01 0.  1.
         13    1    6    6    0    0  0.16032717117E+02  0.53262317604E+01 -0.28266915109E+02  0.32930764533E+02  0.00000000000E+00 0. -1.
        -14    1    6    6    0    0 -0.18614457678E+02  0.56548045633E+02  0.37927710035E+02  0.70588176687E+02  0.00000000000E+00 0.  1.
</event>
<event>
12    1  0.8728348E-002  0.3392208E+03  0.7818608E-02  0.1067166E+00
         21   -1    0    0  501  502  0.00000000000E+00  0.00000000000E+00  0.24824064779E+04  0.24824064779E+04  0.00000000000E+00 0.  1.
         21   -1    0    0  502  503 -0.00000000000E+00 -0.00000000000E+00 -0.46362231074E+02  0.46362231074E+02  0.00000000000E+00 0. -1.
         -6    2    1    2    0  503  0.11945922213E+03  0.26682645435E+03  0.12614590698E+04  0.13061808504E+04  0.17135508923E+03 0.  0.
        -24    2    3    3    0    0  0.11197876527E+03  0.28367167461E+03  0.12226897368E+04  0.12629967114E+04  0.84744543194E+02 0.  0.
          6    2    1    2  501    0 -0.11945922213E+03 -0.26682645435E+03  0.11745851770E+04  0.12225878585E+04  0.17205775603E+03 0.  0.
         24    2    5    5    0    0 -0.13141950376E+03 -0.28013014633E+03  0.10811612557E+04  0.11273504939E+04  0.79154851066E+02 0.  0.
          5    1    5    5  501    0  0.11960281629E+02  0.13303691976E+02  0.93423921261E+02  0.95237364624E+02  0.47000000000E+01 0. -1.
        -13    1    6    6    0    0 -0.55045326195E+02 -0.14785400819E+03  0.68082443582E+03  0.69886530039E+03  0.00000000000E+00 0.  1.
         14    1    6    6    0    0 -0.76374177568E+02 -0.13227613814E+03  0.40033681989E+03  0.42848519354E+03  0.00000000000E+00 0. -1.
         -5    1    3    3    0  503  0.74804568682E+01 -0.16845220256E+02  0.38769332998E+02  0.43184139004E+02  0.47000000000E+01 0.  1.
         11    1    4    4    0    0  0.40563825490E+02  0.14825701304E+03  0.76787018259E+03  0.78310291991E+03  0.00000000000E+00 0. -1.
        -12    1    4    4    0    0  0.71414939777E+02  0.13541466157E+03  0.45481955423E+03  0.47989379148E+03  0.00000000000E+00 0.  1.
</event>
<event>
12    1  0.8728348E-002  0.1784769E+03  0.7818608E-02  0.1170350E+00
         21   -1    0    0  501  502  0.00000000000E+00  0.00000000000E+00  0.11066750619E+03  0.11066750619E+03  0.00000000000E+00 0. -1.
         21   -1    0    0  502  503 -0.00000000000E+00 -0.00000000000E+00 -0.25921433864E+04  0.25921433864E+04  0.00000000000E+00 0. -1.
         -6    2    1    2    0  503  0.65205330623E+01 -0.25693486092E+02 -0.25184359021E+04  0.25247521458E+04  0.17649739911E+03 0.  0.
        -24    2    3    3    0    0  0.61410173741E+02 -0.54417023862E+02 -0.14633201555E+04  0.14678087967E+04  0.80152132773E+02 0.  0.
          6    2    1    2  501    0 -0.65205330623E+01  0.25693486092E+02  0.36960021965E+02  0.17805874677E+03  0.17215168166E+03 0.  0.
         24    2    5    5    0    0 -0.23785309196E+02 -0.40902462794E+02 -0.11155873942E+02  0.93973537950E+02  0.80422757447E+02 0.  0.
          5    1    5    5  501    0  0.17264776133E+02  0.66595948886E+02  0.48115895907E+02  0.84085208818E+02  0.47000000000E+01 0. -1.
        -11    1    6    6    0    0  0.31284859106E+01 -0.82819582696E+01  0.32207821061E+02  0.33402424978E+02  0.00000000000E+00 0.  1.
         12    1    6    6    0    0 -0.26913795106E+02 -0.32620504524E+02 -0.43363695003E+02  0.60571112973E+02  0.00000000000E+00 0. -1.
         -5    1    3    3    0  503 -0.54889640678E+02  0.28723537770E+02 -0.10551157466E+04  0.10569433491E+04  0.47000000000E+01 0.  1.
         11    1    4    4    0    0 -0.10718591434E+02  0.11961392484E+02 -0.15843330569E+03  0.15924533106E+03  0.00000000000E+00 0. -1.
        -12    1    4    4    0    0  0.72128765174E+02 -0.66378416346E+02 -0.13048868498E+04  0.13085634657E+04  0.00000000000E+00 0.  1.
</event>
<event>
12    1  0.8728348E-002  0.2837185E+03  0.7818608E-02  0.1093816E+00
         21   -1    0    0  501  502  0.00000000000E+00  0.00000000000E+00  0.16170033902E+04  0.16170033902E+04  0.00000000000E+00 0. -1.
         21   -1    0    0  502  503 -0.00000000000E+00 -0.00000000000E+00 -0.62656103136E+02  0.62656103136E+02  0.00000000000E+00 0. -1.
         -6    2    1    2    0  503  0.13002197880E+03 -0.18283985903E+03  0.39490929367E+03  0.48626076479E+03  0.17366649684E+03 0.  0.
        -24    2    3    3    0    0  0.17877342412E+02 -0.94359354638E+02  0.10426868803E+03  0.16237919573E+03  0.79194423562E+02 0.  0.
          6    2    1    2  501    0 -0.13002197880E+03  0.18283985903E+03  0.11594379934E+04  0.11933987286E+04  0.17195329528E+03 0.  0.
         24    2    5    5    0    0 -0.12290228646E+03  0.56281702895E+02  0.69861609677E+03  0.71543788568E+03  0.74258437312E+02 0.  0.
          5    1    5    5  501    0 -0.71196923401E+01  0.12655815613E+03  0.46082189664E+03  0.47796084288E+03  0.47000000000E+01 0. -1.
        -11    1    6    6    0    0 -0.83479838100E+02  0.46166497927E+02  0.30125957847E+03  0.31600247233E+03  0.00000000000E+00 0.  1.
         12    1    6    6    0    0 -0.39422448359E+02  0.10115204968E+02  0.39735651830E+03  0.39943541335E+03  0.00000000000E+00 0. -1.
         -5    1    3    3    0  503  0.11214463639E+03 -0.88480504389E+02  0.29064060565E+03  0.32388156906E+03  0.47000000000E+01 0.  1.
         13    1    4    4    0    0 -0.33695654314E-01 -0.10215064077E+03  0.98758756094E+02  0.14208464537E+03  0.00000000000E+00 0. -1.
        -14    1    4    4    0    0  0.17911038067E+02  0.77912861341E+01  0.55099319330E+01  0.20294550356E+02  0.00000000000E+00 0.  1.
</event>
<event>
12    1  0.8728348E-002  0.1988301E+03  0.7818608E-02  0.1151768E+00
         21   -1    0    0  501  502  0.00000000000E+00  0.00000000000E+00  0.23426642209E+02  0.23426642209E+02  0.00000000000E+00 0. -1.
         21   -1    0    0  502  503 -0.00000000000E+00 -0.00000000000E+00 -0.16472761749E+04  0.16472761749E+04  0.00000000000E+00 0.  1.
         -6    2    1    2    0  503  0.90252830711E+02 -0.24967953803E+02 -0.83493392654E+03  0.85828204845E+03  0.17539794992E+03 0.  0.
        -24    2    3    3    0    0  0.43233648811E+02 -0.67931900244E+02 -0.70072893198E+03  0.70965575628E+03  0.78143232866E+02 0.  0.
          6    2    1    2  501    0 -0.90252830711E+02  0.24967953803E+02 -0.78891560611E+03  0.81242076862E+03  0.16991380035E+03 0.  0.
         24    2    5    5    0    0 -0.11062133807E+03  0.10602216592E+02 -0.76643111045E+03  0.77852544383E+03  0.79597312653E+02 0.  0.
          5    1    5    5  501    0  0.20368507363E+02  0.14365737211E+02 -0.22484495660E+02  0.33895324795E+02  0.47000000000E+01 0. -1.
        -13    1    6    6    0    0 -0.28628863107E+02 -0.27240756574E+02 -0.36113960794E+03  0.36329531657E+03  0.00000000000E+00 0.  1.
         14    1    6    6    0    0 -0.81992474968E+02  0.37842973166E+02 -0.40529150252E+03  0.41523012726E+03  0.00000000000E+00 0. -1.
         -5    1    3    3    0  503  0.47019181900E+02  0.42963946441E+02 -0.13420499456E+03  0.14862629217E+03  0.47000000000E+01 0.  1.
         11    1    4    4    0    0 -0.95710197488E+01  0.12429573441E+02 -0.11972747617E+03  0.12075084789E+03  0.00000000000E+00 0. -1.
        -12    1    4    4    0    0  0.52804668560E+02 -0.80361473685E+02 -0.58100145581E+03  0.58890490839E+03  0.00000000000E+00 0.  1.
</event>
<event>
12    1  0.8728348E-002  0.1899992E+03  0.7818608E-02  0.1158556E+00
         21   -1    0    0  503  502  0.00000000000E+00  0.00000000000E+00  0.26271218864E+04  0.26271218864E+04  0.00000000000E+00 0.  1.
         21   -1    0    0  501  503 -0.00000000000E+00 -0.00000000000E+00 -0.36561748570E+02  0.36561748570E+02  0.00000000000E+00 0.  1.
          6    2    1    2  501    0 -0.44094884039E+02 -0.66897840015E+02  0.24290984909E+03  0.30839079484E+03  0.17227886625E+03 0.  0.
         24    2    3    3    0    0 -0.15910255844E+02 -0.10936750237E+03  0.19745051660E+03  0.23993141712E+03  0.79787164390E+02 0.  0.
         -6    2    1    2    0  502  0.44094884039E+02  0.66897840015E+02  0.23476502887E+04  0.23552928401E+04  0.17182201481E+03 0.  0.
        -24    2    5    5    0    0  0.50924661969E+02 -0.22730613892E+02  0.10000970650E+04  0.10047367745E+04  0.78688274876E+02 0.  0.
          5    1    3    3  501    0 -0.28184628195E+02  0.42469662351E+02  0.45459332494E+02  0.68459377718E+02  0.47000000000E+01 0. -1.
        -11    1    4    4    0    0 -0.48588740199E+02 -0.68461055078E+02  0.12225949249E+03  0.14830767088E+03  0.00000000000E+00 0.  1.
         12    1    4    4    0    0  0.32678484355E+02 -0.40906447288E+02  0.75191024105E+02  0.91623746242E+02  0.00000000000E+00 0. -1.
         -5    1    5    5    0  502 -0.68297779299E+01  0.89628453907E+02  0.13475532237E+04  0.13505560656E+04  0.47000000000E+01 0.  1.
         13    1    6    6    0    0  0.50918341506E+02 -0.20286010918E+02  0.32173868857E+03  0.32637399324E+03  0.00000000000E+00 0. -1.
        -14    1    6    6    0    0  0.63204631342E-02 -0.24446029736E+01  0.67835837644E+03  0.67836278127E+03  0.00000000000E+00 0.  1.
</event>
<event>
12    1  0.8728348E-002  0.5581150E+03  0.7818608E-02  0.9996347E-01
         21   -1    0    0  501  502  0.00000000000E+00  0.00000000000E+00  0.20398175540E+03  0.20398175540E+03  0.00000000000E+00 0.  1.
         21   -1    0    0  502  503 -0.00000000000E+00 -0.00000000000E+00 -0.16176820589E+04  0.16176820589E+04  0.00000000000E+00 0. -1.
         -6    2    1    2    0  503 -0.88301173570E+02  0.52337815520E+03 -0.49114795400E+03  0.74342672490E+03  0.17243895150E+03 0.  0.
        -24    2    3    3    0    0  0.14087587191E+02  0.21026451909E+03 -0.15508212903E+03  0.27280380137E+03  0.77212817560E+02 0.  0.
          6    2    1    2  501    0  0.88301173570E+02 -0.52337815520E+03 -0.92255234955E+03  0.10782370894E+04  0.17254156839E+03 0.  0.
         24    2    5    5    0    0  0.10119974573E+03 -0.49746959385E+03 -0.91285218039E+03  0.10473532750E+04  0.77022035912E+02 0.  0.
          5    1    5    5  501    0 -0.12898572160E+02 -0.25908561344E+02 -0.97001691528E+01  0.30883814471E+02  0.47000000000E+01 0. -1.
        -11    1    6    6    0    0  0.24331121278E+02 -0.28043340582E+03 -0.54461700050E+03  0.61306000995E+03  0.00000000000E+00 0.  1.
         12    1    6    6    0    0  0.76868624453E+02 -0.21703618803E+03 -0.36823517989E+03  0.43429326503E+03  0.00000000000E+00 0. -1.
         -5    1    3    3    0  503 -0.10238876076E+03  0.31311363611E+03 -0.33606582497E+03  0.47062292354E+03  0.47000000000E+01 0.  1.
         11    1    4    4    0    0 -0.28365142230E+02  0.47369587728E+02 -0.49075976250E+02  0.73870904828E+02  0.00000000000E+00 0. -1.
        -12    1    4    4    0    0  0.42452729421E+02  0.16289493136E+03 -0.10600615278E+03  0.19893289654E+03  0.00000000000E+00 0.  1.
</event>
<event>
12    1  0.8728348E-002  0.2101188E+03  0.7818608E-02  0.1142562E+00
         21   -1    0    0  503  502  0.00000000000E+00  0.00000000000E+00  0.10990549959E+04  0.10990549959E+04  0.00000000000E+00 0. -1.
         21   -1    0    0  501  503 -0.00000000000E+00 -0.00000000000E+00 -0.10699489463E+03  0.10699489463E+03  0.00000000000E+00 0. -1.
          6    2    1    2  501    0 -0.10626526794E+03 -0.30905976818E+02  0.13436982678E+02  0.20512376299E+03  0.17218513021E+03 0.  0.
         24    2    3    3    0    0 -0.19311128915E+02 -0.69046968481E+02 -0.66904473652E+01  0.10794886407E+03  0.80422581481E+02 0.  0.
         -6    2    1    2    0  502  0.10626526794E+03  0.30905976818E+02  0.97862311860E+03  0.10009261275E+04  0.17861247988E+03 0.  0.
        -24    2    5    5    0    0  0.12010887906E+03 -0.30339680620E+02  0.67699969473E+03  0.69280041303E+03  0.79354814398E+02 0.  0.
          5    1    3    3  501    0 -0.86954139026E+02  0.38140991664E+02  0.20127430043E+02  0.97174898914E+02  0.47000000000E+01 0. -1.
        -11    1    4    4    0    0 -0.67932828718E+01 -0.91259316351E+01 -0.37663681105E+02  0.39344430289E+02  0.00000000000E+00 0.  1.
         12    1    4    4    0    0 -0.12517846043E+02 -0.59921036846E+02  0.30973233740E+02  0.68604433782E+02  0.00000000000E+00 0. -1.
         -5    1    5    5    0  502 -0.13843611121E+02  0.61245657437E+02  0.30162342386E+03  0.30812571452E+03  0.47000000000E+01 0.  1.
         11    1    6    6    0    0  0.53302012571E+02  0.21734954389E+02  0.19140939057E+03  0.19987763152E+03  0.00000000000E+00 0. -1.
        -12    1    6    6    0    0  0.66806866490E+02 -0.52074635009E+02  0.48559030417E+03  0.49292278150E+03  0.00000000000E+00 0.  1.
</event>
<event>
12    1  0.8728348E-002  0.1770304E+03  0.7818608E-02  0.1171756E+00
         21   -1    0    0  501  502  0.00000000000E+00  0.00000000000E+00  0.84977029009E+02  0.84977029009E+02  0.00000000000E+00 0.  1.
         21   -1    0    0  502  503 -0.00000000000E+00 -0.00000000000E+00 -0.36320705568E+03  0.36320705568E+03  0.00000000000E+00 0.  1.
         -6    2    1    2    0  503  0.18976767844E+02 -0.18100680091E+01 -0.11687444174E+03  0.20865251246E+03  0.17179302011E+03 0.  0.
        -24    2    3    3    0    0 -0.43402222018E+02  0.30463499837E+01 -0.18978625307E+02  0.92375240185E+02  0.79246221717E+02 0.  0.
          6    2    1    2  501    0 -0.18976767844E+02  0.18100680091E+01 -0.16135558492E+03  0.23953157223E+03  0.17600100921E+03 0.  0.
         24    2    5    5    0    0  0.60043424591E+02 -0.18667614501E+02 -0.10788871568E+03  0.14183652425E+03  0.67260181170E+02 0.  0.
          5    1    5    5  501    0 -0.79020192435E+02  0.20477682510E+02 -0.53466869243E+02  0.97695047981E+02  0.47000000000E+01 0. -1.
        -13    1    6    6    0    0  0.14458969164E+02 -0.37605722379E+02 -0.32686723463E+02  0.51881345739E+02  0.00000000000E+00 0.  1.
         14    1    6    6    0    0  0.45584455427E+02  0.18938107878E+02 -0.75201992218E+02  0.89955178506E+02  0.00000000000E+00 0. -1.
         -5    1    3    3    0  503  0.62378989862E+02 -0.48564179928E+01 -0.97895816437E+02  0.11627727227E+03  0.47000000000E+01 0.  1.
         11    1    4    4    0    0 -0.65586117595E+01 -0.13033313931E+02  0.27373679902E+02  0.31019365106E+02  0.00000000000E+00 0. -1.
        -12    1    4    4    0    0 -0.36843610258E+02  0.16079663914E+02 -0.46352305209E+02  0.61355875079E+02  0.00000000000E+00 0.  1.
</event>
<event>
12    1  0.8728348E-002  0.1803996E+03  0.7818608E-02  0.1167866E+00
         21   -1    0    0  503  502  0.00000000000E+00  0.00000000000E+00  0.12502240345E+04  0.12502240345E+04  0.00000000000E+00 0.  1.
         21   -1    0    0  501  503 -0.00000000000E+00 -0.00000000000E+00 -0.34752339228E+02  0.34752339228E+02  0.00000000000E+00 0.  1.
          6    2    1    2  501    0 -0.30049674649E+02  0.46345845202E+02  0.28331517959E+03  0.33587424268E+03  0.17173553969E+03 0.  0.
         24    2    3    3    0    0 -0.34846696540E+02 -0.14667889383E+02  0.25203977835E+03  0.26698354701E+03  0.79540714498E+02 0.  0.
         -6    2    1    2    0  502  0.30049674649E+02 -0.46345845202E+02  0.93215651567E+03  0.94910213104E+03  0.16978858951E+03 0.  0.
        -24    2    5    5    0    0  0.67270853542E+02 -0.64384752641E+02  0.49528859474E+03  0.51025535974E+03  0.79868491658E+02 0.  0.
          5    1    3    3  501    0  0.47970218911E+01  0.61013734585E+02  0.31275401244E+02  0.68890695671E+02  0.47000000000E+01 0. -1.
        -13    1    4    4    0    0 -0.60579206622E+02 -0.14696298690E+02  0.17865960462E+03  0.18922229201E+03  0.00000000000E+00 0.  1.
         14    1    4    4    0    0  0.25732510082E+02  0.28409306579E-01  0.73380173733E+02  0.77761255001E+02  0.00000000000E+00 0. -1.
         -5    1    5    5    0  502 -0.37221178893E+02  0.18038907439E+02  0.43686792093E+03  0.43884677130E+03  0.47000000000E+01 0.  1.
         13    1    6    6    0    0  0.64136185400E+02 -0.78600859256E+02  0.47209350808E+03  0.48287040262E+03  0.00000000000E+00 0. -1.
        -14    1    6    6    0    0  0.31346681418E+01  0.14216106615E+02  0.23195086661E+02  0.27384957128E+02  0.00000000000E+00 0.  1.
</event>
<event>
12    1  0.8728348E-002  0.2022770E+03  0.7818608E-02  0.1148104E+00
         21   -1    0    0  503  502  0.00000000000E+00  0.00000000000E+00  0.25664105055E+03  0.25664105055E+03  0.00000000000E+00 0.  1.
         21   -1    0    0  501  503 -0.00000000000E+00 -0.00000000000E+00 -0.19873775812E+03  0.19873775812E+03  0.00000000000E+00 0.  1.
          6    2    1    2  501    0  0.54712400171E+02  0.88837127091E+02 -0.73696099531E+02  0.21406075676E+03  0.17177139056E+03 0.  0.
         24    2    3    3    0    0  0.21365132221E+02  0.12455095967E+03 -0.76956782807E+02  0.16486482021E+03  0.72723119401E+02 0.  0.
         -6    2    1    2    0  502 -0.54712400171E+02 -0.88837127091E+02  0.13159939196E+03  0.24131805192E+03  0.17329316297E+03 0.  0.
        -24    2    5    5    0    0 -0.10062964872E+03 -0.26841516774E+02  0.75543244308E+02  0.14583909558E+03  0.68669256693E+02 0.  0.
          5    1    3    3  501    0  0.33347267950E+02 -0.35713832575E+02  0.32606832759E+01  0.49195936543E+02  0.47000000000E+01 0. -1.
        -11    1    4    4    0    0  0.17648332296E+02  0.21661005933E+02 -0.51837236382E+02  0.58887705734E+02  0.00000000000E+00 0.  1.
         12    1    4    4    0    0  0.37167999249E+01  0.10288995373E+03 -0.25119546425E+02  0.10597711448E+03  0.00000000000E+00 0. -1.
         -5    1    5    5    0  502  0.45917248551E+02 -0.61995610316E+02  0.56056147656E+02  0.95478956336E+02  0.47000000000E+01 0.  1.
         13    1    6    6    0    0 -0.58204333317E+02 -0.29741398204E+02  0.77610410237E+01  0.65821948784E+02  0.00000000000E+00 0. -1.
        -14    1    6    6    0    0 -0.42425315405E+02  0.28998814294E+01  0.67782203284E+02  0.80017146797E+02  0.00000000000E+00 0.  1.
</event>
<event>
12    1  0.8728348E-002  0.2393017E+03  0.7818608E-02  0.1120309E+00
         21   -1    0    0  501  502  0.00000000000E+00  0.00000000000E+00  0.78276854919E+02  0.78276854919E+02  0.00000000000E+00 0. -1.
         21   -1    0    0  502  503 -0.00000000000E+00 -0.00000000000E+00 -0.86443900251E+03  0.86443900251E+03  0.00000000000E+00 0.  1.
         -6    2    1    2    0  503  0.53055995121E+02  0.15811673871E+03 -0.57830128700E+03  0.62574352287E+03  0.17119210315E+03 0.  0.
        -24    2    3    3    0    0  0.13615202823E+02  0.14573739468E+03 -0.55150939271E+03  0.57625898128E+03  0.80542171010E+02 0.  0.
          6    2    1    2  501    0 -0.53055995121E+02 -0.15811673871E+03 -0.20786086059E+03  0.31697233456E+03  0.17160851329E+03 0.  0.
         24    2    5    5    0    0 -0.87629193190E+02 -0.60842460085E+02 -0.94204940439E+02  0.16335804652E+03  0.80191022628E+02 0.  0.
          5    1    5    5  501    0  0.34573198068E+02 -0.97274278627E+02 -0.11365592015E+03  0.15361428805E+03  0.47000000000E+01 0. -1.
        -13    1    6    6    0    0  0.81902888730E+01 -0.21194528579E+02  0.77631867895E+00  0.22735248937E+02  0.00000000000E+00 0.  1.
         14    1    6    6    0    0 -0.95819482063E+02 -0.39647931506E+02 -0.94981259118E+02  0.14062279758E+03  0.00000000000E+00 0. -1.
         -5    1    3    3    0  503  0.39440792298E+02  0.12379344033E+02 -0.26791894299E+02  0.49484541586E+02  0.47000000000E+01 0.  1.
         13    1    4    4    0    0  0.27799794314E+01  0.30305598922E+02 -0.32772237623E+02  0.44723340332E+02  0.00000000000E+00 0. -1.
        -14    1    4    4    0    0  0.10835223392E+02  0.11543179576E+03 -0.51873715508E+03  0.53153564095E+03  0.00000000000E+00 0.  1.
</event>
<event>
12    1  0.8728348E-002  0.2728063E+03  0.7818608E-02  0.1099722E+00
         21   -1    0    0  501  502  0.00000000000E+00  0.00000000000E+00  0.35608723476E+03  0.35608723476E+03  0.00000000000E+00 0.  1.
         21   -1    0    0  502  503 -0.00000000000E+00 -0.00000000000E+00 -0.24211060579E+03  0.24211060579E+03  0.00000000000E+00 0.  1.
         -6    2    1    2    0  503  0.20002596146E+03 -0.69110293295E+02 -0.53978483848E+02  0.27783527224E+03  0.17173276882E+03 0.  0.
        -24    2    3    3    0    0  0.11008186345E+03 -0.75026799329E+02  0.25033302239E+02  0.15787737067E+03  0.80941711551E+02 0.  0.
          6    2    1    2  501    0 -0.20002596146E+03  0.69110293295E+02  0.16795511282E+03  0.32036256832E+03  0.17215294759E+03 0.  0.
         24    2    5    5    0    0 -0.21664480926E+03  0.44813955314E+02  0.12239819450E+03  0.26591974558E+03  0.82393744289E+02 0.  0.
          5    1    5    5  501    0  0.16618847809E+02  0.24296337981E+02  0.45556918317E+02  0.54442822744E+02  0.47000000000E+01 0. -1.
        -11    1    6    6    0    0 -0.14314753437E+03  0.28294748433E+01  0.42073041493E+02  0.14922923087E+03  0.00000000000E+00 0.  1.
         12    1    6    6    0    0 -0.73497274890E+02  0.41984480470E+02  0.80325153010E+02  0.11669051471E+03  0.00000000000E+00 0. -1.
         -5    1    3    3    0  503  0.89944098001E+02  0.59165060340E+01 -0.79011786087E+02  0.11995790157E+03  0.47000000000E+01 0.  1.
         13    1    4    4    0    0  0.18306470539E+02 -0.33222253476E+02  0.40907312292E+02  0.55787571990E+02  0.00000000000E+00 0. -1.
        -14    1    4    4    0    0  0.91775392915E+02 -0.41804545853E+02 -0.15874010053E+02  0.10208979868E+03  0.00000000000E+00 0.  1.
</event>
<event>
12    1  0.8728348E-002  0.1835529E+03  0.7818608E-02  0.1165325E+00
         21   -1    0    0  503  502  0.00000000000E+00  0.00000000000E+00  0.99372357368E+02  0.99372357368E+02  0.00000000000E+00 0. -1.
         21   -1    0    0  501  503 -0.00000000000E+00 -0.00000000000E+00 -0.38532374086E+03  0.38532374086E+03  0.00000000000E+00 0. -1.
          6    2    1    2  501    0  0.36906852879E+02  0.52274752941E+02 -0.23444088904E+03  0.29774857395E+03  0.17203754604E+03 0.  0.
         24    2    3    3    0    0  0.24277676015E+02 -0.18969821339E+02 -0.49707129318E+02  0.99294706624E+02  0.80245749944E+02 0.  0.
         -6    2    1    2    0  502 -0.36906852879E+02 -0.52274752941E+02 -0.51510494446E+02  0.18694752428E+03  0.16793236797E+03 0.  0.
        -24    2    5    5    0    0  0.69837250099E+01 -0.73631737764E+02 -0.75970240720E+02  0.13214904970E+03  0.78876413720E+02 0.  0.
          5    1    3    3  501    0  0.12629176864E+02  0.71244574280E+02 -0.18473375973E+03  0.19845386732E+03  0.47000000000E+01 0. -1.
        -11    1    4    4    0    0 -0.17061963377E+02  0.19065618686E+02 -0.21204738104E+01  0.25673036815E+02  0.00000000000E+00 0.  1.
         12    1    4    4    0    0  0.41339639392E+02 -0.38035440025E+02 -0.47586655508E+02  0.73621669809E+02  0.00000000000E+00 0. -1.
         -5    1    5    5    0  502 -0.43890577889E+02  0.21356984823E+02  0.24459746274E+02  0.54798474577E+02  0.47000000000E+01 0.  1.
         13    1    6    6    0    0 -0.21969127723E+02 -0.70580045190E+02 -0.71226562585E+02  0.10265188050E+03  0.00000000000E+00 0. -1.
        -14    1    6    6    0    0  0.28952852732E+02 -0.30516925736E+01 -0.47436781342E+01  0.29497169206E+02  0.00000000000E+00 0.  1.
</event>
<event>
12    1  0.8728348E-002  0.2430094E+03  0.7818608E-02  0.1117840E+00
         21   -1    0    0  503  502  0.00000000000E+00  0.00000000000E+00  0.13978448940E+04  0.13978448940E+04  0.00000000000E+00 0.  1.
         21   -1    0    0  501  503 -0.00000000000E+00 -0.00000000000E+00 -0.43541473879E+02  0.43541473879E+02  0.00000000000E+00 0. -1.
          6    2    1    2  501    0 -0.17151324993E+03 -0.34803245297E+01  0.80296572482E+03  0.83886929683E+03  0.17181046060E+03 0.  0.
         24    2    3    3    0    0 -0.18987540602E+03  0.24189466752E+02  0.65577062897E+03  0.68790151097E+03  0.80842877617E+02 0.  0.
         -6    2    1    2    0  502  0.17151324993E+03  0.34803245297E+01  0.55133769526E+03  0.60251707101E+03  0.17211815442E+03 0.  0.
        -24    2    5    5    0    0  0.17296278291E+03  0.18293797473E+02  0.55450897668E+03  0.58658951148E+03  0.79726171740E+02 0.  0.
          5    1    3    3  501    0  0.18362156092E+02 -0.27669791282E+02  0.14719509585E+03  0.15096778586E+03  0.47000000000E+01 0. -1.
        -11    1    4    4    0    0 -0.13615510762E+03 -0.12838129872E+02  0.51322495531E+03  0.53113358551E+03  0.00000000000E+00 0.  1.
         12    1    4    4    0    0 -0.53720298400E+02  0.37027596625E+02  0.14254567366E+03  0.15676792546E+03  0.00000000000E+00 0. -1.
         -5    1    5    5    0  502 -0.14495329895E+01 -0.14813472943E+02 -0.31712814230E+01  0.15927559524E+02  0.47000000000E+01 0.  1.
         11    1    6    6    0    0  0.40135897572E+02  0.32201622705E+02  0.94693275980E+02  0.10777129161E+03  0.00000000000E+00 0. -1.
        -12    1    6    6    0    0  0.13282688534E+03 -0.13907825232E+02  0.45981570070E+03  0.47881821988E+03  0.00000000000E+00 0.  1.
</event>
<event>
12    1  0.8728348E-002  0.2013308E+03  0.7818608E-02  0.1149225E+00
         21   -1    0    0  501  502  0.00000000000E+00  0.00000000000E+00  0.72545644417E+02  0.72545644417E+02  0.00000000000E+00 0. -1.
         21   -1    0    0  502  503 -0.00000000000E+00 -0.00000000000E+00 -0.56627035931E+03  0.56627035931E+03  0.00000000000E+00 0. -1.
         -6    2    1    2    0  503 -0.57561616116E+02  0.86402985705E+02 -0.29790377185E+03  0.35796029129E+03  0.16914519582E+03 0.  0.
        -24    2    3    3    0    0 -0.57438033399E+02  0.11911032177E+03 -0.19065602639E+03  0.24573750390E+03  0.80937037190E+02 0.  0.
          6    2    1    2  501    0  0.57561616116E+02 -0.86402985705E+02 -0.19582094304E+03  0.28085571244E+03  0.17249717066E+03 0.  0.
         24    2    5    5    0    0  0.46176181955E+02 -0.12145951024E+00 -0.35651523143E+02  0.98508617740E+02  0.79376710277E+02 0.  0.
          5    1    5    5  501    0  0.11385434161E+02 -0.86281526194E+02 -0.16016941990E+03  0.18234709470E+03  0.47000000000E+01 0. -1.
        -11    1    6    6    0    0 -0.16617080560E+02  0.13820196228E+02 -0.25438907960E+02  0.33380581605E+02  0.00000000000E+00 0.  1.
         12    1    6    6    0    0  0.62793262515E+02 -0.13941655738E+02 -0.10212615183E+02  0.65128036135E+02  0.00000000000E+00 0. -1.
         -5    1    3    3    0  503 -0.12358271685E+00 -0.32707336062E+02 -0.10724774545E+03  0.11222278739E+03  0.47000000000E+01 0.  1.
         13    1    4    4    0    0 -0.28804269754E+02  0.54271039054E+02 -0.15428770285E+03  0.16607145115E+03  0.00000000000E+00 0. -1.
        -14    1    4    4    0    0 -0.28633763645E+02  0.64839282712E+02 -0.36368323546E+02  0.79666052749E+02  0.00000000000E+00 0.  1.
</event>
<event>
12    1  0.8728348E-002  0.2241156E+03  0.7818608E-02  0.1130964E+00
         21   -1    0    0  501  502  0.00000000000E+00  0.00000000000E+00  0.11362109516E+03  0.11362109516E+03  0.00000000000E+00 0. -1.
         21   -1    0    0  502  503 -0.00000000000E+00 -0.00000000000E+00 -0.92521769214E+03  0.92521769214E+03  0.00000000000E+00 0. -1.
         -6    2    1    2    0  503  0.48355864522E+02  0.13525093315E+03 -0.78135583518E+03  0.81269213746E+03  0.17123219490E+03 0.  0.
        -24    2    3    3    0    0  0.45643919217E+02  0.15712488563E+03 -0.75998167373E+03  0.78163140305E+03  0.81264437379E+02 0.  0.
          6    2    1    2  501    0 -0.48355864522E+02 -0.13525093315E+03 -0.30240761806E+02  0.22614664984E+03  0.17203691176E+03 0.  0.
         24    2    5    5    0    0 -0.28502805773E+02 -0.13752053865E+03 -0.75013596272E+02  0.17689229209E+03  0.77068378012E+02 0.  0.
          5    1    5    5  501    0 -0.19853058749E+02  0.22696055002E+01  0.44772834465E+02  0.49254357745E+02  0.47000000000E+01 0. -1.
        -11    1    6    6    0    0 -0.17149722354E+02 -0.39935362198E+02 -0.64928970802E+02  0.78132690855E+02  0.00000000000E+00 0.  1.
         12    1    6    6    0    0 -0.11353083419E+02 -0.97585176451E+02 -0.10084625469E+02  0.98759601240E+02  0.00000000000E+00 0. -1.
         -5    1    3    3    0  503  0.27119453050E+01 -0.21873952479E+02 -0.21374161447E+02  0.31060734408E+02  0.47000000000E+01 0.  1.
         11    1    4    4    0    0  0.22813960909E+02  0.13649338966E+03 -0.70653005027E+03  0.71995530012E+03  0.00000000000E+00 0. -1.
        -12    1    4    4    0    0  0.22829958308E+02  0.20631495969E+02 -0.53451623455E+02  0.61676102927E+02  0.00000000000E+00 0.  1.
</event>
<event>
12    1  0.8728348E-002  0.1990233E+03  0.7818608E-02  0.1150686E+00
         21   -1    0    0  503  502  0.00000000000E+00  0.00000000000E+00  0.15207780865E+03  0.15207780865E+03  0.00000000000E+00 0. -1.
         21   -1    0    0  501  503 -0.00000000000E+00 -0.00000000000E+00 -0.26211448970E+03  0.26211448970E+03  0.00000000000E+00 0. -1.
          6    2    1    2  501    0  0.96067472869E+02  0.21589765577E+02 -0.74882282654E+02  0.21264438932E+03  0.17296011891E+03 0.  0.
         24    2    3    3    0    0  0.11681517224E+03 -0.13657123958E+02 -0.90450852796E+02  0.16862983914E+03  0.80139655457E+02 0.  0.
         -6    2    1    2    0  502 -0.96067472869E+02 -0.21589765577E+02 -0.35154398396E+02  0.20154790902E+03  0.17230975185E+03 0.  0.
        -24    2    5    5    0    0 -0.84931924139E+02 -0.73404223982E+02 -0.36807805511E+00  0.13797970448E+03  0.80228745044E+02 0.  0.
          5    1    3    3  501    0 -0.20747699372E+02  0.35246889535E+02  0.15568570142E+02  0.44014550179E+02  0.47000000000E+01 0. -1.
        -11    1    4    4    0    0  0.59844490821E+02  0.33303799200E+02 -0.43813311673E+02  0.81302597760E+02  0.00000000000E+00 0.  1.
         12    1    4    4    0    0  0.56970681420E+02 -0.46960923158E+02 -0.46637541123E+02  0.87327241382E+02  0.00000000000E+00 0. -1.
         -5    1    5    5    0  502 -0.11135548731E+02  0.51814458405E+02 -0.34786320341E+02  0.63568204538E+02  0.47000000000E+01 0.  1.
         13    1    6    6    0    0  0.13673309680E+02 -0.23368591708E+01 -0.83164550096E+01  0.16173550393E+02  0.00000000000E+00 0. -1.
        -14    1    6    6    0    0 -0.98605233819E+02 -0.71067364811E+02  0.79483769545E+01  0.12180615409E+03  0.00000000000E+00 0.  1.
</event>
<event>
12    1  0.8728348E-002  0.2766848E+03  0.7818608E-02  0.1097536E+00
         21   -1    0    0  501  502  0.00000000000E+00  0.00000000000E+00  0.30030550262E+03  0.30030550262E+03  0.00000000000E+00 0.  1.
         21   -1    0    0  502  503 -0.00000000000E+00 -0.00000000000E+00 -0.31541567092E+03  0.31541567092E+03  0.00000000000E+00 0. -1.
         -6    2    1    2    0  503 -0.21744774428E+03  0.39710888380E+01 -0.14254981627E+03  0.31124737667E+03  0.17104148129E+03 0.  0.
        -24    2    3    3    0    0 -0.24014886594E+03  0.70546424813E+01 -0.12583730723E+03  0.28250286091E+03  0.79067014226E+02 0.  0.
          6    2    1    2  501    0  0.21744774428E+03 -0.39710888380E+01  0.12743964797E+03  0.30447379687E+03  0.17077510962E+03 0.  0.
         24    2    5    5    0    0  0.21947246912E+03  0.19260525761E+02  0.14430470088E+03  0.27531342244E+03  0.80215343448E+02 0.  0.
          5    1    5    5  501    0 -0.20247248349E+01 -0.23231614599E+02 -0.16865052909E+02  0.29160374434E+02  0.47000000000E+01 0. -1.
        -13    1    6    6    0    0  0.11363619678E+03  0.29227251794E+02  0.11668928807E+03  0.16548053486E+03  0.00000000000E+00 0.  1.
         14    1    6    6    0    0  0.10583627234E+03 -0.99667260329E+01  0.27615412815E+02  0.10983288758E+03  0.00000000000E+00 0. -1.
         -5    1    3    3    0  503  0.22701121658E+02 -0.30835536433E+01 -0.16712509040E+02  0.28744515756E+02  0.47000000000E+01 0.  1.
         11    1    4    4    0    0 -0.83724579984E+02  0.30038422320E+02 -0.75228873451E+02  0.11649676180E+03  0.00000000000E+00 0. -1.
        -12    1    4    4    0    0 -0.15642428596E+03 -0.22983779839E+02 -0.50608433784E+02  0.16600609911E+03  0.00000000000E+00 0.  1.
</event>
<event>
12    1  0.8728348E-002  0.2540613E+03  0.7818608E-02  0.1111066E+00
         21   -1    0    0  503  502  0.00000000000E+00  0.00000000000E+00  0.25624215546E+03  0.25624215546E+03  0.00000000000E+00 0.  1.
         21   -1    0    0  501  503 -0.00000000000E+00 -0.00000000000E+00 -0.36369809667E+03  0.36369809667E+03  0.00000000000E+00 0.  1.
          6    2    1    2  501    0 -0.89012698773E+02  0.16406847649E+03 -0.22691291272E+03  0.33919639776E+03  0.16947861450E+03 0.  0.
         24    2    3    3    0    0 -0.63744002895E+02  0.17586486352E+03 -0.23371754825E+03  0.31010937654E+03  0.80945567733E+02 0.  0.
         -6    2    1    2    0  502  0.89012698773E+02 -0.16406847649E+03  0.11945697151E+03  0.28074385437E+03  0.17235259848E+03 0.  0.
        -24    2    5    5    0    0 -0.56196777313E+01 -0.34227793080E+02  0.15985508096E+02  0.89583389074E+02  0.81034094873E+02 0.  0.
          5    1    3    3  501    0 -0.25268695878E+02 -0.11796387033E+02  0.68046355245E+01  0.29087021213E+02  0.47000000000E+01 0. -1.
        -11    1    4    4    0    0 -0.81771274740E+02  0.12128018164E+03 -0.17132569905E+03  0.22527298770E+03  0.00000000000E+00 0.  1.
         12    1    4    4    0    0  0.18027271846E+02  0.54584681881E+02 -0.62391849194E+02  0.84836388844E+02  0.00000000000E+00 0. -1.
         -5    1    5    5    0  502  0.94632376504E+02 -0.12984068341E+03  0.10347146341E+03  0.19116046529E+03  0.47000000000E+01 0.  1.
         13    1    6    6    0    0 -0.14670410798E+02 -0.81138855298E+01  0.45894084250E+02  0.48860240078E+02  0.00000000000E+00 0. -1.
        -14    1    6    6    0    0  0.90507330668E+01 -0.26113907550E+02 -0.29908576154E+02  0.40723148996E+02  0.00000000000E+00 0.  1.
</event>
<event>
12    1  0.8728348E-002  0.1846982E+03  0.7818608E-02  0.1164499E+00
         21   -1    0    0  503  502  0.00000000000E+00  0.00000000000E+00  0.12828688137E+04  0.12828688137E+04  0.00000000000E+00 0.  1.
         21   -1    0    0  501  503 -0.00000000000E+00 -0.00000000000E+00 -0.26037461844E+02  0.26037461844E+02  0.00000000000E+00 0.  1.
          6    2    1    2  501    0  0.51313403765E+02  0.15635243639E+02  0.66953621855E+03  0.69325297761E+03  0.17159084112E+03 0.  0.
         24    2    3    3    0    0  0.75971878617E+02  0.40964763749E+02  0.29726982389E+03  0.31928241250E+03  0.78243674031E+02 0.  0.
         -6    2    1    2    0  502 -0.51313403765E+02 -0.15635243639E+02  0.58729513327E+03  0.61565329791E+03  0.17673676304E+03 0.  0.
        -24    2    5    5    0    0  0.26627110569E+02 -0.22494314832E+02  0.17495597413E+03  0.19593024303E+03  0.81018948606E+02 0.  0.
          5    1    3    3  501    0 -0.24658474852E+02 -0.25329520109E+02  0.37226639466E+03  0.37397056511E+03  0.47000000000E+01 0. -1.
        -13    1    4    4    0    0  0.12114356123E+02 -0.15412929802E+02  0.15719608799E+02  0.25128114337E+02  0.00000000000E+00 0.  1.
         14    1    4    4    0    0  0.63857522495E+02  0.56377693551E+02  0.28155021509E+03  0.29415429816E+03  0.00000000000E+00 0. -1.
         -5    1    5    5    0  502 -0.77940514334E+02  0.68590711927E+01  0.41233915915E+03  0.41972305488E+03  0.47000000000E+01 0.  1.
         13    1    6    6    0    0 -0.21150886480E+02 -0.32426834871E+02  0.89654311619E+02  0.97656311678E+02  0.00000000000E+00 0. -1.
        -14    1    6    6    0    0  0.47777997049E+02  0.99325200395E+01  0.85301662507E+02  0.98273931349E+02  0.00000000000E+00 0.  1.
</event>
<event>
12    1  0.8728348E-002  0.2729736E+03  0.7818608E-02  0.1099850E+00
         21   -1    0    0  501  502  0.00000000000E+00  0.00000000000E+00  0.83434086106E+03  0.83434086106E+03  0.00000000000E+00 0. -1.
         21   -1    0    0  502  503 -0.00000000000E+00 -0.00000000000E+00 -0.25536862717E+03  0.25536862717E+03  0.00000000000E+00 0.  1.
         -6    2    1    2    0  503 -0.80948354012E+02 -0.19318170855E+03 -0.15101442080E+03  0.31035392599E+03  0.17216967082E+03 0.  0.
        -24    2    3    3    0    0  0.42741720747E+01 -0.12128192810E+03 -0.35498354125E+02  0.14973478316E+03  0.80204722509E+02 0.  0.
          6    2    1    2  501    0  0.80948354012E+02  0.19318170855E+03  0.72998665468E+03  0.77935556224E+03  0.17505075792E+03 0.  0.
         24    2    5    5    0    0  0.11496658087E+03  0.14371814890E+03  0.44737946585E+03  0.49040436104E+03  0.80472540837E+02 0.  0.
          5    1    5    5  501    0 -0.34018226862E+02  0.49463559648E+02  0.28260718884E+03  0.28895120120E+03  0.47000000000E+01 0. -1.
        -11    1    6    6    0    0  0.41707311092E+02  0.25695030834E+01  0.88546946531E+02  0.97911510480E+02  0.00000000000E+00 0.  1.
         12    1    6    6    0    0  0.73259269782E+02  0.14114864582E+03  0.35883251931E+03  0.39249285056E+03  0.00000000000E+00 0. -1.
         -5    1    3    3    0  503 -0.85222526087E+02 -0.71899780449E+02 -0.11551606667E+03  0.16061914282E+03  0.47000000000E+01 0.  1.
         13    1    4    4    0    0 -0.33219561404E+02 -0.56896281317E+02  0.28345753533E+01  0.65945135567E+02  0.00000000000E+00 0. -1.
        -14    1    4    4    0    0  0.37493733478E+02 -0.64385646785E+02 -0.38332929479E+02  0.83789647597E+02  0.00000000000E+00 0.  1.
</event>
<event>
12    1  0.8728348E-002  0.2071618E+03  0.7818608E-02  0.1144648E+00
         21   -1    0    0  501  502  0.00000000000E+00  0.00000000000E+00  0.28375979229E+03  0.28375979229E+03  0.00000000000E+00 0.  1.
         21   -1    0    0  502  503 -0.00000000000E+00 -0.00000000000E+00 -0.34517601842E+03  0.34517601842E+03  0.00000000000E+00 0. -1.
         -6    2    1    2    0  503  0.58783055017E+02 -0.98603719746E+02 -0.26830603492E+03  0.33897512399E+03  0.17244670251E+03 0.  0.
        -24    2    3    3    0    0 -0.26954113365E+02 -0.29584111268E+02 -0.16863304701E+03  0.19041078468E+03  0.78850608822E+02 0.  0.
          6    2    1    2  501    0 -0.58783055017E+02  0.98603719746E+02  0.20688980878E+03  0.28996068672E+03  0.16761761768E+03 0.  0.
         24    2    5    5    0    0 -0.68697093619E+02  0.12527502762E+03  0.17723829963E+03  0.24859706961E+03  0.99869739897E+02 0.  0.
          5    1    5    5  501    0  0.99140386014E+01 -0.26671307873E+02  0.29651509148E+02  0.41363617103E+02  0.47000000000E+01 0. -1.
        -13    1    6    6    0    0 -0.33225963753E+02  0.44898794989E+02  0.14436372040E+03  0.15479260391E+03  0.00000000000E+00 0.  1.
         14    1    6    6    0    0 -0.35471129865E+02  0.80376232630E+02  0.32874579236E+02  0.93804465702E+02  0.00000000000E+00 0. -1.
         -5    1    3    3    0  503  0.85737168382E+02 -0.69019608478E+02 -0.99672987901E+02  0.14856433931E+03  0.47000000000E+01 0.  1.
         13    1    4    4    0    0 -0.67690890820E+01  0.23324170940E+02 -0.91836881135E+02  0.94993948510E+02  0.00000000000E+00 0. -1.
        -14    1    4    4    0    0 -0.20185024283E+02 -0.52908282208E+02 -0.76796165879E+02  0.95416836173E+02  0.00000000000E+00 0.  1.
</event>
<event>
12    1  0.8728348E-002  0.2349027E+03  0.7818608E-02  0.1123336E+00
         21   -1    0    0  501  502  0.00000000000E+00  0.00000000000E+00  0.22003627821E+03  0.22003627821E+03  0.00000000000E+00 0. -1.
         21   -1    0    0  502  503 -0.00000000000E+00 -0.00000000000E+00 -0.27410710891E+03  0.27410710891E+03  0.00000000000E+00 0. -1.
         -6    2    1    2    0  503  0.53060088615E+01  0.15821407816E+03  0.45977032723E+02  0.23935989925E+03  0.17354949027E+03 0.  0.
        -24    2    3    3    0    0  0.56625751889E+02  0.15317498014E+03  0.44295557953E+02  0.18755231399E+03  0.80899466675E+02 0.  0.
          6    2    1    2  501    0 -0.53060088615E+01 -0.15821407816E+03 -0.10004786342E+03  0.25478348788E+03  0.17275764082E+03 0.  0.
         24    2    5    5    0    0 -0.46058869131E+02 -0.15003878377E+03 -0.38623621184E+02  0.18046889582E+03  0.80275663705E+02 0.  0.
          5    1    5    5  501    0  0.40752860269E+02 -0.81752943865E+01 -0.61424242235E+02  0.74314592057E+02  0.47000000000E+01 0. -1.
        -13    1    6    6    0    0 -0.45565924347E+02 -0.29111117224E+02 -0.22113148321E+02  0.58418335618E+02  0.00000000000E+00 0.  1.
         14    1    6    6    0    0 -0.49294478344E+00 -0.12092766655E+03 -0.16510472863E+02  0.12205056020E+03  0.00000000000E+00 0. -1.
         -5    1    3    3    0  503 -0.51319743028E+02  0.50390980145E+01  0.16814747700E+01  0.51807585262E+02  0.47000000000E+01 0.  1.
         11    1    4    4    0    0  0.36216961091E+02  0.99960396745E+01  0.73783117563E+01  0.38288752451E+02  0.00000000000E+00 0. -1.
        -12    1    4    4    0    0  0.20408790798E+02  0.14317894047E+03  0.36917246197E+02  0.14926356154E+03  0.00000000000E+00 0.  1.
</event>
<event>
12    1  0.8728348E-002  0.1789334E+03  0.7818608E-02  0.1168992E+00
         21   -1    0    0  503  502  0.00000000000E+00  0.00000000000E+00  0.52564899054E+03  0.52564899054E+03  0.00000000000E+00 0.  1.
         21   -1    0    0  501  503 -0.00000000000E+00 -0.00000000000E+00 -0.12175821117E+03  0.12175821117E+03  0.00000000000E+00 0.  1.
          6    2    1    2  501    0 -0.45166723205E+02 -0.13466385880E+02 -0.27466744845E+02  0.18040991831E+03  0.17196493863E+03 0.  0.
         24    2    3    3    0    0 -0.17633508021E+02 -0.34094582979E+02 -0.79695720890E+02  0.11769184761E+03  0.77631062544E+02 0.  0.
         -6    2    1    2    0  502  0.45166723205E+02  0.13466385880E+02  0.43135752421E+03  0.46699728340E+03  0.17261452019E+03 0.  0.
        -24    2    5    5    0    0  0.43138651909E+02 -0.33838336430E+02  0.13157674700E+03  0.16346399987E+03  0.80012890225E+02 0.  0.
          5    1    3    3  501    0 -0.27533215183E+02  0.20628197099E+02  0.52228976044E+02  0.62718070701E+02  0.47000000000E+01 0. -1.
        -11    1    4    4    0    0 -0.28041882227E+02 -0.53215306852E+02 -0.73661087250E+02  0.95100850769E+02  0.00000000000E+00 0.  1.
         12    1    4    4    0    0  0.10408374206E+02  0.19120723873E+02 -0.60346336394E+01  0.22590996839E+02  0.00000000000E+00 0. -1.
         -5    1    5    5    0  502  0.20280712958E+01  0.47304722310E+02  0.29978077721E+03  0.30353328353E+03  0.47000000000E+01 0.  1.
         11    1    6    6    0    0  0.34817256974E+02 -0.52239457870E+02  0.12852696739E+03  0.14303979757E+03  0.00000000000E+00 0. -1.
        -12    1    6    6    0    0  0.83213949349E+01  0.18401121440E+02  0.30497796039E+01  0.20424202299E+02  0.00000000000E+00 0.  1.
</event>
<event>
12    1  0.8728348E-002  0.2627702E+03  0.7818608E-02  0.1105708E+00
         21   -1    0    0  501  502  0.00000000000E+00  0.00000000000E+00  0.32857888637E+03  0.32857888637E+03  0.00000000000E+00 0.  1.
         21   -1    0    0  502  503 -0.00000000000E+00 -0.00000000000E+00 -0.25449005224E+03  0.25449005224E+03  0.00000000000E+00 0.  1.
         -6    2    1    2    0  503  0.19623642043E+03  0.13247361240E+02 -0.86167282384E+02  0.27653746280E+03  0.17425252508E+03 0.  0.
        -24    2    3    3    0    0  0.15530692414E+03  0.73088629923E+02 -0.67906538236E+02  0.20162587571E+03  0.81114162198E+02 0.  0.
          6    2    1    2  501    0 -0.19623642043E+03 -0.13247361240E+02  0.16025611651E+03  0.30653147580E+03  0.17203283842E+03 0.  0.
         24    2    5    5    0    0 -0.14262168689E+03 -0.73841589504E+02  0.11973289432E+03  0.21592009854E+03  0.80572930087E+02 0.  0.
          5    1    5    5  501    0 -0.53614733545E+02  0.60594228264E+02  0.40523222192E+02  0.90611377259E+02  0.47000000000E+01 0. -1.
        -11    1    6    6    0    0 -0.13761352371E+03 -0.51118916725E+02  0.73524983857E+02  0.16418449624E+03  0.00000000000E+00 0.  1.
         12    1    6    6    0    0 -0.50081631791E+01 -0.22722672779E+02  0.46207910460E+02  0.51735602304E+02  0.00000000000E+00 0. -1.
         -5    1    3    3    0  503  0.40929496290E+02 -0.59841268683E+02 -0.18260744149E+02  0.74911587095E+02  0.47000000000E+01 0.  1.
         13    1    4    4    0    0 -0.59289867739E+01  0.14993831709E+02 -0.15609557110E+02  0.22441616400E+02  0.00000000000E+00 0. -1.
        -14    1    4    4    0    0  0.16123591092E+03  0.58094798214E+02 -0.52296981126E+02  0.17918425931E+03  0.00000000000E+00 0.  1.
</event>
<event>
12    1  0.8728348E-002  0.1971192E+03  0.7818608E-02  0.1152431E+00
         21   -1    0    0  503  502  0.00000000000E+00  0.00000000000E+00  0.57094074854E+02  0.57094074854E+02  0.00000000000E+00 0.  1.
         21   -1    0    0  501  503 -0.00000000000E+00 -0.00000000000E+00 -0.72857739390E+03  0.72857739390E+03  0.00000000000E+00 0.  1.
          6    2    1    2  501    0 -0.70274067280E+02  0.64387524535E+02 -0.23009228869E+03  0.30226480559E+03  0.17128150378E+03 0.  0.
         24    2    3    3    0    0 -0.76861106635E+02  0.10380259199E+03 -0.20168264257E+03  0.25300899759E+03  0.81578531065E+02 0.  0.
         -6    2    1    2    0  502  0.70274067280E+02 -0.64387524535E+02 -0.44139103036E+03  0.48340666316E+03  0.17254495779E+03 0.  0.
        -24    2    5    5    0    0  0.17642717136E+02 -0.23312893462E+02 -0.38937075439E+03  0.39864002203E+03  0.80308943006E+02 0.  0.
          5    1    3    3  501    0  0.65870393548E+01 -0.39415067451E+02 -0.28409646119E+02  0.49255808005E+02  0.47000000000E+01 0. -1.
        -13    1    4    4    0    0 -0.36191513813E+02  0.65433260000E+02 -0.17650163777E+03  0.19168767650E+03  0.00000000000E+00 0.  1.
         14    1    4    4    0    0 -0.40669592823E+02  0.38369331986E+02 -0.25181004800E+02  0.61321321090E+02  0.00000000000E+00 0. -1.
         -5    1    5    5    0  502  0.52631350145E+02 -0.41074631073E+02 -0.52020275973E+02  0.84766641128E+02  0.47000000000E+01 0.  1.
         11    1    6    6    0    0  0.76211352474E+01  0.30009082256E+02 -0.12718261934E+03  0.13089707935E+03  0.00000000000E+00 0. -1.
        -12    1    6    6    0    0  0.10021581888E+02 -0.53321975718E+02 -0.26218813505E+03  0.26774294269E+03  0.00000000000E+00 0.  1.
</event>
<event>
12    1  0.8728348E-002  0.2213101E+03  0.7818608E-02  0.1133280E+00
         21   -1    0    0  501  502  0.00000000000E+00  0.00000000000E+00  0.99545148904E+02  0.99545148904E+02  0.00000000000E+00 0.  1.
         21   -1    0    0  502  503 -0.00000000000E+00 -0.00000000000E+00 -0.48775208002E+03  0.48775208002E+03  0.00000000000E+00 0.  1.
         -6    2    1    2    0  503 -0.11807393463E+03 -0.73306026409E+02 -0.19834084421E+03  0.29570286222E+03  0.16966397583E+03 0.  0.
        -24    2    3    3    0    0 -0.51832817130E+02 -0.12832936102E+01 -0.16879966537E+03  0.19338018176E+03  0.78830704026E+02 0.  0.
          6    2    1    2  501    0  0.11807393463E+03  0.73306026409E+02 -0.18986608691E+03  0.29159436671E+03  0.17222925475E+03 0.  0.
         24    2    5    5    0    0  0.82300354844E+02 -0.81539428221E+01 -0.47530383820E+02  0.12367468956E+03  0.78717572764E+02 0.  0.
          5    1    5    5  501    0  0.35773579790E+02  0.81459969231E+02 -0.14233570309E+03  0.16791967714E+03  0.47000000000E+01 0. -1.
        -11    1    6    6    0    0  0.41289868841E+01  0.27755194057E+02 -0.95791457695E+01  0.29650621637E+02  0.00000000000E+00 0.  1.
         12    1    6    6    0    0  0.78171367960E+02 -0.35909136879E+02 -0.37951238051E+02  0.94024067927E+02  0.00000000000E+00 0. -1.
         -5    1    3    3    0  503 -0.66241117503E+02 -0.72022732799E+02 -0.29541178842E+02  0.10232268045E+03  0.47000000000E+01 0.  1.
         13    1    4    4    0    0 -0.50686453009E+02  0.17370681178E+02 -0.50549140229E+02  0.73661880652E+02  0.00000000000E+00 0. -1.
        -14    1    4    4    0    0 -0.11463641209E+01 -0.18653974788E+02 -0.11825052514E+03  0.11971830111E+03  0.00000000000E+00 0.  1.
</event>
<event>
12    1  0.8728348E-002  0.2419807E+03  0.7818608E-02  0.1118706E+00
         21   -1    0    0  501  502  0.00000000000E+00  0.00000000000E+00  0.93470229187E+03  0.93470229187E+03  0.00000000000E+00 0.  1.
         21   -1    0    0  502  503 -0.00000000000E+00 -0.00000000000E+00 -0.16387964837E+03  0.16387964837E+03  0.00000000000E+00 0. -1.
         -6    2    1    2    0  503 -0.74839481288E+02 -0.15139013858E+03 -0.47478329769E+02  0.24525248625E+03  0.17139039704E+03 0.  0.
        -24    2    3    3    0    0 -0.11424550530E+03 -0.12671021408E+03 -0.58786604681E+02  0.19717025998E+03  0.79452707307E+02 0.  0.
          6    2    1    2  501    0  0.74839481288E+02  0.15139013858E+03  0.81830097328E+03  0.85332945399E+03  0.17330537256E+03 0.  0.
         24    2    5    5    0    0 -0.25923221403E+02  0.65843697638E+02  0.30073253303E+03  0.31912865265E+03  0.79972711546E+02 0.  0.
          5    1    5    5  501    0  0.10076270269E+03  0.85546440943E+02  0.51756844025E+03  0.53420080134E+03  0.47000000000E+01 0. -1.
        -11    1    6    6    0    0  0.16437032440E+01 -0.41300787943E+01  0.15563135557E+03  0.15569482376E+03  0.00000000000E+00 0.  1.
         12    1    6    6    0    0 -0.27566924647E+02  0.69973776432E+02  0.14510117746E+03  0.16343382888E+03  0.00000000000E+00 0. -1.
         -5    1    3    3    0  503  0.39406024011E+02 -0.24679924497E+02  0.11308274911E+02  0.48082226269E+02  0.47000000000E+01 0.  1.
         13    1    4    4    0    0 -0.35096926368E+01 -0.42318333842E+02 -0.36852592055E+02  0.56225197756E+02  0.00000000000E+00 0. -1.
        -14    1    4    4    0    0 -0.11073581266E+03 -0.84391880241E+02 -0.21934012626E+02  0.14094506223E+03  0.00000000000E+00 0.  1.
</event>
<event>
12    1  0.8728348E-002  0.1758566E+03  0.7818608E-02  0.1171880E+00
         21   -1    0    0  503  502  0.00000000000E+00  0.00000000000E+00  0.14657534742E+03  0.14657534742E+03  0.00000000000E+00 0.  1.
         21   -1    0    0  501  503 -0.00000000000E+00 -0.00000000000E+00 -0.25358553603E+03  0.25358553603E+03  0.00000000000E+00 0.  1.
          6    2    1    2  501    0 -0.11307789812E+01  0.34735155843E+02 -0.13553165997E+03  0.22200637071E+03  0.17236643544E+03 0.  0.
         24    2    3    3    0    0 -0.31975166517E+02 -0.41848378365E+01 -0.10468878089E+02  0.87362649864E+02  0.80515284519E+02 0.  0.
         -6    2    1    2    0  502  0.11307789812E+01 -0.34735155843E+02  0.28521471363E+02  0.17815451274E+03  0.17238835914E+03 0.  0.
        -24    2    5    5    0    0  0.21036188132E+01  0.14431642942E+02 -0.44113533883E+02  0.90312299038E+02  0.77444237719E+02 0.  0.
          5    1    3    3  501    0  0.30844387536E+02  0.38919993680E+02 -0.12506278188E+03  0.13464372084E+03  0.47000000000E+01 0. -1.
        -11    1    4    4    0    0 -0.53996620995E+02  0.13237966503E+02 -0.17738029089E+02  0.58356803476E+02  0.00000000000E+00 0.  1.
         12    1    4    4    0    0  0.22021454478E+02 -0.17422804339E+02  0.72691509992E+01  0.29005846387E+02  0.00000000000E+00 0. -1.
         -5    1    5    5    0  502 -0.97283983195E+00 -0.49166798785E+02  0.72635005246E+02  0.87842213697E+02  0.47000000000E+01 0.  1.
         11    1    6    6    0    0 -0.15288957137E+02 -0.25464445811E+02 -0.34895322112E+02  0.45824379058E+02  0.00000000000E+00 0. -1.
        -12    1    6    6    0    0  0.17392575950E+02  0.39896088753E+02 -0.92182117712E+01  0.44487919980E+02  0.00000000000E+00 0.  1.
</event>
<event>
12    1  0.8728348E-002  0.1793716E+03  0.7818608E-02  0.1168796E+00
         21   -1    0    0  503  502  0.00000000000E+00  0.00000000000E+00  0.32370716970E+02  0.32370716970E+02  0.00000000000E+00 0. -1.
         21   -1    0    0  501  503 -0.00000000000E+00 -0.00000000000E+00 -0.16826802068E+04  0.16826802068E+04  0.00000000000E+00 0. -1.
          6    2    1    2  501    0  0.30552778642E+02  0.40293898176E+02 -0.13793497727E+04  0.13909636875E+04  0.17209623435E+03 0.  0.
         24    2    3    3    0    0  0.13210890462E+02 -0.26128482697E+02 -0.44199084506E+03  0.45108256573E+03  0.85219415345E+02 0.  0.
         -6    2    1    2    0  502 -0.30552778642E+02 -0.40293898176E+02 -0.27095971716E+03  0.32408723633E+03  0.17045907990E+03 0.  0.
        -24    2    5    5    0    0 -0.59879111792E+02 -0.74469248351E+02 -0.15061164599E+03  0.19550365803E+03  0.80041460612E+02 0.  0.
          5    1    3    3  501    0  0.17341888180E+02  0.66422380874E+02 -0.93735892766E+03  0.93988112175E+03  0.47000000000E+01 0. -1.
        -13    1    4    4    0    0  0.25523373194E+02 -0.52891786945E+02 -0.33505783555E+03  0.34016574912E+03  0.00000000000E+00 0.  1.
         14    1    4    4    0    0 -0.12312482733E+02  0.26763304248E+02 -0.10693300951E+03  0.11091681662E+03  0.00000000000E+00 0. -1.
         -5    1    5    5    0  502  0.29326333151E+02  0.34175350174E+02 -0.12034807116E+03  0.12858357830E+03  0.47000000000E+01 0.  1.
         11    1    6    6    0    0 -0.30291113266E+02 -0.24656674189E+02 -0.12711984753E+03  0.13298480651E+03  0.00000000000E+00 0. -1.
        -12    1    6    6    0    0 -0.29587998526E+02 -0.49812574161E+02 -0.23491798461E+02  0.62518851527E+02  0.00000000000E+00 0.  1.
</event>
<event>
12    1  0.8728348E-002  0.1841558E+03  0.7818608E-02  0.1163950E+00
         21   -1    0    0  501  502  0.00000000000E+00  0.00000000000E+00  0.15861875631E+03  0.15861875631E+03  0.00000000000E+00 0.  1.
         21   -1    0    0  502  503 -0.00000000000E+00 -0.00000000000E+00 -0.24211545974E+03  0.24211545974E+03  0.00000000000E+00 0.  1.
         -6    2    1    2    0  503 -0.30477566667E+02 -0.58468918193E+02 -0.11096201217E+03  0.21500219628E+03  0.17194731692E+03 0.  0.
        -24    2    3    3    0    0 -0.43724680008E+02 -0.73492775125E+02 -0.13776353465E+03  0.18121441896E+03  0.80912536241E+02 0.  0.
          6    2    1    2  501    0  0.30477566667E+02  0.58468918193E+02  0.27465308740E+02  0.18573201977E+03  0.17144836984E+03 0.  0.
         24    2    5    5    0    0  0.27882896191E+01  0.64485311025E+02  0.78849410618E+02  0.12686514477E+03  0.75573841420E+02 0.  0.
          5    1    5    5  501    0  0.27689277048E+02 -0.60163928319E+01 -0.51384101878E+02  0.58866874997E+02  0.47000000000E+01 0. -1.
        -13    1    6    6    0    0  0.36404413275E+02  0.14582703262E+02  0.30985350242E+02  0.49980280811E+02  0.00000000000E+00 0.  1.
         14    1    6    6    0    0 -0.33616123655E+02  0.49902607763E+02  0.47864060375E+02  0.76884863964E+02  0.00000000000E+00 0. -1.
         -5    1    3    3    0  503  0.13247113341E+02  0.15023856932E+02  0.26801522481E+02  0.33787777321E+02  0.47000000000E+01 0.  1.
         11    1    4    4    0    0  0.23967822216E+02 -0.19475256898E+02 -0.31234531772E+02  0.43924231445E+02  0.00000000000E+00 0. -1.
        -12    1    4    4    0    0 -0.67692502223E+02 -0.54017518227E+02 -0.10652900288E+03  0.13729018751E+03  0.00000000000E+00 0.  1.
</event>
<event>
12    1  0.8728348E-002  0.1884593E+03  0.7818608E-02  0.1160195E+00
         21   -1    0    0  503  502  0.00000000000E+00  0.00000000000E+00  0.34793768533E+03  0.34793768533E+03  0.00000000000E+00 0.  1.
         21   -1    0    0  501  503 -0.00000000000E+00 -0.00000000000E+00 -0.11242400838E+03  0.11242400838E+03  0.00000000000E+00 0.  1.
          6    2    1    2  501    0  0.20120809272E+01 -0.75709833902E+02  0.45712473708E+02  0.19392409912E+03  0.17257143028E+03 0.  0.
         24    2    3    3    0    0  0.49437843883E+02 -0.69269312670E+02 -0.13158928828E+02  0.11790689487E+03  0.80539061109E+02 0.  0.
         -6    2    1    2    0  502 -0.20120809272E+01  0.75709833902E+02  0.18980120324E+03  0.26643759459E+03  0.17096335174E+03 0.  0.
        -24    2    5    5    0    0 -0.28841438766E+02  0.14842747402E+02  0.17977070248E+03  0.19900379293E+03  0.78948517338E+02 0.  0.
          5    1    3    3  501    0 -0.47425762956E+02 -0.64405212327E+01  0.58871402536E+02  0.76017204252E+02  0.47000000000E+01 0. -1.
        -11    1    4    4    0    0 -0.11569701568E+02 -0.50367692841E+02  0.38188018948E+01  0.51820321539E+02  0.00000000000E+00 0.  1.
         12    1    4    4    0    0  0.61007545451E+02 -0.18901619829E+02 -0.16977730723E+02  0.66086573331E+02  0.00000000000E+00 0. -1.
         -5    1    5    5    0  502  0.26829357839E+02  0.60867086500E+02  0.10030500769E+02  0.67433801663E+02  0.47000000000E+01 0.  1.
         11    1    6    6    0    0 -0.53113034824E+02  0.13125319873E+02  0.84426365830E+02  0.10060357716E+03  0.00000000000E+00 0. -1.
        -12    1    6    6    0    0  0.24271596058E+02  0.17174275291E+01  0.95344336645E+02  0.98400215766E+02  0.00000000000E+00 0.  1.
</event>
<event>
12    1  0.8728348E-002  0.2023715E+03  0.7818608E-02  0.1148059E+00
         21   -1    0    0  501  502  0.00000000000E+00  0.00000000000E+00  0.73355438347E+03  0.73355438347E+03  0.00000000000E+00 0. -1.
         21   -1    0    0  502  503 -0.00000000000E+00 -0.00000000000E+00 -0.18744484165E+03  0.18744484165E+03  0.00000000000E+00 0. -1.
         -6    2    1    2    0  503 -0.94237614708E+01  0.10150496990E+03 -0.11370203986E+03  0.23085028741E+03  0.17312317908E+03 0.  0.
        -24    2    3    3    0    0 -0.48650038485E+02  0.11388405809E+03 -0.11748946033E+03  0.18927653143E+03  0.81764461295E+02 0.  0.
          6    2    1    2  501    0  0.94237614708E+01 -0.10150496990E+03  0.65981158169E+03  0.69014893770E+03  0.17482038408E+03 0.  0.
         24    2    5    5    0    0  0.23545148610E+02 -0.49331509170E+02  0.15175033441E+03  0.17919903354E+03  0.78077895770E+02 0.  0.
          5    1    5    5  501    0 -0.14121387140E+02 -0.52173460727E+02  0.50806124728E+03  0.51094990416E+03  0.47000000000E+01 0. -1.
        -11    1    6    6    0    0 -0.42152834810E+00  0.18983788382E+02  0.56184816906E+02  0.59306791839E+02  0.00000000000E+00 0.  1.
         12    1    6    6    0    0  0.23966676958E+02 -0.68315297552E+02  0.95565517502E+02  0.11989224170E+03  0.00000000000E+00 0. -1.
         -5    1    3    3    0  503  0.39226277015E+02 -0.12379088189E+02  0.37874204636E+01  0.41573755984E+02  0.47000000000E+01 0.  1.
         11    1    4    4    0    0 -0.40086131186E+02  0.33793073702E+02 -0.90017404151E+02  0.10417294655E+03  0.00000000000E+00 0. -1.
        -12    1    4    4    0    0 -0.85639072994E+01  0.80090984384E+02 -0.27472056175E+02  0.85103584874E+02  0.00000000000E+00 0.  1.
</event>
<event>
12    1  0.8728348E-002  0.1831676E+03  0.7818608E-02  0.1165315E+00
         21   -1    0    0  503  502  0.00000000000E+00  0.00000000000E+00  0.23938580878E+02  0.23938580878E+02  0.00000000000E+00 0.  1.
         21   -1    0    0  501  503 -0.00000000000E+00 -0.00000000000E+00 -0.14645682432E+04  0.14645682432E+04  0.00000000000E+00 0.  1.
          6    2    1    2  501    0 -0.53036228633E+02 -0.18206423679E+02 -0.89901314097E+03  0.91748296902E+03  0.17437332188E+03 0.  0.
         24    2    3    3    0    0 -0.90270540224E+02 -0.29506814525E+02 -0.45451963972E+03  0.47126479878E+03  0.80516986677E+02 0.  0.
         -6    2    1    2    0  502  0.53036228633E+02  0.18206423679E+02 -0.54161652137E+03  0.57102385508E+03  0.17197520588E+03 0.  0.
        -24    2    5    5    0    0 -0.19442843088E+02 -0.35894827847E+02 -0.27264469041E+03  0.28721388854E+03  0.80561949774E+02 0.  0.
          5    1    3    3  501    0  0.37234311591E+02  0.11300390846E+02 -0.44449350125E+03  0.44621817023E+03  0.47000000000E+01 0. -1.
        -13    1    4    4    0    0 -0.89279566275E+02  0.55366823317E+01 -0.32678045344E+03  0.33880224402E+03  0.00000000000E+00 0.  1.
         14    1    4    4    0    0 -0.99097394897E+00 -0.35043496856E+02 -0.12773918628E+03  0.13246255476E+03  0.00000000000E+00 0. -1.
         -5    1    5    5    0  502  0.72479071721E+02  0.54101251525E+02 -0.26897183096E+03  0.28380996653E+03  0.47000000000E+01 0.  1.
         11    1    6    6    0    0 -0.42682785093E+02 -0.16215252572E+02 -0.23186727087E+03  0.23632009195E+03  0.00000000000E+00 0. -1.
        -12    1    6    6    0    0  0.23239942006E+02 -0.19679575275E+02 -0.40777419539E+02  0.50893796594E+02  0.00000000000E+00 0.  1.
</event>
<event>
12    1  0.8728348E-002  0.1798974E+03  0.7818608E-02  0.1169355E+00
         21   -1    0    0  503  502  0.00000000000E+00  0.00000000000E+00  0.11199120834E+03  0.11199120834E+03  0.00000000000E+00 0.  1.
         21   -1    0    0  501  503 -0.00000000000E+00 -0.00000000000E+00 -0.44271423534E+03  0.44271423534E+03  0.00000000000E+00 0.  1.
          6    2    1    2  501    0  0.18040503893E+02  0.11753344746E+02 -0.33196464188E+03  0.37480371161E+03  0.17266643531E+03 0.  0.
         24    2    3    3    0    0  0.56269004170E+02  0.53793302632E+02 -0.18908929471E+03  0.22097188421E+03  0.83748982071E+02 0.  0.
         -6    2    1    2    0  502 -0.18040503893E+02 -0.11753344746E+02  0.12416148770E+01  0.17990173207E+03  0.17860428523E+03 0.  0.
        -24    2    5    5    0    0 -0.26557187676E+02  0.18978022700E+02 -0.64092349227E+02  0.10704867645E+03  0.79285183595E+02 0.  0.
          5    1    3    3  501    0 -0.38228500276E+02 -0.42039957886E+02 -0.14287534717E+03  0.15383182740E+03  0.47000000000E+01 0. -1.
        -13    1    4    4    0    0  0.45041967904E+02  0.54048458636E+01 -0.15296858746E+03  0.15955368997E+03  0.00000000000E+00 0.  1.
         14    1    4    4    0    0  0.11227036266E+02  0.48388456769E+02 -0.36120707246E+02  0.61418194240E+02  0.00000000000E+00 0. -1.
         -5    1    5    5    0  502  0.85166837822E+01 -0.30731367446E+02  0.65333964104E+02  0.72853055621E+02  0.47000000000E+01 0.  1.
         11    1    6    6    0    0 -0.51754319739E+02  0.27818335869E+02 -0.48007333033E+02  0.75875381035E+02  0.00000000000E+00 0. -1.
        -12    1    6    6    0    0  0.25197132064E+02 -0.88403131691E+01 -0.16085016194E+02  0.31173295416E+02  0.00000000000E+00 0.  1.
</event>
<event>
12    1  0.8728348E-002  0.1800502E+03  0.7818608E-02  0.1167773E+00
         21   -1    0    0  503  502  0.00000000000E+00  0.00000000000E+00  0.81148789845E+03  0.81148789845E+03  0.00000000000E+00 0. -1.
         21   -1    0    0  501  503 -0.00000000000E+00 -0.00000000000E+00 -0.52499284841E+02  0.52499284841E+02  0.00000000000E+00 0. -1.
          6    2    1    2  501    0 -0.49428805665E+02 -0.18745779078E+02  0.16807427450E+03  0.24625112747E+03  0.17203501088E+03 0.  0.
         24    2    3    3    0    0 -0.79819631179E+02 -0.62656089644E+02  0.98372276867E+02  0.15831833425E+03  0.71348658104E+02 0.  0.
         -6    2    1    2    0  502  0.49428805665E+02  0.18745779078E+02  0.59091433911E+03  0.61773605582E+03  0.17211469266E+03 0.  0.
        -24    2    5    5    0    0  0.93652473833E+02  0.61795411246E+01  0.50901831768E+03  0.52370046953E+03  0.79709230768E+02 0.  0.
          5    1    3    3  501    0  0.30390825514E+02  0.43910310565E+02  0.69701997628E+02  0.87932793216E+02  0.47000000000E+01 0. -1.
        -13    1    4    4    0    0 -0.93333497886E+02 -0.56076305711E+02  0.88750405868E+02  0.14047180654E+03  0.00000000000E+00 0.  1.
         14    1    4    4    0    0  0.13513866707E+02 -0.65797839330E+01  0.96218709983E+01  0.17846527715E+02  0.00000000000E+00 0. -1.
         -5    1    5    5    0  502 -0.44223668168E+02  0.12566237954E+02  0.81896021429E+02  0.94035586287E+02  0.47000000000E+01 0.  1.
         11    1    6    6    0    0  0.50816737943E+02  0.41409325236E+01  0.43637528230E+03  0.43934368685E+03  0.00000000000E+00 0. -1.
        -12    1    6    6    0    0  0.42835735890E+02  0.20386086010E+01  0.72643035386E+02  0.84356782682E+02  0.00000000000E+00 0.  1.
</event>
<event>
12    1  0.8728348E-002  0.1779710E+03  0.7818608E-02  0.1169847E+00
         21   -1    0    0  501  502  0.00000000000E+00  0.00000000000E+00  0.51699641626E+02  0.51699641626E+02  0.00000000000E+00 0. -1.
         21   -1    0    0  502  503 -0.00000000000E+00 -0.00000000000E+00 -0.62017529000E+03  0.62017529000E+03  0.00000000000E+00 0. -1.
         -6    2    1    2    0  503 -0.40285826545E+02 -0.28988566599E+02 -0.24483776115E+03  0.30253071481E+03  0.17063416805E+03 0.  0.
        -24    2    3    3    0    0  0.10172105138E+02 -0.31491824228E+02 -0.23870580632E+03  0.25142337641E+03  0.71680161271E+02 0.  0.
          6    2    1    2  501    0  0.40285826545E+02  0.28988566599E+02 -0.32363788723E+03  0.36934421682E+03  0.17091045502E+03 0.  0.
         24    2    5    5    0    0 -0.42543795851E+02  0.20743517710E+02 -0.14752959773E+03  0.17449826020E+03  0.80276973763E+02 0.  0.
          5    1    5    5  501    0  0.82829622396E+02  0.82450488887E+01 -0.17610828950E+03  0.19484595661E+03  0.47000000000E+01 0. -1.
        -11    1    6    6    0    0  0.14390443659E+02  0.31606446368E+02 -0.46715903280E+02  0.58210204775E+02  0.00000000000E+00 0.  1.
         12    1    6    6    0    0 -0.56934239510E+02 -0.10862928657E+02 -0.10081369444E+03  0.11628805543E+03  0.00000000000E+00 0. -1.
         -5    1    3    3    0  503 -0.50457931682E+02  0.25032576289E+01 -0.61319548316E+01  0.51107338401E+02  0.47000000000E+01 0.  1.
         11    1    4    4    0    0 -0.85825563804E+01  0.18942117581E+02 -0.34825462464E+02  0.40562013367E+02  0.00000000000E+00 0. -1.
        -12    1    4    4    0    0  0.18754661518E+02 -0.50433941809E+02 -0.20388034385E+03  0.21086136304E+03  0.00000000000E+00 0.  1.
</event>
<event>
12    1  0.8728348E-002  0.2640300E+03  0.7818608E-02  0.1104772E+00
         21   -1    0    0  501  502  0.00000000000E+00  0.00000000000E+00  0.23543255254E+03  0.23543255254E+03  0.00000000000E+00 0.  1.
         21   -1    0    0  502  503 -0.00000000000E+00 -0.00000000000E+00 -0.50302097416E+03  0.50302097416E+03  0.00000000000E+00 0. -1.
         -6    2    1    2    0  503 -0.67802326788E+02 -0.18840114543E+03 -0.37069158425E+03  0.45500672924E+03  0.17183342487E+03 0.  0.
        -24    2    3    3    0    0 -0.50287407021E+01 -0.17893761240E+02 -0.10241707805E+03  0.13095952304E+03  0.79471151196E+02 0.  0.
          6    2    1    2  501    0  0.67802326788E+02  0.18840114543E+03  0.10310316263E+03  0.28344679746E+03  0.17210368307E+03 0.  0.
         24    2    5    5    0    0  0.23661480801E+02  0.96951151835E+02  0.12540109343E+03  0.17937565193E+03  0.80565493589E+02 0.  0.
          5    1    5    5  501    0  0.44140845987E+02  0.91449993595E+02 -0.22297930800E+02  0.10407114553E+03  0.47000000000E+01 0. -1.
        -13    1    6    6    0    0  0.92546615513E+01  0.99844273597E+02  0.70585865797E+02  0.12262500634E+03  0.00000000000E+00 0.  1.
         14    1    6    6    0    0  0.14406819249E+02 -0.28931217623E+01  0.54815227630E+02  0.56750645587E+02  0.00000000000E+00 0. -1.
         -5    1    3    3    0  503 -0.62773586086E+02 -0.17050738419E+03 -0.26827450620E+03  0.32404720620E+03  0.47000000000E+01 0.  1.
         11    1    4    4    0    0 -0.33022641187E+02 -0.20690443868E+02 -0.93741854508E+02  0.10151908483E+03  0.00000000000E+00 0. -1.
        -12    1    4    4    0    0  0.27993900485E+02  0.27966826274E+01 -0.86752235461E+01  0.29440438205E+02  0.00000000000E+00 0.  1.
</event>
<event>
12    1  0.8728348E-002  0.1700160E+03  0.7818608E-02  0.1178046E+00
         21   -1    0    0  501  502  0.00000000000E+00  0.00000000000E+00  0.32260983251E+03  0.32260983251E+03  0.00000000000E+00 0. -1.
         21   -1    0    0  502  503 -0.00000000000E+00 -0.00000000000E+00 -0.14229120858E+03  0.14229120858E+03  0.00000000000E+00 0. -1.
         -6    2    1    2    0  503  0.36136766499E+01  0.11909596471E+02 -0.51737240997E+02  0.17771380755E+03  0.16955989543E+03 0.  0.
        -24    2    3    3    0    0 -0.97780402229E+01  0.54618518772E+01 -0.10023420262E+03  0.12677308927E+03  0.76805461337E+02 0.  0.
          6    2    1    2  501    0 -0.36136766499E+01 -0.11909596471E+02  0.23205586493E+03  0.28718723354E+03  0.16873554905E+03 0.  0.
         24    2    5    5    0    0  0.89062503277E+01  0.56344563810E+02  0.15468934420E+03  0.18315335686E+03  0.79764200962E+02 0.  0.
          5    1    5    5  501    0 -0.12519926978E+02 -0.68254160281E+02  0.77366520727E+02  0.10403387668E+03  0.47000000000E+01 0. -1.
        -11    1    6    6    0    0  0.36586048801E+02  0.13457813452E+02  0.10464395120E+03  0.11166919106E+03  0.00000000000E+00 0.  1.
         12    1    6    6    0    0 -0.27679798473E+02  0.42886750358E+02  0.50045393007E+02  0.71484165806E+02  0.00000000000E+00 0. -1.
         -5    1    3    3    0  503  0.13391716873E+02  0.64477445941E+01  0.48496961628E+02  0.50940718274E+02  0.47000000000E+01 0.  1.
         13    1    4    4    0    0  0.27190772719E+02  0.23992525844E+02 -0.47288904711E+02  0.59592112953E+02  0.00000000000E+00 0. -1.
        -14    1    4    4    0    0 -0.36968812942E+02 -0.18530673966E+02 -0.52945297914E+02  0.67180976319E+02  0.00000000000E+00 0.  1.
</event>
<event>
12    1  0.8728348E-002  0.2229546E+03  0.7818608E-02  0.1134771E+00
         21   -1    0    0  503  502  0.00000000000E+00  0.00000000000E+00  0.67866061495E+03  0.67866061495E+03  0.00000000000E+00 0.  1.
         21   -1    0    0  501  503 -0.00000000000E+00 -0.00000000000E+00 -0.29444090608E+03  0.29444090608E+03  0.00000000000E+00 0.  1.
          6    2    1    2  501    0  0.11512378127E+03  0.49412228824E+02 -0.23612294171E+03  0.31390977093E+03  0.16459115198E+03 0.  0.
         24    2    3    3    0    0  0.10145914483E+03 -0.72433583437E+00 -0.22827980389E+03  0.26114612610E+03  0.76099589884E+02 0.  0.
         -6    2    1    2    0  502 -0.11512378127E+03 -0.49412228824E+02  0.62034265058E+03  0.65919175011E+03  0.18442805076E+03 0.  0.
        -24    2    5    5    0    0 -0.36023725398E+02  0.38761726043E+02  0.18543196987E+03  0.20841369457E+03  0.79063723900E+02 0.  0.
          5    1    3    3  501    0  0.13664636439E+02  0.50136564659E+02 -0.78431378250E+01  0.52763644830E+02  0.47000000000E+01 0. -1.
        -13    1    4    4    0    0  0.56722410280E+02  0.50830363562E+01 -0.19988990147E+03  0.20784427295E+03  0.00000000000E+00 0.  1.
         14    1    4    4    0    0  0.44736734554E+02 -0.58073721906E+01 -0.28389902418E+02  0.53301853154E+02  0.00000000000E+00 0. -1.
         -5    1    5    5    0  502 -0.79100055874E+02 -0.88173954867E+02  0.43491068071E+03  0.45077805554E+03  0.47000000000E+01 0.  1.
         13    1    6    6    0    0  0.79957658997E+01  0.18192829416E+02  0.14156490968E+03  0.14295291171E+03  0.00000000000E+00 0. -1.
        -14    1    6    6    0    0 -0.44019491298E+02  0.20568896627E+02  0.43867060191E+02  0.65460782858E+02  0.00000000000E+00 0.  1.
</event>
<event>
12    1  0.8728348E-002  0.1777230E+03  0.7818608E-02  0.1170037E+00
         21   -1    0    0  501  502  0.00000000000E+00  0.00000000000E+00  0.20840764992E+03  0.20840764992E+03  0.00000000000E+00 0.  1.
         21   -1    0    0  502  503 -0.00000000000E+00 -0.00000000000E+00 -0.68710392493E+03  0.68710392493E+03  0.00000000000E+00 0.  1.
         -6    2    1    2    0  503  0.33158925289E+02  0.12339465878E+02 -0.63467337191E+03  0.65908706332E+03  0.17416570061E+03 0.  0.
        -24    2    3    3    0    0 -0.19010239262E+01 -0.91035845081E+01 -0.59937527478E+03  0.60470829807E+03  0.79592189241E+02 0.  0.
          6    2    1    2  501    0 -0.33158925289E+02 -0.12339465878E+02  0.15597709690E+03  0.23642451154E+03  0.17411466955E+03 0.  0.
         24    2    5    5    0    0 -0.81915303924E+02  0.37166619667E+01  0.63005656230E+02  0.13011946706E+03  0.78977417019E+02 0.  0.
          5    1    5    5  501    0  0.48756378635E+02 -0.16056127844E+02  0.92971440673E+02  0.10630504447E+03  0.47000000000E+01 0. -1.
        -13    1    6    6    0    0 -0.51388723383E+02  0.26496791251E+01 -0.86924123254E+01  0.52186010793E+02  0.00000000000E+00 0.  1.
         14    1    6    6    0    0 -0.30526580541E+02  0.10669828416E+01  0.71698068555E+02  0.77933456272E+02  0.00000000000E+00 0. -1.
         -5    1    3    3    0  503  0.35059949215E+02  0.21443050386E+02 -0.35298097130E+02  0.54378765247E+02  0.47000000000E+01 0.  1.
         11    1    4    4    0    0 -0.39378863886E+02 -0.89558372171E+01 -0.38167497788E+03  0.38380553758E+03  0.00000000000E+00 0. -1.
        -12    1    4    4    0    0  0.37477839960E+02 -0.14774729096E+00 -0.21770029691E+03  0.22090276049E+03  0.00000000000E+00 0.  1.
</event>
<event>
12    1  0.8728348E-002  0.2026685E+03  0.7818608E-02  0.1147768E+00
         21   -1    0    0  501  502  0.00000000000E+00  0.00000000000E+00  0.29295157249E+03  0.29295157249E+03  0.00000000000E+00 0.  1.
         21   -1    0    0  502  503 -0.00000000000E+00 -0.00000000000E+00 -0.45875818790E+03  0.45875818790E+03  0.00000000000E+00 0.  1.
         -6    2    1    2    0  503  0.65485343799E+02 -0.83503826745E+02 -0.39644634415E+03  0.44467684225E+03  0.17119162043E+03 0.  0.
        -24    2    3    3    0    0  0.13781609465E+02 -0.16486320557E+02 -0.73875888295E+02  0.11115261333E+03  0.80221724332E+02 0.  0.
          6    2    1    2  501    0 -0.65485343799E+02  0.83503826745E+02  0.23063972874E+03  0.30703291814E+03  0.17266530924E+03 0.  0.
         24    2    5    5    0    0 -0.97074223615E+02  0.23030151558E+02  0.18446726669E+03  0.22451680474E+03  0.80161277189E+02 0.  0.
          5    1    5    5  501    0  0.31588879815E+02  0.60473675187E+02  0.46172462053E+02  0.82516113400E+02  0.47000000000E+01 0. -1.
        -13    1    6    6    0    0  0.15924984154E+01  0.28362764761E+02  0.52032188292E+02  0.59281793955E+02  0.00000000000E+00 0.  1.
         14    1    6    6    0    0 -0.98666722030E+02 -0.53326132027E+01  0.13243507840E+03  0.16523501079E+03  0.00000000000E+00 0. -1.
         -5    1    3    3    0  503  0.51703734335E+02 -0.67017506188E+02 -0.32257045586E+03  0.33352422891E+03  0.47000000000E+01 0.  1.
         11    1    4    4    0    0  0.42113505342E+02  0.91526510738E+01 -0.27760372903E+02  0.51263599733E+02  0.00000000000E+00 0. -1.
        -12    1    4    4    0    0 -0.28331895878E+02 -0.25638971631E+02 -0.46115515392E+02  0.59889013601E+02  0.00000000000E+00 0.  1.
</event>
<event>
12    1  0.8728348E-002  0.2499697E+03  0.7818608E-02  0.1113380E+00
         21   -1    0    0  503  502  0.00000000000E+00  0.00000000000E+00  0.21635626992E+03  0.21635626992E+03  0.00000000000E+00 0. -1.
         21   -1    0    0  501  503 -0.00000000000E+00 -0.00000000000E+00 -0.45296017745E+03  0.45296017745E+03  0.00000000000E+00 0.  1.
          6    2    1    2  501    0  0.17103664036E+03  0.60323463328E+02 -0.31996536313E+03  0.40581316714E+03  0.17150521988E+03 0.  0.
         24    2    3    3    0    0  0.88772342128E+02  0.49703930431E+02 -0.79098469096E+02  0.15102082054E+03  0.78738243545E+02 0.  0.
         -6    2    1    2    0  502 -0.17103664036E+03 -0.60323463328E+02  0.83361455602E+02  0.26350328023E+03  0.17202439896E+03 0.  0.
        -24    2    5    5    0    0 -0.12228027265E+03  0.27537169257E+02  0.71123405537E+02  0.16216950491E+03  0.74361607955E+02 0.  0.
          5    1    3    3  501    0  0.82264298233E+02  0.10619532897E+02 -0.24086689403E+03  0.25479234660E+03  0.47000000000E+01 0. -1.
        -11    1    4    4    0    0  0.91380941116E+02  0.15110069132E+02 -0.66863487834E+02  0.11423448076E+03  0.00000000000E+00 0.  1.
         12    1    4    4    0    0 -0.26085989885E+01  0.34593861299E+02 -0.12234981263E+02  0.36786339785E+02  0.00000000000E+00 0. -1.
         -5    1    5    5    0  502 -0.48756367713E+02 -0.87860632585E+02  0.12238050065E+02  0.10133377532E+03  0.47000000000E+01 0.  1.
         11    1    6    6    0    0 -0.34233177144E+02  0.39095230117E+02  0.47199835800E+02  0.70200939700E+02  0.00000000000E+00 0. -1.
        -12    1    6    6    0    0 -0.88047095504E+02 -0.11558060860E+02  0.23923569737E+02  0.91968565208E+02  0.00000000000E+00 0.  1.
</event>
<event>
12    1  0.8728348E-002  0.1915529E+03  0.7818608E-02  0.1158783E+00
         21   -1    0    0  503  502  0.00000000000E+00  0.00000000000E+00  0.36749472253E+03  0.36749472253E+03  0.00000000000E+00 0.  1.
         21   -1    0    0  501  503 -0.00000000000E+00 -0.00000000000E+00 -0.14382330968E+03  0.14382330968E+03  0.00000000000E+00 0.  1.
          6    2    1    2  501    0  0.64457804771E+02  0.10452165621E+02 -0.34131247840E+02  0.19456994501E+03  0.18007905225E+03 0.  0.
         24    2    3    3    0    0  0.21729451955E+02 -0.62843573244E+02 -0.77905266741E+01  0.10560983562E+03  0.81677789477E+02 0.  0.
         -6    2    1    2    0  502 -0.64457804771E+02 -0.10452165621E+02  0.25780266069E+03  0.31674808720E+03  0.17205546352E+03 0.  0.
        -24    2    5    5    0    0 -0.16713803433E+02  0.30179917765E+02  0.48684080123E+02  0.98383422934E+02  0.78223906763E+02 0.  0.
          5    1    3    3  501    0  0.42728352816E+02  0.73295738866E+02 -0.26340721166E+02  0.88960109385E+02  0.47000000000E+01 0. -1.
        -13    1    4    4    0    0 -0.25511618497E+02 -0.10372578769E+02 -0.19897095956E+02  0.33975395452E+02  0.00000000000E+00 0.  1.
         14    1    4    4    0    0  0.47241070452E+02 -0.52470994475E+02  0.12106569281E+02  0.71634440170E+02  0.00000000000E+00 0. -1.
         -5    1    5    5    0  502 -0.47744001338E+02 -0.40632083386E+02  0.20911858056E+03  0.21836466427E+03  0.47000000000E+01 0.  1.
         11    1    6    6    0    0  0.27145288973E+02  0.28356785847E+02  0.11639854823E+02  0.40944599611E+02  0.00000000000E+00 0. -1.
        -12    1    6    6    0    0 -0.43859092406E+02  0.18231319186E+01  0.37044225299E+02  0.57438823323E+02  0.00000000000E+00 0.  1.
</event>
<event>
12    1  0.8728348E-002  0.2265885E+03  0.7818608E-02  0.1129303E+00
         21   -1    0    0  503  502  0.00000000000E+00  0.00000000000E+00  0.36792500671E+03  0.36792500671E+03  0.00000000000E+00 0. -1.
         21   -1    0    0  501  503 -0.00000000000E+00 -0.00000000000E+00 -0.13915204980E+03  0.13915204980E+03  0.00000000000E+00 0. -1.
          6    2    1    2  501    0  0.84497827590E+02  0.12096054830E+03  0.10075122651E+03  0.24797814975E+03  0.17196225167E+03 0.  0.
         24    2    3    3    0    0  0.57880158218E+02  0.11652296757E+03  0.10435846968E+02  0.15360044991E+03  0.80972073115E+02 0.  0.
         -6    2    1    2    0  502 -0.84497827590E+02 -0.12096054830E+03  0.12802173041E+03  0.25909890676E+03  0.17020970277E+03 0.  0.
        -24    2    5    5    0    0 -0.68164073470E+02 -0.13324848545E+03  0.15173850281E+03  0.22743883386E+03  0.79387342360E+02 0.  0.
          5    1    3    3  501    0  0.26617669372E+02  0.44375807282E+01  0.90315379542E+02  0.94377699842E+02  0.47000000000E+01 0. -1.
        -11    1    4    4    0    0  0.79817248900E+01 -0.11962772622E+02  0.63083000928E+01  0.15703837464E+02  0.00000000000E+00 0.  1.
         12    1    4    4    0    0  0.49898433328E+02  0.12848574019E+03  0.41275468749E+01  0.13789661245E+03  0.00000000000E+00 0. -1.
         -5    1    5    5    0  502 -0.16333754121E+02  0.12287937150E+02 -0.23716772399E+02  0.31660072901E+02  0.47000000000E+01 0.  1.
         11    1    6    6    0    0 -0.12449180535E+02 -0.54257860810E+02  0.11066573952E+02  0.56757084269E+02  0.00000000000E+00 0. -1.
        -12    1    6    6    0    0 -0.55714892935E+02 -0.78990624637E+02  0.14067192886E+03  0.17068174959E+03  0.00000000000E+00 0.  1.
</event>
<event>
12    1  0.8728348E-002  0.3370684E+03  0.7818608E-02  0.1068071E+00
         21   -1    0    0  503  502  0.00000000000E+00  0.00000000000E+00  0.19139864669E+04  0.19139864669E+04  0.00000000000E+00 0.  1.
         21   -1    0    0  501  503 -0.00000000000E+00 -0.00000000000E+00 -0.61866893638E+02  0.61866893638E+02  0.00000000000E+00 0.  1.
          6    2    1    2  501    0 -0.39836178208E+02 -0.28718610053E+03  0.11263877453E+04  0.11757399755E+04  0.17190799767E+03 0.  0.
         24    2    3    3    0    0 -0.68753143961E+02 -0.24652746444E+03  0.10546768135E+04  0.10882536145E+04  0.80311662989E+02 0.  0.
         -6    2    1    2    0  502  0.39836178208E+02  0.28718610053E+03  0.72573182798E+03  0.80011338511E+03  0.17155746985E+03 0.  0.
        -24    2    5    5    0    0 -0.44028160675E+02  0.13438779426E+03  0.32990887015E+03  0.36758771688E+03  0.79261017019E+02 0.  0.
          5    1    3    3  501    0  0.28916965753E+02 -0.40658636092E+02  0.71710931872E+02  0.87486360920E+02  0.47000000000E+01 0. -1.
        -13    1    4    4    0    0 -0.28786648134E+02 -0.83728624153E+02  0.22464231330E+03  0.24146080953E+03  0.00000000000E+00 0.  1.
         14    1    4    4    0    0 -0.39966495827E+02 -0.16279884029E+03  0.83003450015E+03  0.84679280502E+03  0.00000000000E+00 0. -1.
         -5    1    5    5    0  502  0.83864338882E+02  0.15279830626E+03  0.39582295784E+03  0.43252566824E+03  0.47000000000E+01 0.  1.
         13    1    6    6    0    0  0.99840223496E-01 -0.25518005029E+01 -0.35740946211E+01  0.43926991972E+01  0.00000000000E+00 0. -1.
        -14    1    6    6    0    0 -0.44128000898E+02  0.13693959477E+03  0.33348296477E+03  0.36319501768E+03  0.00000000000E+00 0.  1.
</event>
<event>
12    1  0.8728348E-002  0.2194130E+03  0.7818608E-02  0.1134397E+00
         21   -1    0    0  501  502  0.00000000000E+00  0.00000000000E+00  0.40011139908E+03  0.40011139908E+03  0.00000000000E+00 0.  1.
         21   -1    0    0  502  503 -0.00000000000E+00 -0.00000000000E+00 -0.12338758065E+03  0.12338758065E+03  0.00000000000E+00 0.  1.
         -6    2    1    2    0  503 -0.13295343810E+03 -0.34302189693E+02  0.95511625149E+02  0.23892929920E+03  0.17062087374E+03 0.  0.
        -24    2    3    3    0    0 -0.39866475726E+02 -0.14139868925E+02 -0.18130419866E+02  0.90577332114E+02  0.78014544723E+02 0.  0.
          6    2    1    2  501    0  0.13295343810E+03  0.34302189693E+02  0.18121219327E+03  0.28456968053E+03  0.17113967151E+03 0.  0.
         24    2    5    5    0    0  0.12669838711E+03  0.76117545563E+02  0.10298895725E+03  0.19552691382E+03  0.76011095738E+02 0.  0.
          5    1    5    5  501    0  0.62550509980E+01 -0.41815355870E+02  0.78223236020E+02  0.89042766707E+02  0.47000000000E+01 0. -1.
        -11    1    6    6    0    0  0.12732596516E+03  0.48020752724E+02  0.72987894338E+02  0.15441867380E+03  0.00000000000E+00 0.  1.
         12    1    6    6    0    0 -0.62757805728E+00  0.28096792839E+02  0.30001062916E+02  0.41108240028E+02  0.00000000000E+00 0. -1.
         -5    1    3    3    0  503 -0.93086962378E+02 -0.20162320768E+02  0.11364204501E+03  0.14835196709E+03  0.47000000000E+01 0.  1.
         13    1    4    4    0    0  0.11148535909E+02 -0.32111314686E+02 -0.16386277422E+01  0.34031037078E+02  0.00000000000E+00 0. -1.
        -14    1    4    4    0    0 -0.51015011635E+02  0.17971445761E+02 -0.16491792124E+02  0.56546295036E+02  0.00000000000E+00 0.  1.
</event>
<event>
12    1  0.8728348E-002  0.3109468E+03  0.7818608E-02  0.1081249E+00
         21   -1    0    0  503  502  0.00000000000E+00  0.00000000000E+00  0.18590297194E+04  0.18590297194E+04  0.00000000000E+00 0. -1.
         21   -1    0    0  501  503 -0.00000000000E+00 -0.00000000000E+00 -0.17794373774E+03  0.17794373774E+03  0.00000000000E+00 0. -1.
          6    2    1    2  501    0 -0.18805001869E+03 -0.15805598373E+03 -0.26808692203E+02  0.30100336716E+03  0.17187151464E+03 0.  0.
         24    2    3    3    0    0 -0.80705262909E+02 -0.15767417984E+02 -0.43307595915E+02  0.12194126520E+03  0.78944115445E+02 0.  0.
         -6    2    1    2    0  502  0.18805001869E+03  0.15805598373E+03  0.17078946739E+04  0.17359700900E+04  0.19063953626E+03 0.  0.
        -24    2    5    5    0    0  0.14170375722E+03  0.57217997546E+02  0.13601081976E+04  0.13708758577E+04  0.77797518354E+02 0.  0.
          5    1    3    3  501    0 -0.10734475578E+03 -0.14228856575E+03  0.16498903713E+02  0.17906210196E+03  0.47000000000E+01 0. -1.
        -13    1    4    4    0    0 -0.71404150983E+01 -0.16140544900E+02 -0.45019517873E+02  0.48355555079E+02  0.00000000000E+00 0.  1.
         14    1    4    4    0    0 -0.73564847811E+02  0.37312691631E+00  0.17119219578E+01  0.73585710121E+02  0.00000000000E+00 0. -1.
         -5    1    5    5    0  502  0.46346261469E+02  0.10083798618E+03  0.34778647626E+03  0.36509423233E+03  0.47000000000E+01 0.  1.
         13    1    6    6    0    0  0.10753410836E+02  0.26458493254E+02  0.44715881422E+03  0.44806996423E+03  0.00000000000E+00 0. -1.
        -14    1    6    6    0    0  0.13095034638E+03  0.30759504292E+02  0.91294938338E+03  0.92280589343E+03  0.00000000000E+00 0.  1.
</event>
<event>
12    1  0.8728348E-002  0.1949485E+03  0.7818608E-02  0.1154773E+00
         21   -1    0    0  503  502  0.00000000000E+00  0.00000000000E+00  0.10477367847E+04  0.10477367847E+04  0.00000000000E+00 0. -1.
         21   -1    0    0  501  503 -0.00000000000E+00 -0.00000000000E+00 -0.96208756619E+02  0.96208756619E+02  0.00000000000E+00 0.  1.
          6    2    1    2  501    0 -0.68722145044E+02  0.48342585910E+02  0.20647902456E+02  0.19287102086E+03  0.17237504454E+03 0.  0.
         24    2    3    3    0    0 -0.11449170323E+03  0.39902021930E+02  0.15153103386E+02  0.14577135639E+03  0.79493083601E+02 0.  0.
         -6    2    1    2    0  502  0.68722145044E+02 -0.48342585910E+02  0.93088012560E+03  0.95107452043E+03  0.17591246785E+03 0.  0.
        -24    2    5    5    0    0  0.92267438424E+02 -0.16249914390E+02  0.39381993760E+03  0.41252084999E+03  0.79384938863E+02 0.  0.
          5    1    3    3  501    0  0.45769558182E+02  0.84405639802E+01  0.54947990701E+01  0.47099664471E+02  0.47000000000E+01 0. -1.
        -13    1    4    4    0    0 -0.11145415651E+02 -0.28579462246E+00  0.31750351309E+02  0.33650955066E+02  0.00000000000E+00 0.  1.
         14    1    4    4    0    0 -0.10334628757E+03  0.40187816552E+02 -0.16597247923E+02  0.11212040133E+03  0.00000000000E+00 0. -1.
         -5    1    5    5    0  502 -0.23545293380E+02 -0.32092671520E+02  0.53706018801E+03  0.53855367044E+03  0.47000000000E+01 0.  1.
         11    1    6    6    0    0  0.58283736050E+02  0.13607641336E+00  0.34945924643E+03  0.35428629288E+03  0.00000000000E+00 0. -1.
        -12    1    6    6    0    0  0.33983702373E+02 -0.16385990803E+02  0.44360691166E+02  0.58234557115E+02  0.00000000000E+00 0.  1.
</event>
<event>
12    1  0.8728348E-002  0.2298982E+03  0.7818608E-02  0.1127071E+00
         21   -1    0    0  503  502  0.00000000000E+00  0.00000000000E+00  0.17367014164E+03  0.17367014164E+03  0.00000000000E+00 0.  1.
         21   -1    0    0  501  503 -0.00000000000E+00 -0.00000000000E+00 -0.37073538867E+03  0.37073538867E+03  0.00000000000E+00 0.  1.
          6    2    1    2  501    0 -0.50485208687E+02  0.13993707859E+03  0.18620218588E+02  0.23065106436E+03  0.17527709117E+03 0.  0.
         24    2    3    3    0    0  0.80721256435E+01  0.13187428777E+03 -0.25549821409E+02  0.15671154561E+03  0.80310199640E+02 0.  0.
         -6    2    1    2    0  502  0.50485208687E+02 -0.13993707859E+03 -0.21568546562E+03  0.31375446596E+03  0.17259925425E+03 0.  0.
        -24    2    5    5    0    0  0.70601851882E+02 -0.95738721597E+02 -0.68546842083E+02  0.15873821316E+03  0.79678268405E+02 0.  0.
          5    1    3    3  501    0 -0.58557334331E+02  0.80627908235E+01  0.44170039998E+02  0.73939518752E+02  0.47000000000E+01 0. -1.
        -13    1    4    4    0    0  0.30224235808E+02  0.24747175660E+02  0.12302085842E+02  0.40954468003E+02  0.00000000000E+00 0.  1.
         14    1    4    4    0    0 -0.22152110164E+02  0.10712711211E+03 -0.37851907251E+02  0.11575707761E+03  0.00000000000E+00 0. -1.
         -5    1    5    5    0  502 -0.20116643194E+02 -0.44198356997E+02 -0.14713862354E+03  0.15501625280E+03  0.47000000000E+01 0.  1.
         11    1    6    6    0    0  0.27415433835E+02 -0.15311437708E+01 -0.44597064215E+02  0.52372211622E+02  0.00000000000E+00 0. -1.
        -12    1    6    6    0    0  0.43186418047E+02 -0.94207577826E+02 -0.23949777868E+02  0.10636600154E+03  0.00000000000E+00 0.  1.
</event>
<event>
12    1  0.8728348E-002  0.2306201E+03  0.7818608E-02  0.1126217E+00
         21   -1    0    0  503  502  0.00000000000E+00  0.00000000000E+00  0.32080231646E+03  0.32080231646E+03  0.00000000000E+00 0. -1.
         21   -1    0    0  501  503 -0.00000000000E+00 -0.00000000000E+00 -0.16635101413E+03  0.16635101413E+03  0.00000000000E+00 0.  1.
          6    2    1    2  501    0  0.14805916110E+03  0.37594026589E+02  0.92011730096E+02  0.24823003002E+03  0.17267647005E+03 0.  0.
         24    2    3    3    0    0  0.54385310934E+02 -0.29092199467E+02 -0.49126071987E+01  0.97769868812E+02  0.75701356810E+02 0.  0.
         -6    2    1    2    0  502 -0.14805916110E+03 -0.37594026589E+02  0.62439572236E+02  0.23892330057E+03  0.17277389082E+03 0.  0.
        -24    2    5    5    0    0 -0.43533515359E+02 -0.41107464478E+02 -0.24464949115E+02  0.10286287026E+03  0.79982784068E+02 0.  0.
          5    1    3    3  501    0  0.93673850169E+02  0.66686226056E+02  0.96924337295E+02  0.15046016121E+03  0.47000000000E+01 0. -1.
        -13    1    4    4    0    0  0.15645032284E+02 -0.16578380857E+02 -0.38666667098E+02  0.44885642376E+02  0.00000000000E+00 0.  1.
         14    1    4    4    0    0  0.38740278650E+02 -0.12513818610E+02  0.33754059899E+02  0.52884226436E+02  0.00000000000E+00 0. -1.
         -5    1    5    5    0  502 -0.10452564574E+03  0.35134378888E+01  0.86904521351E+02  0.13606043031E+03  0.47000000000E+01 0.  1.
         11    1    6    6    0    0  0.90254142795E+01 -0.40197282753E+02  0.67191047779E+01  0.41742376701E+02  0.00000000000E+00 0. -1.
        -12    1    6    6    0    0 -0.52558929639E+02 -0.91018172484E+00 -0.31184053893E+02  0.61120493558E+02  0.00000000000E+00 0.  1.
</event>
<event>
12    1  0.8728348E-002  0.2111558E+03  0.7818608E-02  0.1140767E+00
         21   -1    0    0  503  502  0.00000000000E+00  0.00000000000E+00  0.47788496886E+03  0.47788496886E+03  0.00000000000E+00 0.  1.
         21   -1    0    0  501  503 -0.00000000000E+00 -0.00000000000E+00 -0.15634837706E+03  0.15634837706E+03  0.00000000000E+00 0.  1.
          6    2    1    2  501    0 -0.10994692310E+03  0.54193614185E+02 -0.40882686597E+02  0.21507709244E+03  0.17193454543E+03 0.  0.
         24    2    3    3    0    0 -0.41030194863E+02  0.26303292637E+02 -0.86342810615E+02  0.12780683208E+03  0.80648405367E+02 0.  0.
         -6    2    1    2    0  502  0.10994692310E+03 -0.54193614185E+02  0.36241927840E+03  0.41915625349E+03  0.17122779495E+03 0.  0.
        -24    2    5    5    0    0  0.95245472173E+02  0.17006161441E+02  0.15429512121E+03  0.19864934767E+03  0.79332650291E+02 0.  0.
          5    1    3    3  501    0 -0.68916728234E+02  0.27890321548E+02  0.45460124018E+02  0.87270260355E+02  0.47000000000E+01 0. -1.
        -11    1    4    4    0    0 -0.63916944358E+02  0.19158549177E+02 -0.77462050251E+02  0.10223891144E+03  0.00000000000E+00 0.  1.
         12    1    4    4    0    0  0.22886749495E+02  0.71447434597E+01 -0.88807603639E+01  0.25567920647E+02  0.00000000000E+00 0. -1.
         -5    1    5    5    0  502  0.14701450925E+02 -0.71199775625E+02  0.20812415719E+03  0.22050690582E+03  0.47000000000E+01 0.  1.
         13    1    6    6    0    0  0.78111169707E+02  0.36567507246E+02  0.14892462628E+03  0.17209614096E+03  0.00000000000E+00 0. -1.
        -14    1    6    6    0    0  0.17134302466E+02 -0.19561345805E+02  0.53704949285E+01  0.26553206708E+02  0.00000000000E+00 0.  1.
</event>
<event>
12    1  0.8728348E-002  0.2906674E+03  0.7818608E-02  0.1090076E+00
         21   -1    0    0  501  502  0.00000000000E+00  0.00000000000E+00  0.13327363262E+03  0.13327363262E+03  0.00000000000E+00 0. -1.
         21   -1    0    0  502  503 -0.00000000000E+00 -0.00000000000E+00 -0.63524017816E+03  0.63524017816E+03  0.00000000000E+00 0.  1.
         -6    2    1    2    0  503  0.16962305825E+03  0.16170213397E+03 -0.22685269990E+03  0.36871358048E+03  0.17195346741E+03 0.  0.
        -24    2    3    3    0    0  0.15521582059E+03  0.68247406027E+02 -0.10504274980E+03  0.21443750127E+03  0.78738829521E+02 0.  0.
          6    2    1    2  501    0 -0.16962305825E+03 -0.16170213397E+03 -0.27511384564E+03  0.39980023031E+03  0.17097670622E+03 0.  0.
         24    2    5    5    0    0 -0.14088239817E+03 -0.42762318575E+02 -0.14562146576E+03  0.22157825726E+03  0.78834299631E+02 0.  0.
          5    1    5    5  501    0 -0.28740660086E+02 -0.11893981540E+03 -0.12949237988E+03  0.17822197305E+03  0.47000000000E+01 0. -1.
        -13    1    6    6    0    0 -0.15075655584E+02 -0.36400781734E+02 -0.48685990165E+02  0.62630806641E+02  0.00000000000E+00 0.  1.
         14    1    6    6    0    0 -0.12580674258E+03 -0.63615368406E+01 -0.96935475591E+02  0.15894745062E+03  0.00000000000E+00 0. -1.
         -5    1    3    3    0  503  0.14407237662E+02  0.93454727945E+02 -0.12180995010E+03  0.15427607921E+03  0.47000000000E+01 0.  1.
         13    1    4    4    0    0  0.93594130980E+02  0.74566206060E+02 -0.44081734899E+02  0.12752717276E+03  0.00000000000E+00 0. -1.
        -14    1    4    4    0    0  0.61621689611E+02 -0.63188000327E+01 -0.60961014898E+02  0.86910328511E+02  0.00000000000E+00 0.  1.
</event>
<event>
12    1  0.8728348E-002  0.2602056E+03  0.7818608E-02  0.1107041E+00
         21   -1    0    0  503  502  0.00000000000E+00  0.00000000000E+00  0.61848411382E+03  0.61848411382E+03  0.00000000000E+00 0.  1.
         21   -1    0    0  501  503 -0.00000000000E+00 -0.00000000000E+00 -0.18866513477E+03  0.18866513477E+03  0.00000000000E+00 0. -1.
          6    2    1    2  501    0 -0.19493707354E+03 -0.94282519130E+01 -0.46625460241E+02  0.26434992394E+03  0.17209762976E+03 0.  0.
         24    2    3    3    0    0 -0.43993261237E+02  0.19315791941E+02 -0.58032388687E+02  0.11019914533E+03  0.80421307142E+02 0.  0.
         -6    2    1    2    0  502  0.19493707354E+03  0.94282519130E+01  0.47644443929E+03  0.54279932466E+03  0.17187916843E+03 0.  0.
        -24    2    5    5    0    0  0.46608027741E+02 -0.44542678809E+02  0.18058114117E+03  0.20743154390E+03  0.79132410391E+02 0.  0.
          5    1    3    3  501    0 -0.15094381230E+03 -0.28744043854E+02  0.11406928446E+02  0.15415077861E+03  0.47000000000E+01 0. -1.
        -13    1    4    4    0    0 -0.38120436664E+02 -0.15782214672E+02  0.99990738899E+00  0.41270398667E+02  0.00000000000E+00 0.  1.
         14    1    4    4    0    0 -0.58728245734E+01  0.35098006612E+02 -0.59032296076E+02  0.68928746664E+02  0.00000000000E+00 0. -1.
         -5    1    5    5    0  502  0.14832904579E+03  0.53970930722E+02  0.29586329813E+03  0.33536778076E+03  0.47000000000E+01 0.  1.
         13    1    6    6    0    0  0.64426478737E+02 -0.51900568657E+02  0.14357754569E+03  0.16570742837E+03  0.00000000000E+00 0. -1.
        -14    1    6    6    0    0 -0.17818450996E+02  0.73578898478E+01  0.37003595473E+02  0.41724115531E+02  0.00000000000E+00 0.  1.
</event>
<event>
12    1  0.8728348E-002  0.2528991E+03  0.7818608E-02  0.1111810E+00
         21   -1    0    0  503  502  0.00000000000E+00  0.00000000000E+00  0.56392959479E+03  0.56392959479E+03  0.00000000000E+00 0. -1.
         21   -1    0    0  501  503 -0.00000000000E+00 -0.00000000000E+00 -0.14280969746E+03  0.14280969746E+03  0.00000000000E+00 0. -1.
          6    2    1    2  501    0  0.16765888201E+03  0.71058439124E+02  0.47056093986E+02  0.25520670725E+03  0.17250328970E+03 0.  0.
         24    2    3    3    0    0  0.15122021365E+03 -0.23602380630E+01  0.53481155450E+02  0.17955022443E+03  0.80653117515E+02 0.  0.
         -6    2    1    2    0  502 -0.16765888201E+03 -0.71058439124E+02  0.37406380335E+03  0.45153258501E+03  0.17549684859E+03 0.  0.
        -24    2    5    5    0    0 -0.14187439215E+03 -0.32247100078E+02  0.15620059418E+03  0.22869266968E+03  0.82057863317E+02 0.  0.
          5    1    3    3  501    0  0.16438668360E+02  0.73418677187E+02 -0.64250614635E+01  0.75656482817E+02  0.47000000000E+01 0. -1.
        -13    1    4    4    0    0  0.32592127916E+02 -0.31939114923E+02  0.31192645273E+02  0.55275084652E+02  0.00000000000E+00 0.  1.
         14    1    4    4    0    0  0.11862808574E+03  0.29578876860E+02  0.22288510177E+02  0.12427513978E+03  0.00000000000E+00 0. -1.
         -5    1    5    5    0  502 -0.25784489865E+02 -0.38811339047E+02  0.21786320917E+03  0.22283991533E+03  0.47000000000E+01 0.  1.
         11    1    6    6    0    0 -0.43888052635E+02  0.24246324663E+02  0.26888454026E+02  0.56894941636E+02  0.00000000000E+00 0. -1.
        -12    1    6    6    0    0 -0.97986339511E+02 -0.56493424741E+02  0.12931214015E+03  0.17179772804E+03  0.00000000000E+00 0.  1.
</event>
<event>
12    1  0.8728348E-002  0.2297512E+03  0.7818608E-02  0.1127107E+00
         21   -1    0    0  503  502  0.00000000000E+00  0.00000000000E+00  0.76591033973E+03  0.76591033973E+03  0.00000000000E+00 0.  1.
         21   -1    0    0  501  503 -0.00000000000E+00 -0.00000000000E+00 -0.78251704575E+02  0.78251704575E+02  0.00000000000E+00 0. -1.
          6    2    1    2  501    0 -0.67619298680E+02 -0.13739081547E+03  0.19316440850E+03  0.29890048582E+03  0.16905740440E+03 0.  0.
         24    2    3    3    0    0 -0.46933214404E+02 -0.65928116793E+01  0.72078797986E+02  0.11940160852E+03  0.82554219864E+02 0.  0.
         -6    2    1    2    0  502  0.67619298680E+02  0.13739081547E+03  0.49449422665E+03  0.54526155848E+03  0.17128053374E+03 0.  0.
        -24    2    5    5    0    0  0.70544537482E+01  0.14747820464E+03  0.36900971652E+03  0.40548206018E+03  0.80299091419E+02 0.  0.
          5    1    3    3  501    0 -0.20686084277E+02 -0.13079800379E+03  0.12108561052E+03  0.17949887730E+03  0.47000000000E+01 0. -1.
        -11    1    4    4    0    0 -0.50265331431E+02 -0.32316371318E+02  0.71862628770E+02  0.93462232012E+02  0.00000000000E+00 0.  1.
         12    1    4    4    0    0  0.33321170273E+01  0.25723559638E+02  0.21616921669E+00  0.25939376505E+02  0.00000000000E+00 0. -1.
         -5    1    5    5    0  502  0.60564844932E+02 -0.10087389172E+02  0.12548451013E+03  0.13977949830E+03  0.47000000000E+01 0.  1.
         11    1    6    6    0    0  0.59379817919E+01  0.91982625352E+02  0.12541764726E+03  0.15564590980E+03  0.00000000000E+00 0. -1.
        -12    1    6    6    0    0  0.11164719563E+01  0.55495579292E+02  0.24359206926E+03  0.24983615038E+03  0.00000000000E+00 0.  1.
</event>
<event>
12    1  0.8728348E-002  0.1754507E+03  0.7818608E-02  0.1172670E+00
         21   -1    0    0  503  502  0.00000000000E+00  0.00000000000E+00  0.19312210480E+03  0.19312210480E+03  0.00000000000E+00 0. -1.
         21   -1    0    0  501  503 -0.00000000000E+00 -0.00000000000E+00 -0.19878787052E+03  0.19878787052E+03  0.00000000000E+00 0. -1.
          6    2    1    2  501    0 -0.16494330239E+02 -0.15837793749E+02  0.85928826542E+02  0.19536301538E+03  0.17395414887E+03 0.  0.
         24    2    3    3    0    0 -0.43000759811E+02 -0.70243141551E+02  0.64943583504E+02  0.13113682833E+03  0.78714893299E+02 0.  0.
         -6    2    1    2    0  502  0.16494330239E+02  0.15837793749E+02 -0.91594592257E+02  0.19654695994E+03  0.17238978940E+03 0.  0.
        -24    2    5    5    0    0  0.56946586611E+02 -0.17936635080E+01 -0.38600080546E+01  0.98227579369E+02  0.79922629656E+02 0.  0.
          5    1    3    3  501    0  0.26506429571E+02  0.54405347802E+02  0.20985243038E+02  0.64226187054E+02  0.47000000000E+01 0. -1.
        -11    1    4    4    0    0  0.17542577315E+02 -0.13554323516E+01  0.26239964287E+02  0.31592957150E+02  0.00000000000E+00 0.  1.
         12    1    4    4    0    0 -0.60543337126E+02 -0.68887709200E+02  0.38703619217E+02  0.99543871181E+02  0.00000000000E+00 0. -1.
         -5    1    5    5    0  502 -0.40452256372E+02  0.17631457257E+02 -0.87734584203E+02  0.98319380571E+02  0.47000000000E+01 0.  1.
         13    1    6    6    0    0  0.33264686086E+02  0.36238128373E+02 -0.16143025648E+02  0.51771986300E+02  0.00000000000E+00 0. -1.
        -14    1    6    6    0    0  0.23681900525E+02 -0.38031791881E+02  0.12283017594E+02  0.46455593069E+02  0.00000000000E+00 0.  1.
</event>
<event>
12    1  0.8728348E-002  0.1998044E+03  0.7818608E-02  0.1149938E+00
         21   -1    0    0  501  502  0.00000000000E+00  0.00000000000E+00  0.20478087276E+03  0.20478087276E+03  0.00000000000E+00 0. -1.
         21   -1    0    0  502  503 -0.00000000000E+00 -0.00000000000E+00 -0.21604861992E+03  0.21604861992E+03  0.00000000000E+00 0.  1.
         -6    2    1    2    0  503  0.11345644944E+02 -0.10064044207E+03 -0.71635893371E+02  0.21225813800E+03  0.17223412463E+03 0.  0.
        -24    2    3    3    0    0 -0.59463280073E+01 -0.12997708714E+03 -0.85748927480E+02  0.17509742213E+03  0.79855035378E+02 0.  0.
          6    2    1    2  501    0 -0.11345644944E+02  0.10064044207E+03  0.60368146217E+02  0.20857135468E+03  0.17204788484E+03 0.  0.
         24    2    5    5    0    0  0.11953743032E+02  0.59166133749E+02 -0.32154383214E+02  0.10442968107E+03  0.78918505898E+02 0.  0.
          5    1    5    5  501    0 -0.23299387976E+02  0.41474308324E+02  0.92522529431E+02  0.10414167361E+03  0.47000000000E+01 0. -1.
        -13    1    6    6    0    0 -0.29874428854E+02  0.22465885741E+02  0.47182158339E+01  0.37675709445E+02  0.00000000000E+00 0.  1.
         14    1    6    6    0    0  0.41828171886E+02  0.36700248008E+02 -0.36872599048E+02  0.66753971625E+02  0.00000000000E+00 0. -1.
         -5    1    3    3    0  503  0.17291972951E+02  0.29336645063E+02  0.14113034109E+02  0.37160715869E+02  0.47000000000E+01 0.  1.
         11    1    4    4    0    0 -0.40164458620E+02 -0.63108229540E+02 -0.59310637372E+02  0.95465093502E+02  0.00000000000E+00 0. -1.
        -12    1    4    4    0    0  0.34218130613E+02 -0.66868857595E+02 -0.26438290109E+02  0.79632328627E+02  0.00000000000E+00 0.  1.
</event>
<event>
12    1  0.8728348E-002  0.2654170E+03  0.7818608E-02  0.1104038E+00
         21   -1    0    0  501  502  0.00000000000E+00  0.00000000000E+00  0.10649677215E+04  0.10649677215E+04  0.00000000000E+00 0. -1.
         21   -1    0    0  502  503 -0.00000000000E+00 -0.00000000000E+00 -0.71879996834E+02  0.71879996834E+02  0.00000000000E+00 0.  1.
         -6    2    1    2    0  503 -0.30980372310E+02  0.19950520965E+03  0.66017764921E+03  0.71153405746E+03  0.17229066794E+03 0.  0.
        -24    2    3    3    0    0 -0.73567027654E+02  0.73028905445E+02  0.30800992664E+03  0.33489885789E+03  0.80881404007E+02 0.  0.
          6    2    1    2  501    0  0.30980372310E+02 -0.19950520965E+03  0.33291007550E+03  0.42531366092E+03  0.17117382875E+03 0.  0.
         24    2    5    5    0    0  0.78202491856E+02 -0.16566737348E+03  0.29299137842E+03  0.35467004756E+03  0.79909864481E+02 0.  0.
          5    1    5    5  501    0 -0.47222119547E+02 -0.33837836176E+02  0.39918697073E+02  0.70643613353E+02  0.47000000000E+01 0. -1.
        -11    1    6    6    0    0  0.12493397109E+02 -0.10153685981E+03  0.19612288068E+03  0.22120127305E+03  0.00000000000E+00 0.  1.
         12    1    6    6    0    0  0.65709094748E+02 -0.64130513669E+02  0.96868497737E+02  0.13346877451E+03  0.00000000000E+00 0. -1.
         -5    1    3    3    0  503  0.42586655344E+02  0.12647630421E+03  0.35216772257E+03  0.37663519958E+03  0.47000000000E+01 0.  1.
         13    1    4    4    0    0 -0.14563170559E+02  0.38706893973E+02  0.21824251536E+03  0.22212632687E+03  0.00000000000E+00 0. -1.
        -14    1    4    4    0    0 -0.59003857095E+02  0.34322011472E+02  0.89767411287E+02  0.11277253102E+03  0.00000000000E+00 0.  1.
</event>
<event>
12    1  0.8728348E-002  0.1731735E+03  0.7818608E-02  0.1175135E+00
         21   -1    0    0  501  502  0.00000000000E+00  0.00000000000E+00  0.10367340215E+03  0.10367340215E+03  0.00000000000E+00 0.  1.
         21   -1    0    0  502  503 -0.00000000000E+00 -0.00000000000E+00 -0.29524392868E+03  0.29524392868E+03  0.00000000000E+00 0.  1.
         -6    2    1    2    0  503  0.12563955817E+02 -0.62422844948E+01 -0.13115617389E+03  0.21550812182E+03  0.17042590625E+03 0.  0.
        -24    2    3    3    0    0 -0.46351827956E+02 -0.27680999595E+02 -0.46530812246E+02  0.11008407373E+03  0.83896704988E+02 0.  0.
          6    2    1    2  501    0 -0.12563955817E+02  0.62422844948E+01 -0.60414352641E+02  0.18340920901E+03  0.17260424341E+03 0.  0.
         24    2    5    5    0    0 -0.44917455078E+02 -0.20158926347E+02 -0.91323235803E+02  0.13124387659E+03  0.80380729425E+02 0.  0.
          5    1    5    5  501    0  0.32353499261E+02  0.26401210842E+02  0.30908883162E+02  0.52165332422E+02  0.47000000000E+01 0. -1.
        -13    1    6    6    0    0 -0.21329877269E+02 -0.41708439923E+02 -0.16131203686E+02  0.49545669412E+02  0.00000000000E+00 0.  1.
         14    1    6    6    0    0 -0.23587577808E+02  0.21549513576E+02 -0.75192032117E+02  0.81698207179E+02  0.00000000000E+00 0. -1.
         -5    1    3    3    0  503  0.58915783773E+02  0.21438715100E+02 -0.84625361640E+02  0.10542404809E+03  0.47000000000E+01 0.  1.
         13    1    4    4    0    0  0.19030923223E+02 -0.20763873112E+02  0.21918890702E+01  0.28250997204E+02  0.00000000000E+00 0. -1.
        -14    1    4    4    0    0 -0.65382751179E+02 -0.69171264824E+01 -0.48722701316E+02  0.81833076528E+02  0.00000000000E+00 0.  1.
</event>
<event>
12    1  0.8728348E-002  0.2785468E+03  0.7818608E-02  0.1096675E+00
         21   -1    0    0  503  502  0.00000000000E+00  0.00000000000E+00  0.14157977320E+03  0.14157977320E+03  0.00000000000E+00 0.  1.
         21   -1    0    0  501  503 -0.00000000000E+00 -0.00000000000E+00 -0.69886303371E+03  0.69886303371E+03  0.00000000000E+00 0. -1.
          6    2    1    2  501    0  0.18359072696E+03  0.11565030269E+03 -0.47507656001E+03  0.55001848424E+03  0.17245882869E+03 0.  0.
         24    2    3    3    0    0  0.27467427685E+02  0.82107322752E+02 -0.19843792682E+03  0.23056482648E+03  0.79287176628E+02 0.  0.
         -6    2    1    2    0  502 -0.18359072696E+03 -0.11565030269E+03 -0.82206700507E+02  0.29042432268E+03  0.17466481631E+03 0.  0.
        -24    2    5    5    0    0 -0.12500126718E+03 -0.20140044673E+02 -0.95510428874E+02  0.17749065466E+03  0.79685332854E+02 0.  0.
          5    1    3    3  501    0  0.15612329927E+03  0.33542979939E+02 -0.27663863319E+03  0.31945365775E+03  0.47000000000E+01 0. -1.
        -13    1    4    4    0    0  0.26087655595E+02  0.68740397000E+02 -0.20336830010E+03  0.21625095015E+03  0.00000000000E+00 0.  1.
         14    1    4    4    0    0  0.13797720894E+01  0.13366925751E+02  0.49303732807E+01  0.14313876335E+02  0.00000000000E+00 0. -1.
         -5    1    5    5    0  502 -0.58589459780E+02 -0.95510258017E+02  0.13303728367E+02  0.11293366802E+03  0.47000000000E+01 0.  1.
         11    1    6    6    0    0 -0.95179675406E+02  0.27874737437E+01 -0.26410297194E+02  0.98815203376E+02  0.00000000000E+00 0. -1.
        -12    1    6    6    0    0 -0.29821591773E+02 -0.22927518417E+02 -0.69100131680E+02  0.78675451285E+02  0.00000000000E+00 0.  1.
</event>
<event>
12    1  0.8728348E-002  0.2473114E+03  0.7818608E-02  0.1115427E+00
         21   -1    0    0  501  502  0.00000000000E+00  0.00000000000E+00  0.80248459557E+02  0.80248459557E+02  0.00000000000E+00 0. -1.
         21   -1    0    0  502  503 -0.00000000000E+00 -0.00000000000E+00 -0.80359707328E+03  0.80359707328E+03  0.00000000000E+00 0.  1.
         -6    2    1    2    0  503 -0.61261477377E+02 -0.16305118377E+03 -0.47287128720E+03  0.53363864633E+03  0.17556848652E+03 0.  0.
        -24    2    3    3    0    0 -0.51548647864E+02 -0.10451519720E+03 -0.15525310937E+03  0.21049131512E+03  0.81377983684E+02 0.  0.
          6    2    1    2  501    0  0.61261477377E+02  0.16305118377E+03 -0.25047732652E+03  0.35020688651E+03  0.17195149059E+03 0.  0.
         24    2    5    5    0    0  0.52208472416E+02  0.56445666875E+02 -0.45272088678E+02  0.11873772491E+03  0.78340585921E+02 0.  0.
          5    1    5    5  501    0  0.90530049605E+01  0.10660551690E+03 -0.20520523784E+03  0.23146916160E+03  0.47000000000E+01 0. -1.
        -11    1    6    6    0    0  0.28725397428E+02  0.28973691237E+02 -0.65614553424E+02  0.77265081779E+02  0.00000000000E+00 0.  1.
         12    1    6    6    0    0  0.23483074988E+02  0.27471975638E+02  0.20342464745E+02  0.41472643131E+02  0.00000000000E+00 0. -1.
         -5    1    3    3    0  503 -0.97128295133E+01 -0.58535986567E+02 -0.31761817783E+03  0.32314733121E+03  0.47000000000E+01 0.  1.
         11    1    4    4    0    0 -0.37004045849E+02 -0.11603736313E+03 -0.14473599370E+03  0.18916256745E+03  0.00000000000E+00 0. -1.
        -12    1    4    4    0    0 -0.14544602015E+02  0.11522165922E+02 -0.10517115670E+02  0.21328747674E+02  0.00000000000E+00 0.  1.
</event>
<event>
12    1  0.8728348E-002  0.2253775E+03  0.7818608E-02  0.1130624E+00
         21   -1    0    0  503  502  0.00000000000E+00  0.00000000000E+00  0.17097798573E+04  0.17097798573E+04  0.00000000000E+00 0.  1.
         21   -1    0    0  501  503 -0.00000000000E+00 -0.00000000000E+00 -0.33791832225E+02  0.33791832225E+02  0.00000000000E+00 0. -1.
          6    2    1    2  501    0  0.13053629153E+03 -0.56715490255E+02  0.52321880567E+03  0.56969547110E+03  0.17475308565E+03 0.  0.
         24    2    3    3    0    0 -0.50766428793E+01 -0.27682040499E+02  0.24243622568E+03  0.25649464669E+03  0.78880368858E+02 0.  0.
         -6    2    1    2    0  502 -0.13053629153E+03  0.56715490255E+02  0.11527692194E+04  0.11738762185E+04  0.16985915559E+03 0.  0.
        -24    2    5    5    0    0 -0.26818337887E+02  0.12841644852E+02  0.24115283281E+03  0.25531818840E+03  0.78412737902E+02 0.  0.
          5    1    3    3  501    0  0.13561293441E+03 -0.29033449756E+02  0.28078257999E+03  0.31320082441E+03  0.47000000000E+01 0. -1.
        -13    1    4    4    0    0  0.24563393050E+02  0.97094790366E+01  0.15165501974E+03  0.15393790721E+03  0.00000000000E+00 0.  1.
         14    1    4    4    0    0 -0.29640035930E+02 -0.37391519536E+02  0.90781205935E+02  0.10255673949E+03  0.00000000000E+00 0. -1.
         -5    1    5    5    0  502 -0.10371795364E+03  0.43873845403E+02  0.91161638663E+03  0.91855803006E+03  0.47000000000E+01 0.  1.
         13    1    6    6    0    0 -0.18693363895E+02  0.42725079496E+02  0.18895664153E+03  0.19462653120E+03  0.00000000000E+00 0. -1.
        -14    1    6    6    0    0 -0.81249739922E+01 -0.29883434644E+02  0.52196191286E+02  0.60691657196E+02  0.00000000000E+00 0.  1.
</event>
<event>
12    1  0.8728348E-002  0.1980724E+03  0.7818608E-02  0.1151377E+00
         21   -1    0    0  501  502  0.00000000000E+00  0.00000000000E+00  0.50955134726E+03  0.50955134726E+03  0.00000000000E+00 0.  1.
         21   -1    0    0  502  503 -0.00000000000E+00 -0.00000000000E+00 -0.81562571811E+02  0.81562571811E+02  0.00000000000E+00 0.  1.
         -6    2    1    2    0  503  0.91691957331E+02  0.35507592086E+02  0.28396554984E+03  0.34622120608E+03  0.17194326363E+03 0.  0.
        -24    2    3    3    0    0  0.11516759502E+03 -0.19047738559E+02  0.21060443463E+03  0.25171547666E+03  0.73348906061E+02 0.  0.
          6    2    1    2  501    0 -0.91691957331E+02 -0.35507592086E+02  0.14402322561E+03  0.24489271299E+03  0.17193471792E+03 0.  0.
         24    2    5    5    0    0 -0.43641065447E+02 -0.55911158573E+02  0.16502652707E+02  0.10702037984E+03  0.78424638401E+02 0.  0.
          5    1    5    5  501    0 -0.48050891884E+02  0.20403566487E+02  0.12752057290E+03  0.13787233315E+03  0.47000000000E+01 0. -1.
        -13    1    6    6    0    0  0.22675377705E+02 -0.19072241476E+02  0.79530959010E+01  0.30678573686E+02  0.00000000000E+00 0.  1.
         14    1    6    6    0    0 -0.66316443152E+02 -0.36838917097E+02  0.85495568063E+01  0.76341806154E+02  0.00000000000E+00 0. -1.
         -5    1    3    3    0  503 -0.23475637690E+02  0.54555330645E+02  0.73361115211E+02  0.94505729412E+02  0.47000000000E+01 0.  1.
         13    1    4    4    0    0  0.92628159252E+02 -0.11834618384E+02  0.93138694939E+02  0.13188953929E+03  0.00000000000E+00 0. -1.
        -14    1    4    4    0    0  0.22539435769E+02 -0.72131201754E+01  0.11746573969E+03  0.11982593738E+03  0.00000000000E+00 0.  1.
</event>
